%VERSION  VERSION_STAMP = V0001.000  DATE = 03/03/25  11:45:26                  
%FLAG TITLE                                                                     
%FORMAT(20a4)                                                                   
default_name                                                                    
%FLAG POINTERS                                                                  
%FORMAT(10I8)                                                                   
   52866      27   38641   14265    1691    2538    3793    4964       0       0
  100848   12835   14265    2538    4964      64     118      66      44       0
       0       0       0       0       0       0       0       0      34       0
   12635
%FLAG ATOM_NAME                                                                 
%FORMAT(20a4)                                                                   
HO5'O5' C5' H5' H5''C4' H4' O4' C1' H1' N9  C8  H8  N7  C5  C6  O6  N1  H1  C2  
N2  H21 H22 N3  C4  C3' H3' C2' H2' O2' HO2'O3' P   OP1 OP2 O5' C5' H5' H5''C4' 
H4' O4' C1' H1' N9  C8  H8  N7  C5  C6  O6  N1  H1  C2  N2  H21 H22 N3  C4  C3' 
H3' C2' H2' O2' HO2'O3' P   OP1 OP2 O5' C5' H5' H5''C4' H4' O4' C1' H1' N9  C8  
H8  N7  C5  C6  N6  H61 H62 N1  C2  H2  N3  C4  C3' H3' C2' H2' O2' HO2'O3' P   
OP1 OP2 O5' C5' H5' H5''C4' H4' O4' C1' H1' N1  C6  H6  C5  H5  C4  O4  N3  H3  
C2  O2  C3' H3' C2' H2' O2' HO2'O3' P   OP1 OP2 O5' C5' H5' H5''C4' H4' O4' C1' 
H1' N1  C6  H6  C5  H5  C4  N4  H41 H42 N3  C2  O2  C3' H3' C2' H2' O2' HO2'O3' 
P   OP1 OP2 O5' C5' H5' H5''C4' H4' O4' C1' H1' N9  C8  H8  N7  C5  C6  N6  H61 
H62 N1  C2  H2  N3  C4  C3' H3' C2' H2' O2' HO2'O3' P   OP1 OP2 O5' C5' H5' H5''
C4' H4' O4' C1' H1' N1  C6  H6  C5  H5  C4  O4  N3  H3  C2  O2  C3' H3' C2' H2' 
O2' HO2'O3' P   OP1 OP2 O5' C5' H5' H5''C4' H4' O4' C1' H1' N9  C8  H8  N7  C5  
C6  N6  H61 H62 N1  C2  H2  N3  C4  C3' H3' C2' H2' O2' HO2'O3' P   OP1 OP2 O5' 
C5' H5' H5''C4' H4' O4' C1' H1' N1  C6  H6  C5  H5  C4  O4  N3  H3  C2  O2  C3' 
H3' C2' H2' O2' HO2'O3' P   OP1 OP2 O5' C5' H5' H5''C4' H4' O4' C1' H1' N9  C8  
H8  N7  C5  C6  N6  H61 H62 N1  C2  H2  N3  C4  C3' H3' C2' H2' O2' HO2'O3' P   
OP1 OP2 O5' C5' H5' H5''C4' H4' O4' C1' H1' N9  C8  H8  N7  C5  C6  N6  H61 H62 
N1  C2  H2  N3  C4  C3' H3' C2' H2' O2' HO2'O3' P   OP1 OP2 O5' C5' H5' H5''C4' 
H4' O4' C1' H1' N1  C6  H6  C5  H5  C4  O4  N3  H3  C2  O2  C3' H3' C2' H2' O2' 
HO2'O3' P   OP1 OP2 O5' C5' H5' H5''C4' H4' O4' C1' H1' N1  C6  H6  C5  H5  C4  
N4  H41 H42 N3  C2  O2  C3' H3' C2' H2' O2' HO2'O3' P   OP1 OP2 O5' C5' H5' H5''
C4' H4' O4' C1' H1' N9  C8  H8  N7  C5  C6  O6  N1  H1  C2  N2  H21 H22 N3  C4  
C3' H3' C2' H2' O2' HO2'O3' P   OP1 OP2 O5' C5' H5' H5''C4' H4' O4' C1' H1' N1  
C6  H6  C5  H5  C4  N4  H41 H42 N3  C2  O2  C3' H3' C2' H2' O2' HO2'O3' P   OP1 
OP2 O5' C5' H5' H5''C4' H4' O4' C1' H1' N9  C8  H8  N7  C5  C6  O6  N1  H1  C2  
N2  H21 H22 N3  C4  C3' H3' C2' H2' O2' HO2'O3' P   OP1 OP2 O5' C5' H5' H5''C4' 
H4' O4' C1' H1' N1  C6  H6  C5  H5  C4  O4  N3  H3  C2  O2  C3' H3' C2' H2' O2' 
HO2'O3' P   OP1 OP2 O5' C5' H5' H5''C4' H4' O4' C1' H1' N9  C8  H8  N7  C5  C6  
O6  N1  H1  C2  N2  H21 H22 N3  C4  C3' H3' C2' H2' O2' HO2'O3' P   OP1 OP2 O5' 
C5' H5' H5''C4' H4' O4' C1' H1' N9  C8  H8  N7  C5  C6  O6  N1  H1  C2  N2  H21 
H22 N3  C4  C3' H3' C2' H2' O2' HO2'O3' P   OP1 OP2 O5' C5' H5' H5''C4' H4' O4' 
C1' H1' N9  C8  H8  N7  C5  C6  N6  H61 H62 N1  C2  H2  N3  C4  C3' H3' C2' H2' 
O2' HO2'O3' P   OP1 OP2 O5' C5' H5' H5''C4' H4' O4' C1' H1' N1  C6  H6  C5  H5  
C4  O4  N3  H3  C2  O2  C3' H3' C2' H2' O2' HO2'O3' P   OP1 OP2 O5' C5' H5' H5''
C4' H4' O4' C1' H1' N9  C8  H8  N7  C5  C6  N6  H61 H62 N1  C2  H2  N3  C4  C3' 
H3' C2' H2' O2' HO2'O3' P   OP1 OP2 O5' C5' H5' H5''C4' H4' O4' C1' H1' N1  C6  
H6  C5  H5  C4  O4  N3  H3  C2  O2  C3' H3' C2' H2' O2' HO2'O3' P   OP1 OP2 O5' 
C5' H5' H5''C4' H4' O4' C1' H1' N9  C8  H8  N7  C5  C6  O6  N1  H1  C2  N2  H21 
H22 N3  C4  C3' H3' C2' H2' O2' HO2'O3' P   OP1 OP2 O5' C5' H5' H5''C4' H4' O4' 
C1' H1' N9  C8  H8  N7  C5  C6  O6  N1  H1  C2  N2  H21 H22 N3  C4  C3' H3' C2' 
H2' O2' HO2'O3' P   OP1 OP2 O5' C5' H5' H5''C4' H4' O4' C1' H1' N1  C6  H6  C5  
H5  C4  N4  H41 H42 N3  C2  O2  C3' H3' C2' H2' O2' HO2'O3' P   OP1 OP2 O5' C5' 
H5' H5''C4' H4' O4' C1' H1' N9  C8  H8  N7  C5  C6  N6  H61 H62 N1  C2  H2  N3  
C4  C3' H3' C2' H2' O2' HO2'O3' P   OP1 OP2 O5' C5' H5' H5''C4' H4' O4' C1' H1' 
N1  C6  H6  C5  H5  C4  N4  H41 H42 N3  C2  O2  C3' H3' C2' H2' O2' HO2'O3' P   
OP1 OP2 O5' C5' H5' H5''C4' H4' O4' C1' H1' N9  C8  H8  N7  C5  C6  O6  N1  H1  
C2  N2  H21 H22 N3  C4  C3' H3' C2' H2' O2' HO2'O3' P   OP1 OP2 O5' C5' H5' H5''
C4' H4' O4' C1' H1' N1  C6  H6  C5  H5  C4  N4  H41 H42 N3  C2  O2  C3' H3' C2' 
H2' O2' HO2'O3' P   OP1 OP2 O5' C5' H5' H5''C4' H4' O4' C1' H1' N9  C8  H8  N7  
C5  C6  N6  H61 H62 N1  C2  H2  N3  C4  C3' H3' C2' H2' O2' HO2'O3' P   OP1 OP2 
O5' C5' H5' H5''C4' H4' O4' C1' H1' N9  C8  H8  N7  C5  C6  N6  H61 H62 N1  C2  
H2  N3  C4  C3' H3' C2' H2' O2' HO2'O3' P   OP1 OP2 O5' C5' H5' H5''C4' H4' O4' 
C1' H1' N9  C8  H8  N7  C5  C6  O6  N1  H1  C2  N2  H21 H22 N3  C4  C3' H3' C2' 
H2' O2' HO2'O3' P   OP1 OP2 O5' C5' H5' H5''C4' H4' O4' C1' H1' N1  C6  H6  C5  
H5  C4  O4  N3  H3  C2  O2  C3' H3' C2' H2' O2' HO2'O3' P   OP1 OP2 O5' C5' H5' 
H5''C4' H4' O4' C1' H1' N1  C6  H6  C5  H5  C4  O4  N3  H3  C2  O2  C3' H3' C2' 
H2' O2' HO2'O3' P   OP1 OP2 O5' C5' H5' H5''C4' H4' O4' C1' H1' N1  C6  H6  C5  
H5  C4  O4  N3  H3  C2  O2  C3' H3' C2' H2' O2' HO2'O3' P   OP1 OP2 O5' C5' H5' 
H5''C4' H4' O4' C1' H1' N1  C6  H6  C5  H5  C4  N4  H41 H42 N3  C2  O2  C3' H3' 
C2' H2' O2' HO2'O3' P   OP1 OP2 O5' C5' H5' H5''C4' H4' O4' C1' H1' N1  C6  H6  
C5  H5  C4  O4  N3  H3  C2  O2  C3' H3' C2' H2' O2' HO2'O3' P   OP1 OP2 O5' C5' 
H5' H5''C4' H4' O4' C1' H1' N9  C8  H8  N7  C5  C6  N6  H61 H62 N1  C2  H2  N3  
C4  C3' H3' C2' H2' O2' HO2'O3' P   OP1 OP2 O5' C5' H5' H5''C4' H4' O4' C1' H1' 
N1  C6  H6  C5  H5  C4  N4  H41 H42 N3  C2  O2  C3' H3' C2' H2' O2' HO2'O3' P   
OP1 OP2 O5' C5' H5' H5''C4' H4' O4' C1' H1' N1  C6  H6  C5  H5  C4  N4  H41 H42 
N3  C2  O2  C3' H3' C2' H2' O2' HO2'O3' P   OP1 OP2 O5' C5' H5' H5''C4' H4' O4' 
C1' H1' N9  C8  H8  N7  C5  C6  O6  N1  H1  C2  N2  H21 H22 N3  C4  C3' H3' C2' 
H2' O2' HO2'O3' P   OP1 OP2 O5' C5' H5' H5''C4' H4' O4' C1' H1' N9  C8  H8  N7  
C5  C6  O6  N1  H1  C2  N2  H21 H22 N3  C4  C3' H3' C2' H2' O2' HO2'O3' P   OP1 
OP2 O5' C5' H5' H5''C4' H4' O4' C1' H1' N9  C8  H8  N7  C5  C6  O6  N1  H1  C2  
N2  H21 H22 N3  C4  C3' H3' C2' H2' O2' HO2'O3' P   OP1 OP2 O5' C5' H5' H5''C4' 
H4' O4' C1' H1' N1  C6  H6  C5  H5  C4  N4  H41 H42 N3  C2  O2  C3' H3' C2' H2' 
O2' HO2'O3' P   OP1 OP2 O5' C5' H5' H5''C4' H4' O4' C1' H1' N9  C8  H8  N7  C5  
C6  N6  H61 H62 N1  C2  H2  N3  C4  C3' H3' C2' H2' O2' HO2'O3' P   OP1 OP2 O5' 
C5' H5' H5''C4' H4' O4' C1' H1' N1  C6  H6  C5  H5  C4  N4  H41 H42 N3  C2  O2  
C3' H3' C2' H2' O2' HO2'O3' P   OP1 OP2 O5' C5' H5' H5''C4' H4' O4' C1' H1' N1  
C6  H6  C5  H5  C4  N4  H41 H42 N3  C2  O2  C3' H3' C2' H2' O2' HO2'O3' P   OP1 
OP2 O5' C5' H5' H5''C4' H4' O4' C1' H1' N9  C8  H8  N7  C5  C6  O6  N1  H1  C2  
N2  H21 H22 N3  C4  C3' H3' C2' H2' O2' HO2'O3' P   OP1 OP2 O5' C5' H5' H5''C4' 
H4' O4' C1' H1' N1  C6  H6  C5  H5  C4  O4  N3  H3  C2  O2  C3' H3' C2' H2' O2' 
HO2'O3' P   OP1 OP2 O5' C5' H5' H5''C4' H4' O4' C1' H1' N9  C8  H8  N7  C5  C6  
N6  H61 H62 N1  C2  H2  N3  C4  C3' H3' C2' H2' O2' HO2'O3' P   OP1 OP2 O5' C5' 
H5' H5''C4' H4' O4' C1' H1' N9  C8  H8  N7  C5  C6  N6  H61 H62 N1  C2  H2  N3  
C4  C3' H3' C2' H2' O2' HO2'O3' P   OP1 OP2 O5' C5' H5' H5''C4' H4' O4' C1' H1' 
N9  C8  H8  N7  C5  C6  N6  H61 H62 N1  C2  H2  N3  C4  C3' H3' C2' H2' O2' HO2'
O3' P   OP1 OP2 O5' C5' H5' H5''C4' H4' O4' C1' H1' N1  C6  H6  C5  H5  C4  O4  
N3  H3  C2  O2  C3' H3' C2' H2' O2' HO2'O3' P   OP1 OP2 O5' C5' H5' H5''C4' H4' 
O4' C1' H1' N9  C8  H8  N7  C5  C6  O6  N1  H1  C2  N2  H21 H22 N3  C4  C3' H3' 
C2' H2' O2' HO2'O3' P   OP1 OP2 O5' C5' H5' H5''C4' H4' O4' C1' H1' N1  C6  H6  
C5  H5  C4  O4  N3  H3  C2  O2  C3' H3' C2' H2' O2' HO2'O3' P   OP1 OP2 O5' C5' 
H5' H5''C4' H4' O4' C1' H1' N1  C6  H6  C5  H5  C4  N4  H41 H42 N3  C2  O2  C3' 
H3' C2' H2' O2' HO2'O3' P   OP1 OP2 O5' C5' H5' H5''C4' H4' O4' C1' H1' N1  C6  
H6  C5  H5  C4  N4  H41 H42 N3  C2  O2  C3' H3' C2' H2' O2' HO2'O3' P   OP1 OP2 
O5' C5' H5' H5''C4' H4' O4' C1' H1' N9  C8  H8  N7  C5  C6  O6  N1  H1  C2  N2  
H21 H22 N3  C4  C3' H3' C2' H2' O2' HO2'O3' P   OP1 OP2 O5' C5' H5' H5''C4' H4' 
O4' C1' H1' N9  C8  H8  N7  C5  C6  N6  H61 H62 N1  C2  H2  N3  C4  C3' H3' C2' 
H2' O2' HO2'O3' P   OP1 OP2 O5' C5' H5' H5''C4' H4' O4' C1' H1' N1  C6  H6  C5  
H5  C4  N4  H41 H42 N3  C2  O2  C3' H3' C2' H2' O2' HO2'O3' P   OP1 OP2 O5' C5' 
H5' H5''C4' H4' O4' C1' H1' N1  C6  H6  C5  H5  C4  O4  N3  H3  C2  O2  C3' H3' 
C2' H2' O2' HO2'O3' P   OP1 OP2 O5' C5' H5' H5''C4' H4' O4' C1' H1' N9  C8  H8  
N7  C5  C6  N6  H61 H62 N1  C2  H2  N3  C4  C3' H3' C2' H2' O2' HO2'O3' P   OP1 
OP2 O5' C5' H5' H5''C4' H4' O4' C1' H1' N1  C6  H6  C5  H5  C4  O4  N3  H3  C2  
O2  C3' H3' C2' H2' O2' HO2'O3' P   OP1 OP2 O5' C5' H5' H5''C4' H4' O4' C1' H1' 
N9  C8  H8  N7  C5  C6  O6  N1  H1  C2  N2  H21 H22 N3  C4  C3' H3' C2' H2' O2' 
HO2'O3' P   OP1 OP2 O5' C5' H5' H5''C4' H4' O4' C1' H1' N9  C8  H8  N7  C5  C6  
O6  N1  H1  C2  N2  H21 H22 N3  C4  C3' H3' C2' H2' O2' HO2'O3' P   OP1 OP2 O5' 
C5' H5' H5''C4' H4' O4' C1' H1' N1  C6  H6  C5  H5  C4  O4  N3  H3  C2  O2  C3' 
H3' C2' H2' O2' HO2'O3' P   OP1 OP2 O5' C5' H5' H5''C4' H4' O4' C1' H1' N1  C6  
H6  C5  H5  C4  N4  H41 H42 N3  C2  O2  C3' H3' C2' H2' O2' HO2'O3' HO3'Na+ Na+ 
Na+ Na+ Na+ Na+ Na+ Na+ Na+ Na+ Na+ Na+ Na+ Na+ Na+ Na+ Na+ Na+ Na+ Na+ Na+ Na+ 
Na+ Na+ Na+ Na+ Na+ Na+ Na+ Na+ Na+ Na+ Na+ Na+ Na+ Na+ Na+ Na+ Na+ Na+ Na+ Na+ 
Na+ Na+ Na+ Na+ Na+ Na+ Na+ Na+ Na+ Na+ Na+ Na+ Na+ Na+ Na+ Na+ Na+ Na+ Na+ Na+ 
Na+ Na+ Na+ Na+ Na+ Na+ Cl- Na+ Cl- Na+ Cl- Na+ Cl- Na+ Cl- Na+ Cl- Na+ Cl- Na+ 
Cl- Na+ Cl- Na+ Cl- Na+ Cl- Na+ Cl- Na+ Cl- Na+ Cl- Na+ Cl- Na+ Cl- Na+ Cl- Na+ 
Cl- Na+ Cl- Na+ Cl- Na+ Cl- Na+ Cl- Na+ Cl- Na+ Cl- Na+ Cl- Na+ Cl- Na+ Cl- Na+ 
Cl- Na+ Cl- Na+ Cl- Na+ Cl- Na+ Cl- O6  C6  N1  C2  C3  F3  F2  F1  N3  C4  C5  
N7  C8  N9  H2  H1  H3  O   H1  H2  EPW O   H1  H2  EPW O   H1  H2  EPW O   H1  
H2  EPW O   H1  H2  EPW O   H1  H2  EPW O   H1  H2  EPW O   H1  H2  EPW O   H1  
H2  EPW O   H1  H2  EPW O   H1  H2  EPW O   H1  H2  EPW O   H1  H2  EPW O   H1  
H2  EPW O   H1  H2  EPW O   H1  H2  EPW O   H1  H2  EPW O   H1  H2  EPW O   H1  
H2  EPW O   H1  H2  EPW O   H1  H2  EPW O   H1  H2  EPW O   H1  H2  EPW O   H1  
H2  EPW O   H1  H2  EPW O   H1  H2  EPW O   H1  H2  EPW O   H1  H2  EPW O   H1  
H2  EPW O   H1  H2  EPW O   H1  H2  EPW O   H1  H2  EPW O   H1  H2  EPW O   H1  
H2  EPW O   H1  H2  EPW O   H1  H2  EPW O   H1  H2  EPW O   H1  H2  EPW O   H1  
H2  EPW O   H1  H2  EPW O   H1  H2  EPW O   H1  H2  EPW O   H1  H2  EPW O   H1  
H2  EPW O   H1  H2  EPW O   H1  H2  EPW O   H1  H2  EPW O   H1  H2  EPW O   H1  
H2  EPW O   H1  H2  EPW O   H1  H2  EPW O   H1  H2  EPW O   H1  H2  EPW O   H1  
H2  EPW O   H1  H2  EPW O   H1  H2  EPW O   H1  H2  EPW O   H1  H2  EPW O   H1  
H2  EPW O   H1  H2  EPW O   H1  H2  EPW O   H1  H2  EPW O   H1  H2  EPW O   H1  
H2  EPW O   H1  H2  EPW O   H1  H2  EPW O   H1  H2  EPW O   H1  H2  EPW O   H1  
H2  EPW O   H1  H2  EPW O   H1  H2  EPW O   H1  H2  EPW O   H1  H2  EPW O   H1  
H2  EPW O   H1  H2  EPW O   H1  H2  EPW O   H1  H2  EPW O   H1  H2  EPW O   H1  
H2  EPW O   H1  H2  EPW O   H1  H2  EPW O   H1  H2  EPW O   H1  H2  EPW O   H1  
H2  EPW O   H1  H2  EPW O   H1  H2  EPW O   H1  H2  EPW O   H1  H2  EPW O   H1  
H2  EPW O   H1  H2  EPW O   H1  H2  EPW O   H1  H2  EPW O   H1  H2  EPW O   H1  
H2  EPW O   H1  H2  EPW O   H1  H2  EPW O   H1  H2  EPW O   H1  H2  EPW O   H1  
H2  EPW O   H1  H2  EPW O   H1  H2  EPW O   H1  H2  EPW O   H1  H2  EPW O   H1  
H2  EPW O   H1  H2  EPW O   H1  H2  EPW O   H1  H2  EPW O   H1  H2  EPW O   H1  
H2  EPW O   H1  H2  EPW O   H1  H2  EPW O   H1  H2  EPW O   H1  H2  EPW O   H1  
H2  EPW O   H1  H2  EPW O   H1  H2  EPW O   H1  H2  EPW O   H1  H2  EPW O   H1  
H2  EPW O   H1  H2  EPW O   H1  H2  EPW O   H1  H2  EPW O   H1  H2  EPW O   H1  
H2  EPW O   H1  H2  EPW O   H1  H2  EPW O   H1  H2  EPW O   H1  H2  EPW O   H1  
H2  EPW O   H1  H2  EPW O   H1  H2  EPW O   H1  H2  EPW O   H1  H2  EPW O   H1  
H2  EPW O   H1  H2  EPW O   H1  H2  EPW O   H1  H2  EPW O   H1  H2  EPW O   H1  
H2  EPW O   H1  H2  EPW O   H1  H2  EPW O   H1  H2  EPW O   H1  H2  EPW O   H1  
H2  EPW O   H1  H2  EPW O   H1  H2  EPW O   H1  H2  EPW O   H1  H2  EPW O   H1  
H2  EPW O   H1  H2  EPW O   H1  H2  EPW O   H1  H2  EPW O   H1  H2  EPW O   H1  
H2  EPW O   H1  H2  EPW O   H1  H2  EPW O   H1  H2  EPW O   H1  H2  EPW O   H1  
H2  EPW O   H1  H2  EPW O   H1  H2  EPW O   H1  H2  EPW O   H1  H2  EPW O   H1  
H2  EPW O   H1  H2  EPW O   H1  H2  EPW O   H1  H2  EPW O   H1  H2  EPW O   H1  
H2  EPW O   H1  H2  EPW O   H1  H2  EPW O   H1  H2  EPW O   H1  H2  EPW O   H1  
H2  EPW O   H1  H2  EPW O   H1  H2  EPW O   H1  H2  EPW O   H1  H2  EPW O   H1  
H2  EPW O   H1  H2  EPW O   H1  H2  EPW O   H1  H2  EPW O   H1  H2  EPW O   H1  
H2  EPW O   H1  H2  EPW O   H1  H2  EPW O   H1  H2  EPW O   H1  H2  EPW O   H1  
H2  EPW O   H1  H2  EPW O   H1  H2  EPW O   H1  H2  EPW O   H1  H2  EPW O   H1  
H2  EPW O   H1  H2  EPW O   H1  H2  EPW O   H1  H2  EPW O   H1  H2  EPW O   H1  
H2  EPW O   H1  H2  EPW O   H1  H2  EPW O   H1  H2  EPW O   H1  H2  EPW O   H1  
H2  EPW O   H1  H2  EPW O   H1  H2  EPW O   H1  H2  EPW O   H1  H2  EPW O   H1  
H2  EPW O   H1  H2  EPW O   H1  H2  EPW O   H1  H2  EPW O   H1  H2  EPW O   H1  
H2  EPW O   H1  H2  EPW O   H1  H2  EPW O   H1  H2  EPW O   H1  H2  EPW O   H1  
H2  EPW O   H1  H2  EPW O   H1  H2  EPW O   H1  H2  EPW O   H1  H2  EPW O   H1  
H2  EPW O   H1  H2  EPW O   H1  H2  EPW O   H1  H2  EPW O   H1  H2  EPW O   H1  
H2  EPW O   H1  H2  EPW O   H1  H2  EPW O   H1  H2  EPW O   H1  H2  EPW O   H1  
H2  EPW O   H1  H2  EPW O   H1  H2  EPW O   H1  H2  EPW O   H1  H2  EPW O   H1  
H2  EPW O   H1  H2  EPW O   H1  H2  EPW O   H1  H2  EPW O   H1  H2  EPW O   H1  
H2  EPW O   H1  H2  EPW O   H1  H2  EPW O   H1  H2  EPW O   H1  H2  EPW O   H1  
H2  EPW O   H1  H2  EPW O   H1  H2  EPW O   H1  H2  EPW O   H1  H2  EPW O   H1  
H2  EPW O   H1  H2  EPW O   H1  H2  EPW O   H1  H2  EPW O   H1  H2  EPW O   H1  
H2  EPW O   H1  H2  EPW O   H1  H2  EPW O   H1  H2  EPW O   H1  H2  EPW O   H1  
H2  EPW O   H1  H2  EPW O   H1  H2  EPW O   H1  H2  EPW O   H1  H2  EPW O   H1  
H2  EPW O   H1  H2  EPW O   H1  H2  EPW O   H1  H2  EPW O   H1  H2  EPW O   H1  
H2  EPW O   H1  H2  EPW O   H1  H2  EPW O   H1  H2  EPW O   H1  H2  EPW O   H1  
H2  EPW O   H1  H2  EPW O   H1  H2  EPW O   H1  H2  EPW O   H1  H2  EPW O   H1  
H2  EPW O   H1  H2  EPW O   H1  H2  EPW O   H1  H2  EPW O   H1  H2  EPW O   H1  
H2  EPW O   H1  H2  EPW O   H1  H2  EPW O   H1  H2  EPW O   H1  H2  EPW O   H1  
H2  EPW O   H1  H2  EPW O   H1  H2  EPW O   H1  H2  EPW O   H1  H2  EPW O   H1  
H2  EPW O   H1  H2  EPW O   H1  H2  EPW O   H1  H2  EPW O   H1  H2  EPW O   H1  
H2  EPW O   H1  H2  EPW O   H1  H2  EPW O   H1  H2  EPW O   H1  H2  EPW O   H1  
H2  EPW O   H1  H2  EPW O   H1  H2  EPW O   H1  H2  EPW O   H1  H2  EPW O   H1  
H2  EPW O   H1  H2  EPW O   H1  H2  EPW O   H1  H2  EPW O   H1  H2  EPW O   H1  
H2  EPW O   H1  H2  EPW O   H1  H2  EPW O   H1  H2  EPW O   H1  H2  EPW O   H1  
H2  EPW O   H1  H2  EPW O   H1  H2  EPW O   H1  H2  EPW O   H1  H2  EPW O   H1  
H2  EPW O   H1  H2  EPW O   H1  H2  EPW O   H1  H2  EPW O   H1  H2  EPW O   H1  
H2  EPW O   H1  H2  EPW O   H1  H2  EPW O   H1  H2  EPW O   H1  H2  EPW O   H1  
H2  EPW O   H1  H2  EPW O   H1  H2  EPW O   H1  H2  EPW O   H1  H2  EPW O   H1  
H2  EPW O   H1  H2  EPW O   H1  H2  EPW O   H1  H2  EPW O   H1  H2  EPW O   H1  
H2  EPW O   H1  H2  EPW O   H1  H2  EPW O   H1  H2  EPW O   H1  H2  EPW O   H1  
H2  EPW O   H1  H2  EPW O   H1  H2  EPW O   H1  H2  EPW O   H1  H2  EPW O   H1  
H2  EPW O   H1  H2  EPW O   H1  H2  EPW O   H1  H2  EPW O   H1  H2  EPW O   H1  
H2  EPW O   H1  H2  EPW O   H1  H2  EPW O   H1  H2  EPW O   H1  H2  EPW O   H1  
H2  EPW O   H1  H2  EPW O   H1  H2  EPW O   H1  H2  EPW O   H1  H2  EPW O   H1  
H2  EPW O   H1  H2  EPW O   H1  H2  EPW O   H1  H2  EPW O   H1  H2  EPW O   H1  
H2  EPW O   H1  H2  EPW O   H1  H2  EPW O   H1  H2  EPW O   H1  H2  EPW O   H1  
H2  EPW O   H1  H2  EPW O   H1  H2  EPW O   H1  H2  EPW O   H1  H2  EPW O   H1  
H2  EPW O   H1  H2  EPW O   H1  H2  EPW O   H1  H2  EPW O   H1  H2  EPW O   H1  
H2  EPW O   H1  H2  EPW O   H1  H2  EPW O   H1  H2  EPW O   H1  H2  EPW O   H1  
H2  EPW O   H1  H2  EPW O   H1  H2  EPW O   H1  H2  EPW O   H1  H2  EPW O   H1  
H2  EPW O   H1  H2  EPW O   H1  H2  EPW O   H1  H2  EPW O   H1  H2  EPW O   H1  
H2  EPW O   H1  H2  EPW O   H1  H2  EPW O   H1  H2  EPW O   H1  H2  EPW O   H1  
H2  EPW O   H1  H2  EPW O   H1  H2  EPW O   H1  H2  EPW O   H1  H2  EPW O   H1  
H2  EPW O   H1  H2  EPW O   H1  H2  EPW O   H1  H2  EPW O   H1  H2  EPW O   H1  
H2  EPW O   H1  H2  EPW O   H1  H2  EPW O   H1  H2  EPW O   H1  H2  EPW O   H1  
H2  EPW O   H1  H2  EPW O   H1  H2  EPW O   H1  H2  EPW O   H1  H2  EPW O   H1  
H2  EPW O   H1  H2  EPW O   H1  H2  EPW O   H1  H2  EPW O   H1  H2  EPW O   H1  
H2  EPW O   H1  H2  EPW O   H1  H2  EPW O   H1  H2  EPW O   H1  H2  EPW O   H1  
H2  EPW O   H1  H2  EPW O   H1  H2  EPW O   H1  H2  EPW O   H1  H2  EPW O   H1  
H2  EPW O   H1  H2  EPW O   H1  H2  EPW O   H1  H2  EPW O   H1  H2  EPW O   H1  
H2  EPW O   H1  H2  EPW O   H1  H2  EPW O   H1  H2  EPW O   H1  H2  EPW O   H1  
H2  EPW O   H1  H2  EPW O   H1  H2  EPW O   H1  H2  EPW O   H1  H2  EPW O   H1  
H2  EPW O   H1  H2  EPW O   H1  H2  EPW O   H1  H2  EPW O   H1  H2  EPW O   H1  
H2  EPW O   H1  H2  EPW O   H1  H2  EPW O   H1  H2  EPW O   H1  H2  EPW O   H1  
H2  EPW O   H1  H2  EPW O   H1  H2  EPW O   H1  H2  EPW O   H1  H2  EPW O   H1  
H2  EPW O   H1  H2  EPW O   H1  H2  EPW O   H1  H2  EPW O   H1  H2  EPW O   H1  
H2  EPW O   H1  H2  EPW O   H1  H2  EPW O   H1  H2  EPW O   H1  H2  EPW O   H1  
H2  EPW O   H1  H2  EPW O   H1  H2  EPW O   H1  H2  EPW O   H1  H2  EPW O   H1  
H2  EPW O   H1  H2  EPW O   H1  H2  EPW O   H1  H2  EPW O   H1  H2  EPW O   H1  
H2  EPW O   H1  H2  EPW O   H1  H2  EPW O   H1  H2  EPW O   H1  H2  EPW O   H1  
H2  EPW O   H1  H2  EPW O   H1  H2  EPW O   H1  H2  EPW O   H1  H2  EPW O   H1  
H2  EPW O   H1  H2  EPW O   H1  H2  EPW O   H1  H2  EPW O   H1  H2  EPW O   H1  
H2  EPW O   H1  H2  EPW O   H1  H2  EPW O   H1  H2  EPW O   H1  H2  EPW O   H1  
H2  EPW O   H1  H2  EPW O   H1  H2  EPW O   H1  H2  EPW O   H1  H2  EPW O   H1  
H2  EPW O   H1  H2  EPW O   H1  H2  EPW O   H1  H2  EPW O   H1  H2  EPW O   H1  
H2  EPW O   H1  H2  EPW O   H1  H2  EPW O   H1  H2  EPW O   H1  H2  EPW O   H1  
H2  EPW O   H1  H2  EPW O   H1  H2  EPW O   H1  H2  EPW O   H1  H2  EPW O   H1  
H2  EPW O   H1  H2  EPW O   H1  H2  EPW O   H1  H2  EPW O   H1  H2  EPW O   H1  
H2  EPW O   H1  H2  EPW O   H1  H2  EPW O   H1  H2  EPW O   H1  H2  EPW O   H1  
H2  EPW O   H1  H2  EPW O   H1  H2  EPW O   H1  H2  EPW O   H1  H2  EPW O   H1  
H2  EPW O   H1  H2  EPW O   H1  H2  EPW O   H1  H2  EPW O   H1  H2  EPW O   H1  
H2  EPW O   H1  H2  EPW O   H1  H2  EPW O   H1  H2  EPW O   H1  H2  EPW O   H1  
H2  EPW O   H1  H2  EPW O   H1  H2  EPW O   H1  H2  EPW O   H1  H2  EPW O   H1  
H2  EPW O   H1  H2  EPW O   H1  H2  EPW O   H1  H2  EPW O   H1  H2  EPW O   H1  
H2  EPW O   H1  H2  EPW O   H1  H2  EPW O   H1  H2  EPW O   H1  H2  EPW O   H1  
H2  EPW O   H1  H2  EPW O   H1  H2  EPW O   H1  H2  EPW O   H1  H2  EPW O   H1  
H2  EPW O   H1  H2  EPW O   H1  H2  EPW O   H1  H2  EPW O   H1  H2  EPW O   H1  
H2  EPW O   H1  H2  EPW O   H1  H2  EPW O   H1  H2  EPW O   H1  H2  EPW O   H1  
H2  EPW O   H1  H2  EPW O   H1  H2  EPW O   H1  H2  EPW O   H1  H2  EPW O   H1  
H2  EPW O   H1  H2  EPW O   H1  H2  EPW O   H1  H2  EPW O   H1  H2  EPW O   H1  
H2  EPW O   H1  H2  EPW O   H1  H2  EPW O   H1  H2  EPW O   H1  H2  EPW O   H1  
H2  EPW O   H1  H2  EPW O   H1  H2  EPW O   H1  H2  EPW O   H1  H2  EPW O   H1  
H2  EPW O   H1  H2  EPW O   H1  H2  EPW O   H1  H2  EPW O   H1  H2  EPW O   H1  
H2  EPW O   H1  H2  EPW O   H1  H2  EPW O   H1  H2  EPW O   H1  H2  EPW O   H1  
H2  EPW O   H1  H2  EPW O   H1  H2  EPW O   H1  H2  EPW O   H1  H2  EPW O   H1  
H2  EPW O   H1  H2  EPW O   H1  H2  EPW O   H1  H2  EPW O   H1  H2  EPW O   H1  
H2  EPW O   H1  H2  EPW O   H1  H2  EPW O   H1  H2  EPW O   H1  H2  EPW O   H1  
H2  EPW O   H1  H2  EPW O   H1  H2  EPW O   H1  H2  EPW O   H1  H2  EPW O   H1  
H2  EPW O   H1  H2  EPW O   H1  H2  EPW O   H1  H2  EPW O   H1  H2  EPW O   H1  
H2  EPW O   H1  H2  EPW O   H1  H2  EPW O   H1  H2  EPW O   H1  H2  EPW O   H1  
H2  EPW O   H1  H2  EPW O   H1  H2  EPW O   H1  H2  EPW O   H1  H2  EPW O   H1  
H2  EPW O   H1  H2  EPW O   H1  H2  EPW O   H1  H2  EPW O   H1  H2  EPW O   H1  
H2  EPW O   H1  H2  EPW O   H1  H2  EPW O   H1  H2  EPW O   H1  H2  EPW O   H1  
H2  EPW O   H1  H2  EPW O   H1  H2  EPW O   H1  H2  EPW O   H1  H2  EPW O   H1  
H2  EPW O   H1  H2  EPW O   H1  H2  EPW O   H1  H2  EPW O   H1  H2  EPW O   H1  
H2  EPW O   H1  H2  EPW O   H1  H2  EPW O   H1  H2  EPW O   H1  H2  EPW O   H1  
H2  EPW O   H1  H2  EPW O   H1  H2  EPW O   H1  H2  EPW O   H1  H2  EPW O   H1  
H2  EPW O   H1  H2  EPW O   H1  H2  EPW O   H1  H2  EPW O   H1  H2  EPW O   H1  
H2  EPW O   H1  H2  EPW O   H1  H2  EPW O   H1  H2  EPW O   H1  H2  EPW O   H1  
H2  EPW O   H1  H2  EPW O   H1  H2  EPW O   H1  H2  EPW O   H1  H2  EPW O   H1  
H2  EPW O   H1  H2  EPW O   H1  H2  EPW O   H1  H2  EPW O   H1  H2  EPW O   H1  
H2  EPW O   H1  H2  EPW O   H1  H2  EPW O   H1  H2  EPW O   H1  H2  EPW O   H1  
H2  EPW O   H1  H2  EPW O   H1  H2  EPW O   H1  H2  EPW O   H1  H2  EPW O   H1  
H2  EPW O   H1  H2  EPW O   H1  H2  EPW O   H1  H2  EPW O   H1  H2  EPW O   H1  
H2  EPW O   H1  H2  EPW O   H1  H2  EPW O   H1  H2  EPW O   H1  H2  EPW O   H1  
H2  EPW O   H1  H2  EPW O   H1  H2  EPW O   H1  H2  EPW O   H1  H2  EPW O   H1  
H2  EPW O   H1  H2  EPW O   H1  H2  EPW O   H1  H2  EPW O   H1  H2  EPW O   H1  
H2  EPW O   H1  H2  EPW O   H1  H2  EPW O   H1  H2  EPW O   H1  H2  EPW O   H1  
H2  EPW O   H1  H2  EPW O   H1  H2  EPW O   H1  H2  EPW O   H1  H2  EPW O   H1  
H2  EPW O   H1  H2  EPW O   H1  H2  EPW O   H1  H2  EPW O   H1  H2  EPW O   H1  
H2  EPW O   H1  H2  EPW O   H1  H2  EPW O   H1  H2  EPW O   H1  H2  EPW O   H1  
H2  EPW O   H1  H2  EPW O   H1  H2  EPW O   H1  H2  EPW O   H1  H2  EPW O   H1  
H2  EPW O   H1  H2  EPW O   H1  H2  EPW O   H1  H2  EPW O   H1  H2  EPW O   H1  
H2  EPW O   H1  H2  EPW O   H1  H2  EPW O   H1  H2  EPW O   H1  H2  EPW O   H1  
H2  EPW O   H1  H2  EPW O   H1  H2  EPW O   H1  H2  EPW O   H1  H2  EPW O   H1  
H2  EPW O   H1  H2  EPW O   H1  H2  EPW O   H1  H2  EPW O   H1  H2  EPW O   H1  
H2  EPW O   H1  H2  EPW O   H1  H2  EPW O   H1  H2  EPW O   H1  H2  EPW O   H1  
H2  EPW O   H1  H2  EPW O   H1  H2  EPW O   H1  H2  EPW O   H1  H2  EPW O   H1  
H2  EPW O   H1  H2  EPW O   H1  H2  EPW O   H1  H2  EPW O   H1  H2  EPW O   H1  
H2  EPW O   H1  H2  EPW O   H1  H2  EPW O   H1  H2  EPW O   H1  H2  EPW O   H1  
H2  EPW O   H1  H2  EPW O   H1  H2  EPW O   H1  H2  EPW O   H1  H2  EPW O   H1  
H2  EPW O   H1  H2  EPW O   H1  H2  EPW O   H1  H2  EPW O   H1  H2  EPW O   H1  
H2  EPW O   H1  H2  EPW O   H1  H2  EPW O   H1  H2  EPW O   H1  H2  EPW O   H1  
H2  EPW O   H1  H2  EPW O   H1  H2  EPW O   H1  H2  EPW O   H1  H2  EPW O   H1  
H2  EPW O   H1  H2  EPW O   H1  H2  EPW O   H1  H2  EPW O   H1  H2  EPW O   H1  
H2  EPW O   H1  H2  EPW O   H1  H2  EPW O   H1  H2  EPW O   H1  H2  EPW O   H1  
H2  EPW O   H1  H2  EPW O   H1  H2  EPW O   H1  H2  EPW O   H1  H2  EPW O   H1  
H2  EPW O   H1  H2  EPW O   H1  H2  EPW O   H1  H2  EPW O   H1  H2  EPW O   H1  
H2  EPW O   H1  H2  EPW O   H1  H2  EPW O   H1  H2  EPW O   H1  H2  EPW O   H1  
H2  EPW O   H1  H2  EPW O   H1  H2  EPW O   H1  H2  EPW O   H1  H2  EPW O   H1  
H2  EPW O   H1  H2  EPW O   H1  H2  EPW O   H1  H2  EPW O   H1  H2  EPW O   H1  
H2  EPW O   H1  H2  EPW O   H1  H2  EPW O   H1  H2  EPW O   H1  H2  EPW O   H1  
H2  EPW O   H1  H2  EPW O   H1  H2  EPW O   H1  H2  EPW O   H1  H2  EPW O   H1  
H2  EPW O   H1  H2  EPW O   H1  H2  EPW O   H1  H2  EPW O   H1  H2  EPW O   H1  
H2  EPW O   H1  H2  EPW O   H1  H2  EPW O   H1  H2  EPW O   H1  H2  EPW O   H1  
H2  EPW O   H1  H2  EPW O   H1  H2  EPW O   H1  H2  EPW O   H1  H2  EPW O   H1  
H2  EPW O   H1  H2  EPW O   H1  H2  EPW O   H1  H2  EPW O   H1  H2  EPW O   H1  
H2  EPW O   H1  H2  EPW O   H1  H2  EPW O   H1  H2  EPW O   H1  H2  EPW O   H1  
H2  EPW O   H1  H2  EPW O   H1  H2  EPW O   H1  H2  EPW O   H1  H2  EPW O   H1  
H2  EPW O   H1  H2  EPW O   H1  H2  EPW O   H1  H2  EPW O   H1  H2  EPW O   H1  
H2  EPW O   H1  H2  EPW O   H1  H2  EPW O   H1  H2  EPW O   H1  H2  EPW O   H1  
H2  EPW O   H1  H2  EPW O   H1  H2  EPW O   H1  H2  EPW O   H1  H2  EPW O   H1  
H2  EPW O   H1  H2  EPW O   H1  H2  EPW O   H1  H2  EPW O   H1  H2  EPW O   H1  
H2  EPW O   H1  H2  EPW O   H1  H2  EPW O   H1  H2  EPW O   H1  H2  EPW O   H1  
H2  EPW O   H1  H2  EPW O   H1  H2  EPW O   H1  H2  EPW O   H1  H2  EPW O   H1  
H2  EPW O   H1  H2  EPW O   H1  H2  EPW O   H1  H2  EPW O   H1  H2  EPW O   H1  
H2  EPW O   H1  H2  EPW O   H1  H2  EPW O   H1  H2  EPW O   H1  H2  EPW O   H1  
H2  EPW O   H1  H2  EPW O   H1  H2  EPW O   H1  H2  EPW O   H1  H2  EPW O   H1  
H2  EPW O   H1  H2  EPW O   H1  H2  EPW O   H1  H2  EPW O   H1  H2  EPW O   H1  
H2  EPW O   H1  H2  EPW O   H1  H2  EPW O   H1  H2  EPW O   H1  H2  EPW O   H1  
H2  EPW O   H1  H2  EPW O   H1  H2  EPW O   H1  H2  EPW O   H1  H2  EPW O   H1  
H2  EPW O   H1  H2  EPW O   H1  H2  EPW O   H1  H2  EPW O   H1  H2  EPW O   H1  
H2  EPW O   H1  H2  EPW O   H1  H2  EPW O   H1  H2  EPW O   H1  H2  EPW O   H1  
H2  EPW O   H1  H2  EPW O   H1  H2  EPW O   H1  H2  EPW O   H1  H2  EPW O   H1  
H2  EPW O   H1  H2  EPW O   H1  H2  EPW O   H1  H2  EPW O   H1  H2  EPW O   H1  
H2  EPW O   H1  H2  EPW O   H1  H2  EPW O   H1  H2  EPW O   H1  H2  EPW O   H1  
H2  EPW O   H1  H2  EPW O   H1  H2  EPW O   H1  H2  EPW O   H1  H2  EPW O   H1  
H2  EPW O   H1  H2  EPW O   H1  H2  EPW O   H1  H2  EPW O   H1  H2  EPW O   H1  
H2  EPW O   H1  H2  EPW O   H1  H2  EPW O   H1  H2  EPW O   H1  H2  EPW O   H1  
H2  EPW O   H1  H2  EPW O   H1  H2  EPW O   H1  H2  EPW O   H1  H2  EPW O   H1  
H2  EPW O   H1  H2  EPW O   H1  H2  EPW O   H1  H2  EPW O   H1  H2  EPW O   H1  
H2  EPW O   H1  H2  EPW O   H1  H2  EPW O   H1  H2  EPW O   H1  H2  EPW O   H1  
H2  EPW O   H1  H2  EPW O   H1  H2  EPW O   H1  H2  EPW O   H1  H2  EPW O   H1  
H2  EPW O   H1  H2  EPW O   H1  H2  EPW O   H1  H2  EPW O   H1  H2  EPW O   H1  
H2  EPW O   H1  H2  EPW O   H1  H2  EPW O   H1  H2  EPW O   H1  H2  EPW O   H1  
H2  EPW O   H1  H2  EPW O   H1  H2  EPW O   H1  H2  EPW O   H1  H2  EPW O   H1  
H2  EPW O   H1  H2  EPW O   H1  H2  EPW O   H1  H2  EPW O   H1  H2  EPW O   H1  
H2  EPW O   H1  H2  EPW O   H1  H2  EPW O   H1  H2  EPW O   H1  H2  EPW O   H1  
H2  EPW O   H1  H2  EPW O   H1  H2  EPW O   H1  H2  EPW O   H1  H2  EPW O   H1  
H2  EPW O   H1  H2  EPW O   H1  H2  EPW O   H1  H2  EPW O   H1  H2  EPW O   H1  
H2  EPW O   H1  H2  EPW O   H1  H2  EPW O   H1  H2  EPW O   H1  H2  EPW O   H1  
H2  EPW O   H1  H2  EPW O   H1  H2  EPW O   H1  H2  EPW O   H1  H2  EPW O   H1  
H2  EPW O   H1  H2  EPW O   H1  H2  EPW O   H1  H2  EPW O   H1  H2  EPW O   H1  
H2  EPW O   H1  H2  EPW O   H1  H2  EPW O   H1  H2  EPW O   H1  H2  EPW O   H1  
H2  EPW O   H1  H2  EPW O   H1  H2  EPW O   H1  H2  EPW O   H1  H2  EPW O   H1  
H2  EPW O   H1  H2  EPW O   H1  H2  EPW O   H1  H2  EPW O   H1  H2  EPW O   H1  
H2  EPW O   H1  H2  EPW O   H1  H2  EPW O   H1  H2  EPW O   H1  H2  EPW O   H1  
H2  EPW O   H1  H2  EPW O   H1  H2  EPW O   H1  H2  EPW O   H1  H2  EPW O   H1  
H2  EPW O   H1  H2  EPW O   H1  H2  EPW O   H1  H2  EPW O   H1  H2  EPW O   H1  
H2  EPW O   H1  H2  EPW O   H1  H2  EPW O   H1  H2  EPW O   H1  H2  EPW O   H1  
H2  EPW O   H1  H2  EPW O   H1  H2  EPW O   H1  H2  EPW O   H1  H2  EPW O   H1  
H2  EPW O   H1  H2  EPW O   H1  H2  EPW O   H1  H2  EPW O   H1  H2  EPW O   H1  
H2  EPW O   H1  H2  EPW O   H1  H2  EPW O   H1  H2  EPW O   H1  H2  EPW O   H1  
H2  EPW O   H1  H2  EPW O   H1  H2  EPW O   H1  H2  EPW O   H1  H2  EPW O   H1  
H2  EPW O   H1  H2  EPW O   H1  H2  EPW O   H1  H2  EPW O   H1  H2  EPW O   H1  
H2  EPW O   H1  H2  EPW O   H1  H2  EPW O   H1  H2  EPW O   H1  H2  EPW O   H1  
H2  EPW O   H1  H2  EPW O   H1  H2  EPW O   H1  H2  EPW O   H1  H2  EPW O   H1  
H2  EPW O   H1  H2  EPW O   H1  H2  EPW O   H1  H2  EPW O   H1  H2  EPW O   H1  
H2  EPW O   H1  H2  EPW O   H1  H2  EPW O   H1  H2  EPW O   H1  H2  EPW O   H1  
H2  EPW O   H1  H2  EPW O   H1  H2  EPW O   H1  H2  EPW O   H1  H2  EPW O   H1  
H2  EPW O   H1  H2  EPW O   H1  H2  EPW O   H1  H2  EPW O   H1  H2  EPW O   H1  
H2  EPW O   H1  H2  EPW O   H1  H2  EPW O   H1  H2  EPW O   H1  H2  EPW O   H1  
H2  EPW O   H1  H2  EPW O   H1  H2  EPW O   H1  H2  EPW O   H1  H2  EPW O   H1  
H2  EPW O   H1  H2  EPW O   H1  H2  EPW O   H1  H2  EPW O   H1  H2  EPW O   H1  
H2  EPW O   H1  H2  EPW O   H1  H2  EPW O   H1  H2  EPW O   H1  H2  EPW O   H1  
H2  EPW O   H1  H2  EPW O   H1  H2  EPW O   H1  H2  EPW O   H1  H2  EPW O   H1  
H2  EPW O   H1  H2  EPW O   H1  H2  EPW O   H1  H2  EPW O   H1  H2  EPW O   H1  
H2  EPW O   H1  H2  EPW O   H1  H2  EPW O   H1  H2  EPW O   H1  H2  EPW O   H1  
H2  EPW O   H1  H2  EPW O   H1  H2  EPW O   H1  H2  EPW O   H1  H2  EPW O   H1  
H2  EPW O   H1  H2  EPW O   H1  H2  EPW O   H1  H2  EPW O   H1  H2  EPW O   H1  
H2  EPW O   H1  H2  EPW O   H1  H2  EPW O   H1  H2  EPW O   H1  H2  EPW O   H1  
H2  EPW O   H1  H2  EPW O   H1  H2  EPW O   H1  H2  EPW O   H1  H2  EPW O   H1  
H2  EPW O   H1  H2  EPW O   H1  H2  EPW O   H1  H2  EPW O   H1  H2  EPW O   H1  
H2  EPW O   H1  H2  EPW O   H1  H2  EPW O   H1  H2  EPW O   H1  H2  EPW O   H1  
H2  EPW O   H1  H2  EPW O   H1  H2  EPW O   H1  H2  EPW O   H1  H2  EPW O   H1  
H2  EPW O   H1  H2  EPW O   H1  H2  EPW O   H1  H2  EPW O   H1  H2  EPW O   H1  
H2  EPW O   H1  H2  EPW O   H1  H2  EPW O   H1  H2  EPW O   H1  H2  EPW O   H1  
H2  EPW O   H1  H2  EPW O   H1  H2  EPW O   H1  H2  EPW O   H1  H2  EPW O   H1  
H2  EPW O   H1  H2  EPW O   H1  H2  EPW O   H1  H2  EPW O   H1  H2  EPW O   H1  
H2  EPW O   H1  H2  EPW O   H1  H2  EPW O   H1  H2  EPW O   H1  H2  EPW O   H1  
H2  EPW O   H1  H2  EPW O   H1  H2  EPW O   H1  H2  EPW O   H1  H2  EPW O   H1  
H2  EPW O   H1  H2  EPW O   H1  H2  EPW O   H1  H2  EPW O   H1  H2  EPW O   H1  
H2  EPW O   H1  H2  EPW O   H1  H2  EPW O   H1  H2  EPW O   H1  H2  EPW O   H1  
H2  EPW O   H1  H2  EPW O   H1  H2  EPW O   H1  H2  EPW O   H1  H2  EPW O   H1  
H2  EPW O   H1  H2  EPW O   H1  H2  EPW O   H1  H2  EPW O   H1  H2  EPW O   H1  
H2  EPW O   H1  H2  EPW O   H1  H2  EPW O   H1  H2  EPW O   H1  H2  EPW O   H1  
H2  EPW O   H1  H2  EPW O   H1  H2  EPW O   H1  H2  EPW O   H1  H2  EPW O   H1  
H2  EPW O   H1  H2  EPW O   H1  H2  EPW O   H1  H2  EPW O   H1  H2  EPW O   H1  
H2  EPW O   H1  H2  EPW O   H1  H2  EPW O   H1  H2  EPW O   H1  H2  EPW O   H1  
H2  EPW O   H1  H2  EPW O   H1  H2  EPW O   H1  H2  EPW O   H1  H2  EPW O   H1  
H2  EPW O   H1  H2  EPW O   H1  H2  EPW O   H1  H2  EPW O   H1  H2  EPW O   H1  
H2  EPW O   H1  H2  EPW O   H1  H2  EPW O   H1  H2  EPW O   H1  H2  EPW O   H1  
H2  EPW O   H1  H2  EPW O   H1  H2  EPW O   H1  H2  EPW O   H1  H2  EPW O   H1  
H2  EPW O   H1  H2  EPW O   H1  H2  EPW O   H1  H2  EPW O   H1  H2  EPW O   H1  
H2  EPW O   H1  H2  EPW O   H1  H2  EPW O   H1  H2  EPW O   H1  H2  EPW O   H1  
H2  EPW O   H1  H2  EPW O   H1  H2  EPW O   H1  H2  EPW O   H1  H2  EPW O   H1  
H2  EPW O   H1  H2  EPW O   H1  H2  EPW O   H1  H2  EPW O   H1  H2  EPW O   H1  
H2  EPW O   H1  H2  EPW O   H1  H2  EPW O   H1  H2  EPW O   H1  H2  EPW O   H1  
H2  EPW O   H1  H2  EPW O   H1  H2  EPW O   H1  H2  EPW O   H1  H2  EPW O   H1  
H2  EPW O   H1  H2  EPW O   H1  H2  EPW O   H1  H2  EPW O   H1  H2  EPW O   H1  
H2  EPW O   H1  H2  EPW O   H1  H2  EPW O   H1  H2  EPW O   H1  H2  EPW O   H1  
H2  EPW O   H1  H2  EPW O   H1  H2  EPW O   H1  H2  EPW O   H1  H2  EPW O   H1  
H2  EPW O   H1  H2  EPW O   H1  H2  EPW O   H1  H2  EPW O   H1  H2  EPW O   H1  
H2  EPW O   H1  H2  EPW O   H1  H2  EPW O   H1  H2  EPW O   H1  H2  EPW O   H1  
H2  EPW O   H1  H2  EPW O   H1  H2  EPW O   H1  H2  EPW O   H1  H2  EPW O   H1  
H2  EPW O   H1  H2  EPW O   H1  H2  EPW O   H1  H2  EPW O   H1  H2  EPW O   H1  
H2  EPW O   H1  H2  EPW O   H1  H2  EPW O   H1  H2  EPW O   H1  H2  EPW O   H1  
H2  EPW O   H1  H2  EPW O   H1  H2  EPW O   H1  H2  EPW O   H1  H2  EPW O   H1  
H2  EPW O   H1  H2  EPW O   H1  H2  EPW O   H1  H2  EPW O   H1  H2  EPW O   H1  
H2  EPW O   H1  H2  EPW O   H1  H2  EPW O   H1  H2  EPW O   H1  H2  EPW O   H1  
H2  EPW O   H1  H2  EPW O   H1  H2  EPW O   H1  H2  EPW O   H1  H2  EPW O   H1  
H2  EPW O   H1  H2  EPW O   H1  H2  EPW O   H1  H2  EPW O   H1  H2  EPW O   H1  
H2  EPW O   H1  H2  EPW O   H1  H2  EPW O   H1  H2  EPW O   H1  H2  EPW O   H1  
H2  EPW O   H1  H2  EPW O   H1  H2  EPW O   H1  H2  EPW O   H1  H2  EPW O   H1  
H2  EPW O   H1  H2  EPW O   H1  H2  EPW O   H1  H2  EPW O   H1  H2  EPW O   H1  
H2  EPW O   H1  H2  EPW O   H1  H2  EPW O   H1  H2  EPW O   H1  H2  EPW O   H1  
H2  EPW O   H1  H2  EPW O   H1  H2  EPW O   H1  H2  EPW O   H1  H2  EPW O   H1  
H2  EPW O   H1  H2  EPW O   H1  H2  EPW O   H1  H2  EPW O   H1  H2  EPW O   H1  
H2  EPW O   H1  H2  EPW O   H1  H2  EPW O   H1  H2  EPW O   H1  H2  EPW O   H1  
H2  EPW O   H1  H2  EPW O   H1  H2  EPW O   H1  H2  EPW O   H1  H2  EPW O   H1  
H2  EPW O   H1  H2  EPW O   H1  H2  EPW O   H1  H2  EPW O   H1  H2  EPW O   H1  
H2  EPW O   H1  H2  EPW O   H1  H2  EPW O   H1  H2  EPW O   H1  H2  EPW O   H1  
H2  EPW O   H1  H2  EPW O   H1  H2  EPW O   H1  H2  EPW O   H1  H2  EPW O   H1  
H2  EPW O   H1  H2  EPW O   H1  H2  EPW O   H1  H2  EPW O   H1  H2  EPW O   H1  
H2  EPW O   H1  H2  EPW O   H1  H2  EPW O   H1  H2  EPW O   H1  H2  EPW O   H1  
H2  EPW O   H1  H2  EPW O   H1  H2  EPW O   H1  H2  EPW O   H1  H2  EPW O   H1  
H2  EPW O   H1  H2  EPW O   H1  H2  EPW O   H1  H2  EPW O   H1  H2  EPW O   H1  
H2  EPW O   H1  H2  EPW O   H1  H2  EPW O   H1  H2  EPW O   H1  H2  EPW O   H1  
H2  EPW O   H1  H2  EPW O   H1  H2  EPW O   H1  H2  EPW O   H1  H2  EPW O   H1  
H2  EPW O   H1  H2  EPW O   H1  H2  EPW O   H1  H2  EPW O   H1  H2  EPW O   H1  
H2  EPW O   H1  H2  EPW O   H1  H2  EPW O   H1  H2  EPW O   H1  H2  EPW O   H1  
H2  EPW O   H1  H2  EPW O   H1  H2  EPW O   H1  H2  EPW O   H1  H2  EPW O   H1  
H2  EPW O   H1  H2  EPW O   H1  H2  EPW O   H1  H2  EPW O   H1  H2  EPW O   H1  
H2  EPW O   H1  H2  EPW O   H1  H2  EPW O   H1  H2  EPW O   H1  H2  EPW O   H1  
H2  EPW O   H1  H2  EPW O   H1  H2  EPW O   H1  H2  EPW O   H1  H2  EPW O   H1  
H2  EPW O   H1  H2  EPW O   H1  H2  EPW O   H1  H2  EPW O   H1  H2  EPW O   H1  
H2  EPW O   H1  H2  EPW O   H1  H2  EPW O   H1  H2  EPW O   H1  H2  EPW O   H1  
H2  EPW O   H1  H2  EPW O   H1  H2  EPW O   H1  H2  EPW O   H1  H2  EPW O   H1  
H2  EPW O   H1  H2  EPW O   H1  H2  EPW O   H1  H2  EPW O   H1  H2  EPW O   H1  
H2  EPW O   H1  H2  EPW O   H1  H2  EPW O   H1  H2  EPW O   H1  H2  EPW O   H1  
H2  EPW O   H1  H2  EPW O   H1  H2  EPW O   H1  H2  EPW O   H1  H2  EPW O   H1  
H2  EPW O   H1  H2  EPW O   H1  H2  EPW O   H1  H2  EPW O   H1  H2  EPW O   H1  
H2  EPW O   H1  H2  EPW O   H1  H2  EPW O   H1  H2  EPW O   H1  H2  EPW O   H1  
H2  EPW O   H1  H2  EPW O   H1  H2  EPW O   H1  H2  EPW O   H1  H2  EPW O   H1  
H2  EPW O   H1  H2  EPW O   H1  H2  EPW O   H1  H2  EPW O   H1  H2  EPW O   H1  
H2  EPW O   H1  H2  EPW O   H1  H2  EPW O   H1  H2  EPW O   H1  H2  EPW O   H1  
H2  EPW O   H1  H2  EPW O   H1  H2  EPW O   H1  H2  EPW O   H1  H2  EPW O   H1  
H2  EPW O   H1  H2  EPW O   H1  H2  EPW O   H1  H2  EPW O   H1  H2  EPW O   H1  
H2  EPW O   H1  H2  EPW O   H1  H2  EPW O   H1  H2  EPW O   H1  H2  EPW O   H1  
H2  EPW O   H1  H2  EPW O   H1  H2  EPW O   H1  H2  EPW O   H1  H2  EPW O   H1  
H2  EPW O   H1  H2  EPW O   H1  H2  EPW O   H1  H2  EPW O   H1  H2  EPW O   H1  
H2  EPW O   H1  H2  EPW O   H1  H2  EPW O   H1  H2  EPW O   H1  H2  EPW O   H1  
H2  EPW O   H1  H2  EPW O   H1  H2  EPW O   H1  H2  EPW O   H1  H2  EPW O   H1  
H2  EPW O   H1  H2  EPW O   H1  H2  EPW O   H1  H2  EPW O   H1  H2  EPW O   H1  
H2  EPW O   H1  H2  EPW O   H1  H2  EPW O   H1  H2  EPW O   H1  H2  EPW O   H1  
H2  EPW O   H1  H2  EPW O   H1  H2  EPW O   H1  H2  EPW O   H1  H2  EPW O   H1  
H2  EPW O   H1  H2  EPW O   H1  H2  EPW O   H1  H2  EPW O   H1  H2  EPW O   H1  
H2  EPW O   H1  H2  EPW O   H1  H2  EPW O   H1  H2  EPW O   H1  H2  EPW O   H1  
H2  EPW O   H1  H2  EPW O   H1  H2  EPW O   H1  H2  EPW O   H1  H2  EPW O   H1  
H2  EPW O   H1  H2  EPW O   H1  H2  EPW O   H1  H2  EPW O   H1  H2  EPW O   H1  
H2  EPW O   H1  H2  EPW O   H1  H2  EPW O   H1  H2  EPW O   H1  H2  EPW O   H1  
H2  EPW O   H1  H2  EPW O   H1  H2  EPW O   H1  H2  EPW O   H1  H2  EPW O   H1  
H2  EPW O   H1  H2  EPW O   H1  H2  EPW O   H1  H2  EPW O   H1  H2  EPW O   H1  
H2  EPW O   H1  H2  EPW O   H1  H2  EPW O   H1  H2  EPW O   H1  H2  EPW O   H1  
H2  EPW O   H1  H2  EPW O   H1  H2  EPW O   H1  H2  EPW O   H1  H2  EPW O   H1  
H2  EPW O   H1  H2  EPW O   H1  H2  EPW O   H1  H2  EPW O   H1  H2  EPW O   H1  
H2  EPW O   H1  H2  EPW O   H1  H2  EPW O   H1  H2  EPW O   H1  H2  EPW O   H1  
H2  EPW O   H1  H2  EPW O   H1  H2  EPW O   H1  H2  EPW O   H1  H2  EPW O   H1  
H2  EPW O   H1  H2  EPW O   H1  H2  EPW O   H1  H2  EPW O   H1  H2  EPW O   H1  
H2  EPW O   H1  H2  EPW O   H1  H2  EPW O   H1  H2  EPW O   H1  H2  EPW O   H1  
H2  EPW O   H1  H2  EPW O   H1  H2  EPW O   H1  H2  EPW O   H1  H2  EPW O   H1  
H2  EPW O   H1  H2  EPW O   H1  H2  EPW O   H1  H2  EPW O   H1  H2  EPW O   H1  
H2  EPW O   H1  H2  EPW O   H1  H2  EPW O   H1  H2  EPW O   H1  H2  EPW O   H1  
H2  EPW O   H1  H2  EPW O   H1  H2  EPW O   H1  H2  EPW O   H1  H2  EPW O   H1  
H2  EPW O   H1  H2  EPW O   H1  H2  EPW O   H1  H2  EPW O   H1  H2  EPW O   H1  
H2  EPW O   H1  H2  EPW O   H1  H2  EPW O   H1  H2  EPW O   H1  H2  EPW O   H1  
H2  EPW O   H1  H2  EPW O   H1  H2  EPW O   H1  H2  EPW O   H1  H2  EPW O   H1  
H2  EPW O   H1  H2  EPW O   H1  H2  EPW O   H1  H2  EPW O   H1  H2  EPW O   H1  
H2  EPW O   H1  H2  EPW O   H1  H2  EPW O   H1  H2  EPW O   H1  H2  EPW O   H1  
H2  EPW O   H1  H2  EPW O   H1  H2  EPW O   H1  H2  EPW O   H1  H2  EPW O   H1  
H2  EPW O   H1  H2  EPW O   H1  H2  EPW O   H1  H2  EPW O   H1  H2  EPW O   H1  
H2  EPW O   H1  H2  EPW O   H1  H2  EPW O   H1  H2  EPW O   H1  H2  EPW O   H1  
H2  EPW O   H1  H2  EPW O   H1  H2  EPW O   H1  H2  EPW O   H1  H2  EPW O   H1  
H2  EPW O   H1  H2  EPW O   H1  H2  EPW O   H1  H2  EPW O   H1  H2  EPW O   H1  
H2  EPW O   H1  H2  EPW O   H1  H2  EPW O   H1  H2  EPW O   H1  H2  EPW O   H1  
H2  EPW O   H1  H2  EPW O   H1  H2  EPW O   H1  H2  EPW O   H1  H2  EPW O   H1  
H2  EPW O   H1  H2  EPW O   H1  H2  EPW O   H1  H2  EPW O   H1  H2  EPW O   H1  
H2  EPW O   H1  H2  EPW O   H1  H2  EPW O   H1  H2  EPW O   H1  H2  EPW O   H1  
H2  EPW O   H1  H2  EPW O   H1  H2  EPW O   H1  H2  EPW O   H1  H2  EPW O   H1  
H2  EPW O   H1  H2  EPW O   H1  H2  EPW O   H1  H2  EPW O   H1  H2  EPW O   H1  
H2  EPW O   H1  H2  EPW O   H1  H2  EPW O   H1  H2  EPW O   H1  H2  EPW O   H1  
H2  EPW O   H1  H2  EPW O   H1  H2  EPW O   H1  H2  EPW O   H1  H2  EPW O   H1  
H2  EPW O   H1  H2  EPW O   H1  H2  EPW O   H1  H2  EPW O   H1  H2  EPW O   H1  
H2  EPW O   H1  H2  EPW O   H1  H2  EPW O   H1  H2  EPW O   H1  H2  EPW O   H1  
H2  EPW O   H1  H2  EPW O   H1  H2  EPW O   H1  H2  EPW O   H1  H2  EPW O   H1  
H2  EPW O   H1  H2  EPW O   H1  H2  EPW O   H1  H2  EPW O   H1  H2  EPW O   H1  
H2  EPW O   H1  H2  EPW O   H1  H2  EPW O   H1  H2  EPW O   H1  H2  EPW O   H1  
H2  EPW O   H1  H2  EPW O   H1  H2  EPW O   H1  H2  EPW O   H1  H2  EPW O   H1  
H2  EPW O   H1  H2  EPW O   H1  H2  EPW O   H1  H2  EPW O   H1  H2  EPW O   H1  
H2  EPW O   H1  H2  EPW O   H1  H2  EPW O   H1  H2  EPW O   H1  H2  EPW O   H1  
H2  EPW O   H1  H2  EPW O   H1  H2  EPW O   H1  H2  EPW O   H1  H2  EPW O   H1  
H2  EPW O   H1  H2  EPW O   H1  H2  EPW O   H1  H2  EPW O   H1  H2  EPW O   H1  
H2  EPW O   H1  H2  EPW O   H1  H2  EPW O   H1  H2  EPW O   H1  H2  EPW O   H1  
H2  EPW O   H1  H2  EPW O   H1  H2  EPW O   H1  H2  EPW O   H1  H2  EPW O   H1  
H2  EPW O   H1  H2  EPW O   H1  H2  EPW O   H1  H2  EPW O   H1  H2  EPW O   H1  
H2  EPW O   H1  H2  EPW O   H1  H2  EPW O   H1  H2  EPW O   H1  H2  EPW O   H1  
H2  EPW O   H1  H2  EPW O   H1  H2  EPW O   H1  H2  EPW O   H1  H2  EPW O   H1  
H2  EPW O   H1  H2  EPW O   H1  H2  EPW O   H1  H2  EPW O   H1  H2  EPW O   H1  
H2  EPW O   H1  H2  EPW O   H1  H2  EPW O   H1  H2  EPW O   H1  H2  EPW O   H1  
H2  EPW O   H1  H2  EPW O   H1  H2  EPW O   H1  H2  EPW O   H1  H2  EPW O   H1  
H2  EPW O   H1  H2  EPW O   H1  H2  EPW O   H1  H2  EPW O   H1  H2  EPW O   H1  
H2  EPW O   H1  H2  EPW O   H1  H2  EPW O   H1  H2  EPW O   H1  H2  EPW O   H1  
H2  EPW O   H1  H2  EPW O   H1  H2  EPW O   H1  H2  EPW O   H1  H2  EPW O   H1  
H2  EPW O   H1  H2  EPW O   H1  H2  EPW O   H1  H2  EPW O   H1  H2  EPW O   H1  
H2  EPW O   H1  H2  EPW O   H1  H2  EPW O   H1  H2  EPW O   H1  H2  EPW O   H1  
H2  EPW O   H1  H2  EPW O   H1  H2  EPW O   H1  H2  EPW O   H1  H2  EPW O   H1  
H2  EPW O   H1  H2  EPW O   H1  H2  EPW O   H1  H2  EPW O   H1  H2  EPW O   H1  
H2  EPW O   H1  H2  EPW O   H1  H2  EPW O   H1  H2  EPW O   H1  H2  EPW O   H1  
H2  EPW O   H1  H2  EPW O   H1  H2  EPW O   H1  H2  EPW O   H1  H2  EPW O   H1  
H2  EPW O   H1  H2  EPW O   H1  H2  EPW O   H1  H2  EPW O   H1  H2  EPW O   H1  
H2  EPW O   H1  H2  EPW O   H1  H2  EPW O   H1  H2  EPW O   H1  H2  EPW O   H1  
H2  EPW O   H1  H2  EPW O   H1  H2  EPW O   H1  H2  EPW O   H1  H2  EPW O   H1  
H2  EPW O   H1  H2  EPW O   H1  H2  EPW O   H1  H2  EPW O   H1  H2  EPW O   H1  
H2  EPW O   H1  H2  EPW O   H1  H2  EPW O   H1  H2  EPW O   H1  H2  EPW O   H1  
H2  EPW O   H1  H2  EPW O   H1  H2  EPW O   H1  H2  EPW O   H1  H2  EPW O   H1  
H2  EPW O   H1  H2  EPW O   H1  H2  EPW O   H1  H2  EPW O   H1  H2  EPW O   H1  
H2  EPW O   H1  H2  EPW O   H1  H2  EPW O   H1  H2  EPW O   H1  H2  EPW O   H1  
H2  EPW O   H1  H2  EPW O   H1  H2  EPW O   H1  H2  EPW O   H1  H2  EPW O   H1  
H2  EPW O   H1  H2  EPW O   H1  H2  EPW O   H1  H2  EPW O   H1  H2  EPW O   H1  
H2  EPW O   H1  H2  EPW O   H1  H2  EPW O   H1  H2  EPW O   H1  H2  EPW O   H1  
H2  EPW O   H1  H2  EPW O   H1  H2  EPW O   H1  H2  EPW O   H1  H2  EPW O   H1  
H2  EPW O   H1  H2  EPW O   H1  H2  EPW O   H1  H2  EPW O   H1  H2  EPW O   H1  
H2  EPW O   H1  H2  EPW O   H1  H2  EPW O   H1  H2  EPW O   H1  H2  EPW O   H1  
H2  EPW O   H1  H2  EPW O   H1  H2  EPW O   H1  H2  EPW O   H1  H2  EPW O   H1  
H2  EPW O   H1  H2  EPW O   H1  H2  EPW O   H1  H2  EPW O   H1  H2  EPW O   H1  
H2  EPW O   H1  H2  EPW O   H1  H2  EPW O   H1  H2  EPW O   H1  H2  EPW O   H1  
H2  EPW O   H1  H2  EPW O   H1  H2  EPW O   H1  H2  EPW O   H1  H2  EPW O   H1  
H2  EPW O   H1  H2  EPW O   H1  H2  EPW O   H1  H2  EPW O   H1  H2  EPW O   H1  
H2  EPW O   H1  H2  EPW O   H1  H2  EPW O   H1  H2  EPW O   H1  H2  EPW O   H1  
H2  EPW O   H1  H2  EPW O   H1  H2  EPW O   H1  H2  EPW O   H1  H2  EPW O   H1  
H2  EPW O   H1  H2  EPW O   H1  H2  EPW O   H1  H2  EPW O   H1  H2  EPW O   H1  
H2  EPW O   H1  H2  EPW O   H1  H2  EPW O   H1  H2  EPW O   H1  H2  EPW O   H1  
H2  EPW O   H1  H2  EPW O   H1  H2  EPW O   H1  H2  EPW O   H1  H2  EPW O   H1  
H2  EPW O   H1  H2  EPW O   H1  H2  EPW O   H1  H2  EPW O   H1  H2  EPW O   H1  
H2  EPW O   H1  H2  EPW O   H1  H2  EPW O   H1  H2  EPW O   H1  H2  EPW O   H1  
H2  EPW O   H1  H2  EPW O   H1  H2  EPW O   H1  H2  EPW O   H1  H2  EPW O   H1  
H2  EPW O   H1  H2  EPW O   H1  H2  EPW O   H1  H2  EPW O   H1  H2  EPW O   H1  
H2  EPW O   H1  H2  EPW O   H1  H2  EPW O   H1  H2  EPW O   H1  H2  EPW O   H1  
H2  EPW O   H1  H2  EPW O   H1  H2  EPW O   H1  H2  EPW O   H1  H2  EPW O   H1  
H2  EPW O   H1  H2  EPW O   H1  H2  EPW O   H1  H2  EPW O   H1  H2  EPW O   H1  
H2  EPW O   H1  H2  EPW O   H1  H2  EPW O   H1  H2  EPW O   H1  H2  EPW O   H1  
H2  EPW O   H1  H2  EPW O   H1  H2  EPW O   H1  H2  EPW O   H1  H2  EPW O   H1  
H2  EPW O   H1  H2  EPW O   H1  H2  EPW O   H1  H2  EPW O   H1  H2  EPW O   H1  
H2  EPW O   H1  H2  EPW O   H1  H2  EPW O   H1  H2  EPW O   H1  H2  EPW O   H1  
H2  EPW O   H1  H2  EPW O   H1  H2  EPW O   H1  H2  EPW O   H1  H2  EPW O   H1  
H2  EPW O   H1  H2  EPW O   H1  H2  EPW O   H1  H2  EPW O   H1  H2  EPW O   H1  
H2  EPW O   H1  H2  EPW O   H1  H2  EPW O   H1  H2  EPW O   H1  H2  EPW O   H1  
H2  EPW O   H1  H2  EPW O   H1  H2  EPW O   H1  H2  EPW O   H1  H2  EPW O   H1  
H2  EPW O   H1  H2  EPW O   H1  H2  EPW O   H1  H2  EPW O   H1  H2  EPW O   H1  
H2  EPW O   H1  H2  EPW O   H1  H2  EPW O   H1  H2  EPW O   H1  H2  EPW O   H1  
H2  EPW O   H1  H2  EPW O   H1  H2  EPW O   H1  H2  EPW O   H1  H2  EPW O   H1  
H2  EPW O   H1  H2  EPW O   H1  H2  EPW O   H1  H2  EPW O   H1  H2  EPW O   H1  
H2  EPW O   H1  H2  EPW O   H1  H2  EPW O   H1  H2  EPW O   H1  H2  EPW O   H1  
H2  EPW O   H1  H2  EPW O   H1  H2  EPW O   H1  H2  EPW O   H1  H2  EPW O   H1  
H2  EPW O   H1  H2  EPW O   H1  H2  EPW O   H1  H2  EPW O   H1  H2  EPW O   H1  
H2  EPW O   H1  H2  EPW O   H1  H2  EPW O   H1  H2  EPW O   H1  H2  EPW O   H1  
H2  EPW O   H1  H2  EPW O   H1  H2  EPW O   H1  H2  EPW O   H1  H2  EPW O   H1  
H2  EPW O   H1  H2  EPW O   H1  H2  EPW O   H1  H2  EPW O   H1  H2  EPW O   H1  
H2  EPW O   H1  H2  EPW O   H1  H2  EPW O   H1  H2  EPW O   H1  H2  EPW O   H1  
H2  EPW O   H1  H2  EPW O   H1  H2  EPW O   H1  H2  EPW O   H1  H2  EPW O   H1  
H2  EPW O   H1  H2  EPW O   H1  H2  EPW O   H1  H2  EPW O   H1  H2  EPW O   H1  
H2  EPW O   H1  H2  EPW O   H1  H2  EPW O   H1  H2  EPW O   H1  H2  EPW O   H1  
H2  EPW O   H1  H2  EPW O   H1  H2  EPW O   H1  H2  EPW O   H1  H2  EPW O   H1  
H2  EPW O   H1  H2  EPW O   H1  H2  EPW O   H1  H2  EPW O   H1  H2  EPW O   H1  
H2  EPW O   H1  H2  EPW O   H1  H2  EPW O   H1  H2  EPW O   H1  H2  EPW O   H1  
H2  EPW O   H1  H2  EPW O   H1  H2  EPW O   H1  H2  EPW O   H1  H2  EPW O   H1  
H2  EPW O   H1  H2  EPW O   H1  H2  EPW O   H1  H2  EPW O   H1  H2  EPW O   H1  
H2  EPW O   H1  H2  EPW O   H1  H2  EPW O   H1  H2  EPW O   H1  H2  EPW O   H1  
H2  EPW O   H1  H2  EPW O   H1  H2  EPW O   H1  H2  EPW O   H1  H2  EPW O   H1  
H2  EPW O   H1  H2  EPW O   H1  H2  EPW O   H1  H2  EPW O   H1  H2  EPW O   H1  
H2  EPW O   H1  H2  EPW O   H1  H2  EPW O   H1  H2  EPW O   H1  H2  EPW O   H1  
H2  EPW O   H1  H2  EPW O   H1  H2  EPW O   H1  H2  EPW O   H1  H2  EPW O   H1  
H2  EPW O   H1  H2  EPW O   H1  H2  EPW O   H1  H2  EPW O   H1  H2  EPW O   H1  
H2  EPW O   H1  H2  EPW O   H1  H2  EPW O   H1  H2  EPW O   H1  H2  EPW O   H1  
H2  EPW O   H1  H2  EPW O   H1  H2  EPW O   H1  H2  EPW O   H1  H2  EPW O   H1  
H2  EPW O   H1  H2  EPW O   H1  H2  EPW O   H1  H2  EPW O   H1  H2  EPW O   H1  
H2  EPW O   H1  H2  EPW O   H1  H2  EPW O   H1  H2  EPW O   H1  H2  EPW O   H1  
H2  EPW O   H1  H2  EPW O   H1  H2  EPW O   H1  H2  EPW O   H1  H2  EPW O   H1  
H2  EPW O   H1  H2  EPW O   H1  H2  EPW O   H1  H2  EPW O   H1  H2  EPW O   H1  
H2  EPW O   H1  H2  EPW O   H1  H2  EPW O   H1  H2  EPW O   H1  H2  EPW O   H1  
H2  EPW O   H1  H2  EPW O   H1  H2  EPW O   H1  H2  EPW O   H1  H2  EPW O   H1  
H2  EPW O   H1  H2  EPW O   H1  H2  EPW O   H1  H2  EPW O   H1  H2  EPW O   H1  
H2  EPW O   H1  H2  EPW O   H1  H2  EPW O   H1  H2  EPW O   H1  H2  EPW O   H1  
H2  EPW O   H1  H2  EPW O   H1  H2  EPW O   H1  H2  EPW O   H1  H2  EPW O   H1  
H2  EPW O   H1  H2  EPW O   H1  H2  EPW O   H1  H2  EPW O   H1  H2  EPW O   H1  
H2  EPW O   H1  H2  EPW O   H1  H2  EPW O   H1  H2  EPW O   H1  H2  EPW O   H1  
H2  EPW O   H1  H2  EPW O   H1  H2  EPW O   H1  H2  EPW O   H1  H2  EPW O   H1  
H2  EPW O   H1  H2  EPW O   H1  H2  EPW O   H1  H2  EPW O   H1  H2  EPW O   H1  
H2  EPW O   H1  H2  EPW O   H1  H2  EPW O   H1  H2  EPW O   H1  H2  EPW O   H1  
H2  EPW O   H1  H2  EPW O   H1  H2  EPW O   H1  H2  EPW O   H1  H2  EPW O   H1  
H2  EPW O   H1  H2  EPW O   H1  H2  EPW O   H1  H2  EPW O   H1  H2  EPW O   H1  
H2  EPW O   H1  H2  EPW O   H1  H2  EPW O   H1  H2  EPW O   H1  H2  EPW O   H1  
H2  EPW O   H1  H2  EPW O   H1  H2  EPW O   H1  H2  EPW O   H1  H2  EPW O   H1  
H2  EPW O   H1  H2  EPW O   H1  H2  EPW O   H1  H2  EPW O   H1  H2  EPW O   H1  
H2  EPW O   H1  H2  EPW O   H1  H2  EPW O   H1  H2  EPW O   H1  H2  EPW O   H1  
H2  EPW O   H1  H2  EPW O   H1  H2  EPW O   H1  H2  EPW O   H1  H2  EPW O   H1  
H2  EPW O   H1  H2  EPW O   H1  H2  EPW O   H1  H2  EPW O   H1  H2  EPW O   H1  
H2  EPW O   H1  H2  EPW O   H1  H2  EPW O   H1  H2  EPW O   H1  H2  EPW O   H1  
H2  EPW O   H1  H2  EPW O   H1  H2  EPW O   H1  H2  EPW O   H1  H2  EPW O   H1  
H2  EPW O   H1  H2  EPW O   H1  H2  EPW O   H1  H2  EPW O   H1  H2  EPW O   H1  
H2  EPW O   H1  H2  EPW O   H1  H2  EPW O   H1  H2  EPW O   H1  H2  EPW O   H1  
H2  EPW O   H1  H2  EPW O   H1  H2  EPW O   H1  H2  EPW O   H1  H2  EPW O   H1  
H2  EPW O   H1  H2  EPW O   H1  H2  EPW O   H1  H2  EPW O   H1  H2  EPW O   H1  
H2  EPW O   H1  H2  EPW O   H1  H2  EPW O   H1  H2  EPW O   H1  H2  EPW O   H1  
H2  EPW O   H1  H2  EPW O   H1  H2  EPW O   H1  H2  EPW O   H1  H2  EPW O   H1  
H2  EPW O   H1  H2  EPW O   H1  H2  EPW O   H1  H2  EPW O   H1  H2  EPW O   H1  
H2  EPW O   H1  H2  EPW O   H1  H2  EPW O   H1  H2  EPW O   H1  H2  EPW O   H1  
H2  EPW O   H1  H2  EPW O   H1  H2  EPW O   H1  H2  EPW O   H1  H2  EPW O   H1  
H2  EPW O   H1  H2  EPW O   H1  H2  EPW O   H1  H2  EPW O   H1  H2  EPW O   H1  
H2  EPW O   H1  H2  EPW O   H1  H2  EPW O   H1  H2  EPW O   H1  H2  EPW O   H1  
H2  EPW O   H1  H2  EPW O   H1  H2  EPW O   H1  H2  EPW O   H1  H2  EPW O   H1  
H2  EPW O   H1  H2  EPW O   H1  H2  EPW O   H1  H2  EPW O   H1  H2  EPW O   H1  
H2  EPW O   H1  H2  EPW O   H1  H2  EPW O   H1  H2  EPW O   H1  H2  EPW O   H1  
H2  EPW O   H1  H2  EPW O   H1  H2  EPW O   H1  H2  EPW O   H1  H2  EPW O   H1  
H2  EPW O   H1  H2  EPW O   H1  H2  EPW O   H1  H2  EPW O   H1  H2  EPW O   H1  
H2  EPW O   H1  H2  EPW O   H1  H2  EPW O   H1  H2  EPW O   H1  H2  EPW O   H1  
H2  EPW O   H1  H2  EPW O   H1  H2  EPW O   H1  H2  EPW O   H1  H2  EPW O   H1  
H2  EPW O   H1  H2  EPW O   H1  H2  EPW O   H1  H2  EPW O   H1  H2  EPW O   H1  
H2  EPW O   H1  H2  EPW O   H1  H2  EPW O   H1  H2  EPW O   H1  H2  EPW O   H1  
H2  EPW O   H1  H2  EPW O   H1  H2  EPW O   H1  H2  EPW O   H1  H2  EPW O   H1  
H2  EPW O   H1  H2  EPW O   H1  H2  EPW O   H1  H2  EPW O   H1  H2  EPW O   H1  
H2  EPW O   H1  H2  EPW O   H1  H2  EPW O   H1  H2  EPW O   H1  H2  EPW O   H1  
H2  EPW O   H1  H2  EPW O   H1  H2  EPW O   H1  H2  EPW O   H1  H2  EPW O   H1  
H2  EPW O   H1  H2  EPW O   H1  H2  EPW O   H1  H2  EPW O   H1  H2  EPW O   H1  
H2  EPW O   H1  H2  EPW O   H1  H2  EPW O   H1  H2  EPW O   H1  H2  EPW O   H1  
H2  EPW O   H1  H2  EPW O   H1  H2  EPW O   H1  H2  EPW O   H1  H2  EPW O   H1  
H2  EPW O   H1  H2  EPW O   H1  H2  EPW O   H1  H2  EPW O   H1  H2  EPW O   H1  
H2  EPW O   H1  H2  EPW O   H1  H2  EPW O   H1  H2  EPW O   H1  H2  EPW O   H1  
H2  EPW O   H1  H2  EPW O   H1  H2  EPW O   H1  H2  EPW O   H1  H2  EPW O   H1  
H2  EPW O   H1  H2  EPW O   H1  H2  EPW O   H1  H2  EPW O   H1  H2  EPW O   H1  
H2  EPW O   H1  H2  EPW O   H1  H2  EPW O   H1  H2  EPW O   H1  H2  EPW O   H1  
H2  EPW O   H1  H2  EPW O   H1  H2  EPW O   H1  H2  EPW O   H1  H2  EPW O   H1  
H2  EPW O   H1  H2  EPW O   H1  H2  EPW O   H1  H2  EPW O   H1  H2  EPW O   H1  
H2  EPW O   H1  H2  EPW O   H1  H2  EPW O   H1  H2  EPW O   H1  H2  EPW O   H1  
H2  EPW O   H1  H2  EPW O   H1  H2  EPW O   H1  H2  EPW O   H1  H2  EPW O   H1  
H2  EPW O   H1  H2  EPW O   H1  H2  EPW O   H1  H2  EPW O   H1  H2  EPW O   H1  
H2  EPW O   H1  H2  EPW O   H1  H2  EPW O   H1  H2  EPW O   H1  H2  EPW O   H1  
H2  EPW O   H1  H2  EPW O   H1  H2  EPW O   H1  H2  EPW O   H1  H2  EPW O   H1  
H2  EPW O   H1  H2  EPW O   H1  H2  EPW O   H1  H2  EPW O   H1  H2  EPW O   H1  
H2  EPW O   H1  H2  EPW O   H1  H2  EPW O   H1  H2  EPW O   H1  H2  EPW O   H1  
H2  EPW O   H1  H2  EPW O   H1  H2  EPW O   H1  H2  EPW O   H1  H2  EPW O   H1  
H2  EPW O   H1  H2  EPW O   H1  H2  EPW O   H1  H2  EPW O   H1  H2  EPW O   H1  
H2  EPW O   H1  H2  EPW O   H1  H2  EPW O   H1  H2  EPW O   H1  H2  EPW O   H1  
H2  EPW O   H1  H2  EPW O   H1  H2  EPW O   H1  H2  EPW O   H1  H2  EPW O   H1  
H2  EPW O   H1  H2  EPW O   H1  H2  EPW O   H1  H2  EPW O   H1  H2  EPW O   H1  
H2  EPW O   H1  H2  EPW O   H1  H2  EPW O   H1  H2  EPW O   H1  H2  EPW O   H1  
H2  EPW O   H1  H2  EPW O   H1  H2  EPW O   H1  H2  EPW O   H1  H2  EPW O   H1  
H2  EPW O   H1  H2  EPW O   H1  H2  EPW O   H1  H2  EPW O   H1  H2  EPW O   H1  
H2  EPW O   H1  H2  EPW O   H1  H2  EPW O   H1  H2  EPW O   H1  H2  EPW O   H1  
H2  EPW O   H1  H2  EPW O   H1  H2  EPW O   H1  H2  EPW O   H1  H2  EPW O   H1  
H2  EPW O   H1  H2  EPW O   H1  H2  EPW O   H1  H2  EPW O   H1  H2  EPW O   H1  
H2  EPW O   H1  H2  EPW O   H1  H2  EPW O   H1  H2  EPW O   H1  H2  EPW O   H1  
H2  EPW O   H1  H2  EPW O   H1  H2  EPW O   H1  H2  EPW O   H1  H2  EPW O   H1  
H2  EPW O   H1  H2  EPW O   H1  H2  EPW O   H1  H2  EPW O   H1  H2  EPW O   H1  
H2  EPW O   H1  H2  EPW O   H1  H2  EPW O   H1  H2  EPW O   H1  H2  EPW O   H1  
H2  EPW O   H1  H2  EPW O   H1  H2  EPW O   H1  H2  EPW O   H1  H2  EPW O   H1  
H2  EPW O   H1  H2  EPW O   H1  H2  EPW O   H1  H2  EPW O   H1  H2  EPW O   H1  
H2  EPW O   H1  H2  EPW O   H1  H2  EPW O   H1  H2  EPW O   H1  H2  EPW O   H1  
H2  EPW O   H1  H2  EPW O   H1  H2  EPW O   H1  H2  EPW O   H1  H2  EPW O   H1  
H2  EPW O   H1  H2  EPW O   H1  H2  EPW O   H1  H2  EPW O   H1  H2  EPW O   H1  
H2  EPW O   H1  H2  EPW O   H1  H2  EPW O   H1  H2  EPW O   H1  H2  EPW O   H1  
H2  EPW O   H1  H2  EPW O   H1  H2  EPW O   H1  H2  EPW O   H1  H2  EPW O   H1  
H2  EPW O   H1  H2  EPW O   H1  H2  EPW O   H1  H2  EPW O   H1  H2  EPW O   H1  
H2  EPW O   H1  H2  EPW O   H1  H2  EPW O   H1  H2  EPW O   H1  H2  EPW O   H1  
H2  EPW O   H1  H2  EPW O   H1  H2  EPW O   H1  H2  EPW O   H1  H2  EPW O   H1  
H2  EPW O   H1  H2  EPW O   H1  H2  EPW O   H1  H2  EPW O   H1  H2  EPW O   H1  
H2  EPW O   H1  H2  EPW O   H1  H2  EPW O   H1  H2  EPW O   H1  H2  EPW O   H1  
H2  EPW O   H1  H2  EPW O   H1  H2  EPW O   H1  H2  EPW O   H1  H2  EPW O   H1  
H2  EPW O   H1  H2  EPW O   H1  H2  EPW O   H1  H2  EPW O   H1  H2  EPW O   H1  
H2  EPW O   H1  H2  EPW O   H1  H2  EPW O   H1  H2  EPW O   H1  H2  EPW O   H1  
H2  EPW O   H1  H2  EPW O   H1  H2  EPW O   H1  H2  EPW O   H1  H2  EPW O   H1  
H2  EPW O   H1  H2  EPW O   H1  H2  EPW O   H1  H2  EPW O   H1  H2  EPW O   H1  
H2  EPW O   H1  H2  EPW O   H1  H2  EPW O   H1  H2  EPW O   H1  H2  EPW O   H1  
H2  EPW O   H1  H2  EPW O   H1  H2  EPW O   H1  H2  EPW O   H1  H2  EPW O   H1  
H2  EPW O   H1  H2  EPW O   H1  H2  EPW O   H1  H2  EPW O   H1  H2  EPW O   H1  
H2  EPW O   H1  H2  EPW O   H1  H2  EPW O   H1  H2  EPW O   H1  H2  EPW O   H1  
H2  EPW O   H1  H2  EPW O   H1  H2  EPW O   H1  H2  EPW O   H1  H2  EPW O   H1  
H2  EPW O   H1  H2  EPW O   H1  H2  EPW O   H1  H2  EPW O   H1  H2  EPW O   H1  
H2  EPW O   H1  H2  EPW O   H1  H2  EPW O   H1  H2  EPW O   H1  H2  EPW O   H1  
H2  EPW O   H1  H2  EPW O   H1  H2  EPW O   H1  H2  EPW O   H1  H2  EPW O   H1  
H2  EPW O   H1  H2  EPW O   H1  H2  EPW O   H1  H2  EPW O   H1  H2  EPW O   H1  
H2  EPW O   H1  H2  EPW O   H1  H2  EPW O   H1  H2  EPW O   H1  H2  EPW O   H1  
H2  EPW O   H1  H2  EPW O   H1  H2  EPW O   H1  H2  EPW O   H1  H2  EPW O   H1  
H2  EPW O   H1  H2  EPW O   H1  H2  EPW O   H1  H2  EPW O   H1  H2  EPW O   H1  
H2  EPW O   H1  H2  EPW O   H1  H2  EPW O   H1  H2  EPW O   H1  H2  EPW O   H1  
H2  EPW O   H1  H2  EPW O   H1  H2  EPW O   H1  H2  EPW O   H1  H2  EPW O   H1  
H2  EPW O   H1  H2  EPW O   H1  H2  EPW O   H1  H2  EPW O   H1  H2  EPW O   H1  
H2  EPW O   H1  H2  EPW O   H1  H2  EPW O   H1  H2  EPW O   H1  H2  EPW O   H1  
H2  EPW O   H1  H2  EPW O   H1  H2  EPW O   H1  H2  EPW O   H1  H2  EPW O   H1  
H2  EPW O   H1  H2  EPW O   H1  H2  EPW O   H1  H2  EPW O   H1  H2  EPW O   H1  
H2  EPW O   H1  H2  EPW O   H1  H2  EPW O   H1  H2  EPW O   H1  H2  EPW O   H1  
H2  EPW O   H1  H2  EPW O   H1  H2  EPW O   H1  H2  EPW O   H1  H2  EPW O   H1  
H2  EPW O   H1  H2  EPW O   H1  H2  EPW O   H1  H2  EPW O   H1  H2  EPW O   H1  
H2  EPW O   H1  H2  EPW O   H1  H2  EPW O   H1  H2  EPW O   H1  H2  EPW O   H1  
H2  EPW O   H1  H2  EPW O   H1  H2  EPW O   H1  H2  EPW O   H1  H2  EPW O   H1  
H2  EPW O   H1  H2  EPW O   H1  H2  EPW O   H1  H2  EPW O   H1  H2  EPW O   H1  
H2  EPW O   H1  H2  EPW O   H1  H2  EPW O   H1  H2  EPW O   H1  H2  EPW O   H1  
H2  EPW O   H1  H2  EPW O   H1  H2  EPW O   H1  H2  EPW O   H1  H2  EPW O   H1  
H2  EPW O   H1  H2  EPW O   H1  H2  EPW O   H1  H2  EPW O   H1  H2  EPW O   H1  
H2  EPW O   H1  H2  EPW O   H1  H2  EPW O   H1  H2  EPW O   H1  H2  EPW O   H1  
H2  EPW O   H1  H2  EPW O   H1  H2  EPW O   H1  H2  EPW O   H1  H2  EPW O   H1  
H2  EPW O   H1  H2  EPW O   H1  H2  EPW O   H1  H2  EPW O   H1  H2  EPW O   H1  
H2  EPW O   H1  H2  EPW O   H1  H2  EPW O   H1  H2  EPW O   H1  H2  EPW O   H1  
H2  EPW O   H1  H2  EPW O   H1  H2  EPW O   H1  H2  EPW O   H1  H2  EPW O   H1  
H2  EPW O   H1  H2  EPW O   H1  H2  EPW O   H1  H2  EPW O   H1  H2  EPW O   H1  
H2  EPW O   H1  H2  EPW O   H1  H2  EPW O   H1  H2  EPW O   H1  H2  EPW O   H1  
H2  EPW O   H1  H2  EPW O   H1  H2  EPW O   H1  H2  EPW O   H1  H2  EPW O   H1  
H2  EPW O   H1  H2  EPW O   H1  H2  EPW O   H1  H2  EPW O   H1  H2  EPW O   H1  
H2  EPW O   H1  H2  EPW O   H1  H2  EPW O   H1  H2  EPW O   H1  H2  EPW O   H1  
H2  EPW O   H1  H2  EPW O   H1  H2  EPW O   H1  H2  EPW O   H1  H2  EPW O   H1  
H2  EPW O   H1  H2  EPW O   H1  H2  EPW O   H1  H2  EPW O   H1  H2  EPW O   H1  
H2  EPW O   H1  H2  EPW O   H1  H2  EPW O   H1  H2  EPW O   H1  H2  EPW O   H1  
H2  EPW O   H1  H2  EPW O   H1  H2  EPW O   H1  H2  EPW O   H1  H2  EPW O   H1  
H2  EPW O   H1  H2  EPW O   H1  H2  EPW O   H1  H2  EPW O   H1  H2  EPW O   H1  
H2  EPW O   H1  H2  EPW O   H1  H2  EPW O   H1  H2  EPW O   H1  H2  EPW O   H1  
H2  EPW O   H1  H2  EPW O   H1  H2  EPW O   H1  H2  EPW O   H1  H2  EPW O   H1  
H2  EPW O   H1  H2  EPW O   H1  H2  EPW O   H1  H2  EPW O   H1  H2  EPW O   H1  
H2  EPW O   H1  H2  EPW O   H1  H2  EPW O   H1  H2  EPW O   H1  H2  EPW O   H1  
H2  EPW O   H1  H2  EPW O   H1  H2  EPW O   H1  H2  EPW O   H1  H2  EPW O   H1  
H2  EPW O   H1  H2  EPW O   H1  H2  EPW O   H1  H2  EPW O   H1  H2  EPW O   H1  
H2  EPW O   H1  H2  EPW O   H1  H2  EPW O   H1  H2  EPW O   H1  H2  EPW O   H1  
H2  EPW O   H1  H2  EPW O   H1  H2  EPW O   H1  H2  EPW O   H1  H2  EPW O   H1  
H2  EPW O   H1  H2  EPW O   H1  H2  EPW O   H1  H2  EPW O   H1  H2  EPW O   H1  
H2  EPW O   H1  H2  EPW O   H1  H2  EPW O   H1  H2  EPW O   H1  H2  EPW O   H1  
H2  EPW O   H1  H2  EPW O   H1  H2  EPW O   H1  H2  EPW O   H1  H2  EPW O   H1  
H2  EPW O   H1  H2  EPW O   H1  H2  EPW O   H1  H2  EPW O   H1  H2  EPW O   H1  
H2  EPW O   H1  H2  EPW O   H1  H2  EPW O   H1  H2  EPW O   H1  H2  EPW O   H1  
H2  EPW O   H1  H2  EPW O   H1  H2  EPW O   H1  H2  EPW O   H1  H2  EPW O   H1  
H2  EPW O   H1  H2  EPW O   H1  H2  EPW O   H1  H2  EPW O   H1  H2  EPW O   H1  
H2  EPW O   H1  H2  EPW O   H1  H2  EPW O   H1  H2  EPW O   H1  H2  EPW O   H1  
H2  EPW O   H1  H2  EPW O   H1  H2  EPW O   H1  H2  EPW O   H1  H2  EPW O   H1  
H2  EPW O   H1  H2  EPW O   H1  H2  EPW O   H1  H2  EPW O   H1  H2  EPW O   H1  
H2  EPW O   H1  H2  EPW O   H1  H2  EPW O   H1  H2  EPW O   H1  H2  EPW O   H1  
H2  EPW O   H1  H2  EPW O   H1  H2  EPW O   H1  H2  EPW O   H1  H2  EPW O   H1  
H2  EPW O   H1  H2  EPW O   H1  H2  EPW O   H1  H2  EPW O   H1  H2  EPW O   H1  
H2  EPW O   H1  H2  EPW O   H1  H2  EPW O   H1  H2  EPW O   H1  H2  EPW O   H1  
H2  EPW O   H1  H2  EPW O   H1  H2  EPW O   H1  H2  EPW O   H1  H2  EPW O   H1  
H2  EPW O   H1  H2  EPW O   H1  H2  EPW O   H1  H2  EPW O   H1  H2  EPW O   H1  
H2  EPW O   H1  H2  EPW O   H1  H2  EPW O   H1  H2  EPW O   H1  H2  EPW O   H1  
H2  EPW O   H1  H2  EPW O   H1  H2  EPW O   H1  H2  EPW O   H1  H2  EPW O   H1  
H2  EPW O   H1  H2  EPW O   H1  H2  EPW O   H1  H2  EPW O   H1  H2  EPW O   H1  
H2  EPW O   H1  H2  EPW O   H1  H2  EPW O   H1  H2  EPW O   H1  H2  EPW O   H1  
H2  EPW O   H1  H2  EPW O   H1  H2  EPW O   H1  H2  EPW O   H1  H2  EPW O   H1  
H2  EPW O   H1  H2  EPW O   H1  H2  EPW O   H1  H2  EPW O   H1  H2  EPW O   H1  
H2  EPW O   H1  H2  EPW O   H1  H2  EPW O   H1  H2  EPW O   H1  H2  EPW O   H1  
H2  EPW O   H1  H2  EPW O   H1  H2  EPW O   H1  H2  EPW O   H1  H2  EPW O   H1  
H2  EPW O   H1  H2  EPW O   H1  H2  EPW O   H1  H2  EPW O   H1  H2  EPW O   H1  
H2  EPW O   H1  H2  EPW O   H1  H2  EPW O   H1  H2  EPW O   H1  H2  EPW O   H1  
H2  EPW O   H1  H2  EPW O   H1  H2  EPW O   H1  H2  EPW O   H1  H2  EPW O   H1  
H2  EPW O   H1  H2  EPW O   H1  H2  EPW O   H1  H2  EPW O   H1  H2  EPW O   H1  
H2  EPW O   H1  H2  EPW O   H1  H2  EPW O   H1  H2  EPW O   H1  H2  EPW O   H1  
H2  EPW O   H1  H2  EPW O   H1  H2  EPW O   H1  H2  EPW O   H1  H2  EPW O   H1  
H2  EPW O   H1  H2  EPW O   H1  H2  EPW O   H1  H2  EPW O   H1  H2  EPW O   H1  
H2  EPW O   H1  H2  EPW O   H1  H2  EPW O   H1  H2  EPW O   H1  H2  EPW O   H1  
H2  EPW O   H1  H2  EPW O   H1  H2  EPW O   H1  H2  EPW O   H1  H2  EPW O   H1  
H2  EPW O   H1  H2  EPW O   H1  H2  EPW O   H1  H2  EPW O   H1  H2  EPW O   H1  
H2  EPW O   H1  H2  EPW O   H1  H2  EPW O   H1  H2  EPW O   H1  H2  EPW O   H1  
H2  EPW O   H1  H2  EPW O   H1  H2  EPW O   H1  H2  EPW O   H1  H2  EPW O   H1  
H2  EPW O   H1  H2  EPW O   H1  H2  EPW O   H1  H2  EPW O   H1  H2  EPW O   H1  
H2  EPW O   H1  H2  EPW O   H1  H2  EPW O   H1  H2  EPW O   H1  H2  EPW O   H1  
H2  EPW O   H1  H2  EPW O   H1  H2  EPW O   H1  H2  EPW O   H1  H2  EPW O   H1  
H2  EPW O   H1  H2  EPW O   H1  H2  EPW O   H1  H2  EPW O   H1  H2  EPW O   H1  
H2  EPW O   H1  H2  EPW O   H1  H2  EPW O   H1  H2  EPW O   H1  H2  EPW O   H1  
H2  EPW O   H1  H2  EPW O   H1  H2  EPW O   H1  H2  EPW O   H1  H2  EPW O   H1  
H2  EPW O   H1  H2  EPW O   H1  H2  EPW O   H1  H2  EPW O   H1  H2  EPW O   H1  
H2  EPW O   H1  H2  EPW O   H1  H2  EPW O   H1  H2  EPW O   H1  H2  EPW O   H1  
H2  EPW O   H1  H2  EPW O   H1  H2  EPW O   H1  H2  EPW O   H1  H2  EPW O   H1  
H2  EPW O   H1  H2  EPW O   H1  H2  EPW O   H1  H2  EPW O   H1  H2  EPW O   H1  
H2  EPW O   H1  H2  EPW O   H1  H2  EPW O   H1  H2  EPW O   H1  H2  EPW O   H1  
H2  EPW O   H1  H2  EPW O   H1  H2  EPW O   H1  H2  EPW O   H1  H2  EPW O   H1  
H2  EPW O   H1  H2  EPW O   H1  H2  EPW O   H1  H2  EPW O   H1  H2  EPW O   H1  
H2  EPW O   H1  H2  EPW O   H1  H2  EPW O   H1  H2  EPW O   H1  H2  EPW O   H1  
H2  EPW O   H1  H2  EPW O   H1  H2  EPW O   H1  H2  EPW O   H1  H2  EPW O   H1  
H2  EPW O   H1  H2  EPW O   H1  H2  EPW O   H1  H2  EPW O   H1  H2  EPW O   H1  
H2  EPW O   H1  H2  EPW O   H1  H2  EPW O   H1  H2  EPW O   H1  H2  EPW O   H1  
H2  EPW O   H1  H2  EPW O   H1  H2  EPW O   H1  H2  EPW O   H1  H2  EPW O   H1  
H2  EPW O   H1  H2  EPW O   H1  H2  EPW O   H1  H2  EPW O   H1  H2  EPW O   H1  
H2  EPW O   H1  H2  EPW O   H1  H2  EPW O   H1  H2  EPW O   H1  H2  EPW O   H1  
H2  EPW O   H1  H2  EPW O   H1  H2  EPW O   H1  H2  EPW O   H1  H2  EPW O   H1  
H2  EPW O   H1  H2  EPW O   H1  H2  EPW O   H1  H2  EPW O   H1  H2  EPW O   H1  
H2  EPW O   H1  H2  EPW O   H1  H2  EPW O   H1  H2  EPW O   H1  H2  EPW O   H1  
H2  EPW O   H1  H2  EPW O   H1  H2  EPW O   H1  H2  EPW O   H1  H2  EPW O   H1  
H2  EPW O   H1  H2  EPW O   H1  H2  EPW O   H1  H2  EPW O   H1  H2  EPW O   H1  
H2  EPW O   H1  H2  EPW O   H1  H2  EPW O   H1  H2  EPW O   H1  H2  EPW O   H1  
H2  EPW O   H1  H2  EPW O   H1  H2  EPW O   H1  H2  EPW O   H1  H2  EPW O   H1  
H2  EPW O   H1  H2  EPW O   H1  H2  EPW O   H1  H2  EPW O   H1  H2  EPW O   H1  
H2  EPW O   H1  H2  EPW O   H1  H2  EPW O   H1  H2  EPW O   H1  H2  EPW O   H1  
H2  EPW O   H1  H2  EPW O   H1  H2  EPW O   H1  H2  EPW O   H1  H2  EPW O   H1  
H2  EPW O   H1  H2  EPW O   H1  H2  EPW O   H1  H2  EPW O   H1  H2  EPW O   H1  
H2  EPW O   H1  H2  EPW O   H1  H2  EPW O   H1  H2  EPW O   H1  H2  EPW O   H1  
H2  EPW O   H1  H2  EPW O   H1  H2  EPW O   H1  H2  EPW O   H1  H2  EPW O   H1  
H2  EPW O   H1  H2  EPW O   H1  H2  EPW O   H1  H2  EPW O   H1  H2  EPW O   H1  
H2  EPW O   H1  H2  EPW O   H1  H2  EPW O   H1  H2  EPW O   H1  H2  EPW O   H1  
H2  EPW O   H1  H2  EPW O   H1  H2  EPW O   H1  H2  EPW O   H1  H2  EPW O   H1  
H2  EPW O   H1  H2  EPW O   H1  H2  EPW O   H1  H2  EPW O   H1  H2  EPW O   H1  
H2  EPW O   H1  H2  EPW O   H1  H2  EPW O   H1  H2  EPW O   H1  H2  EPW O   H1  
H2  EPW O   H1  H2  EPW O   H1  H2  EPW O   H1  H2  EPW O   H1  H2  EPW O   H1  
H2  EPW O   H1  H2  EPW O   H1  H2  EPW O   H1  H2  EPW O   H1  H2  EPW O   H1  
H2  EPW O   H1  H2  EPW O   H1  H2  EPW O   H1  H2  EPW O   H1  H2  EPW O   H1  
H2  EPW O   H1  H2  EPW O   H1  H2  EPW O   H1  H2  EPW O   H1  H2  EPW O   H1  
H2  EPW O   H1  H2  EPW O   H1  H2  EPW O   H1  H2  EPW O   H1  H2  EPW O   H1  
H2  EPW O   H1  H2  EPW O   H1  H2  EPW O   H1  H2  EPW O   H1  H2  EPW O   H1  
H2  EPW O   H1  H2  EPW O   H1  H2  EPW O   H1  H2  EPW O   H1  H2  EPW O   H1  
H2  EPW O   H1  H2  EPW O   H1  H2  EPW O   H1  H2  EPW O   H1  H2  EPW O   H1  
H2  EPW O   H1  H2  EPW O   H1  H2  EPW O   H1  H2  EPW O   H1  H2  EPW O   H1  
H2  EPW O   H1  H2  EPW O   H1  H2  EPW O   H1  H2  EPW O   H1  H2  EPW O   H1  
H2  EPW O   H1  H2  EPW O   H1  H2  EPW O   H1  H2  EPW O   H1  H2  EPW O   H1  
H2  EPW O   H1  H2  EPW O   H1  H2  EPW O   H1  H2  EPW O   H1  H2  EPW O   H1  
H2  EPW O   H1  H2  EPW O   H1  H2  EPW O   H1  H2  EPW O   H1  H2  EPW O   H1  
H2  EPW O   H1  H2  EPW O   H1  H2  EPW O   H1  H2  EPW O   H1  H2  EPW O   H1  
H2  EPW O   H1  H2  EPW O   H1  H2  EPW O   H1  H2  EPW O   H1  H2  EPW O   H1  
H2  EPW O   H1  H2  EPW O   H1  H2  EPW O   H1  H2  EPW O   H1  H2  EPW O   H1  
H2  EPW O   H1  H2  EPW O   H1  H2  EPW O   H1  H2  EPW O   H1  H2  EPW O   H1  
H2  EPW O   H1  H2  EPW O   H1  H2  EPW O   H1  H2  EPW O   H1  H2  EPW O   H1  
H2  EPW O   H1  H2  EPW O   H1  H2  EPW O   H1  H2  EPW O   H1  H2  EPW O   H1  
H2  EPW O   H1  H2  EPW O   H1  H2  EPW O   H1  H2  EPW O   H1  H2  EPW O   H1  
H2  EPW O   H1  H2  EPW O   H1  H2  EPW O   H1  H2  EPW O   H1  H2  EPW O   H1  
H2  EPW O   H1  H2  EPW O   H1  H2  EPW O   H1  H2  EPW O   H1  H2  EPW O   H1  
H2  EPW O   H1  H2  EPW O   H1  H2  EPW O   H1  H2  EPW O   H1  H2  EPW O   H1  
H2  EPW O   H1  H2  EPW O   H1  H2  EPW O   H1  H2  EPW O   H1  H2  EPW O   H1  
H2  EPW O   H1  H2  EPW O   H1  H2  EPW O   H1  H2  EPW O   H1  H2  EPW O   H1  
H2  EPW O   H1  H2  EPW O   H1  H2  EPW O   H1  H2  EPW O   H1  H2  EPW O   H1  
H2  EPW O   H1  H2  EPW O   H1  H2  EPW O   H1  H2  EPW O   H1  H2  EPW O   H1  
H2  EPW O   H1  H2  EPW O   H1  H2  EPW O   H1  H2  EPW O   H1  H2  EPW O   H1  
H2  EPW O   H1  H2  EPW O   H1  H2  EPW O   H1  H2  EPW O   H1  H2  EPW O   H1  
H2  EPW O   H1  H2  EPW O   H1  H2  EPW O   H1  H2  EPW O   H1  H2  EPW O   H1  
H2  EPW O   H1  H2  EPW O   H1  H2  EPW O   H1  H2  EPW O   H1  H2  EPW O   H1  
H2  EPW O   H1  H2  EPW O   H1  H2  EPW O   H1  H2  EPW O   H1  H2  EPW O   H1  
H2  EPW O   H1  H2  EPW O   H1  H2  EPW O   H1  H2  EPW O   H1  H2  EPW O   H1  
H2  EPW O   H1  H2  EPW O   H1  H2  EPW O   H1  H2  EPW O   H1  H2  EPW O   H1  
H2  EPW O   H1  H2  EPW O   H1  H2  EPW O   H1  H2  EPW O   H1  H2  EPW O   H1  
H2  EPW O   H1  H2  EPW O   H1  H2  EPW O   H1  H2  EPW O   H1  H2  EPW O   H1  
H2  EPW O   H1  H2  EPW O   H1  H2  EPW O   H1  H2  EPW O   H1  H2  EPW O   H1  
H2  EPW O   H1  H2  EPW O   H1  H2  EPW O   H1  H2  EPW O   H1  H2  EPW O   H1  
H2  EPW O   H1  H2  EPW O   H1  H2  EPW O   H1  H2  EPW O   H1  H2  EPW O   H1  
H2  EPW O   H1  H2  EPW O   H1  H2  EPW O   H1  H2  EPW O   H1  H2  EPW O   H1  
H2  EPW O   H1  H2  EPW O   H1  H2  EPW O   H1  H2  EPW O   H1  H2  EPW O   H1  
H2  EPW O   H1  H2  EPW O   H1  H2  EPW O   H1  H2  EPW O   H1  H2  EPW O   H1  
H2  EPW O   H1  H2  EPW O   H1  H2  EPW O   H1  H2  EPW O   H1  H2  EPW O   H1  
H2  EPW O   H1  H2  EPW O   H1  H2  EPW O   H1  H2  EPW O   H1  H2  EPW O   H1  
H2  EPW O   H1  H2  EPW O   H1  H2  EPW O   H1  H2  EPW O   H1  H2  EPW O   H1  
H2  EPW O   H1  H2  EPW O   H1  H2  EPW O   H1  H2  EPW O   H1  H2  EPW O   H1  
H2  EPW O   H1  H2  EPW O   H1  H2  EPW O   H1  H2  EPW O   H1  H2  EPW O   H1  
H2  EPW O   H1  H2  EPW O   H1  H2  EPW O   H1  H2  EPW O   H1  H2  EPW O   H1  
H2  EPW O   H1  H2  EPW O   H1  H2  EPW O   H1  H2  EPW O   H1  H2  EPW O   H1  
H2  EPW O   H1  H2  EPW O   H1  H2  EPW O   H1  H2  EPW O   H1  H2  EPW O   H1  
H2  EPW O   H1  H2  EPW O   H1  H2  EPW O   H1  H2  EPW O   H1  H2  EPW O   H1  
H2  EPW O   H1  H2  EPW O   H1  H2  EPW O   H1  H2  EPW O   H1  H2  EPW O   H1  
H2  EPW O   H1  H2  EPW O   H1  H2  EPW O   H1  H2  EPW O   H1  H2  EPW O   H1  
H2  EPW O   H1  H2  EPW O   H1  H2  EPW O   H1  H2  EPW O   H1  H2  EPW O   H1  
H2  EPW O   H1  H2  EPW O   H1  H2  EPW O   H1  H2  EPW O   H1  H2  EPW O   H1  
H2  EPW O   H1  H2  EPW O   H1  H2  EPW O   H1  H2  EPW O   H1  H2  EPW O   H1  
H2  EPW O   H1  H2  EPW O   H1  H2  EPW O   H1  H2  EPW O   H1  H2  EPW O   H1  
H2  EPW O   H1  H2  EPW O   H1  H2  EPW O   H1  H2  EPW O   H1  H2  EPW O   H1  
H2  EPW O   H1  H2  EPW O   H1  H2  EPW O   H1  H2  EPW O   H1  H2  EPW O   H1  
H2  EPW O   H1  H2  EPW O   H1  H2  EPW O   H1  H2  EPW O   H1  H2  EPW O   H1  
H2  EPW O   H1  H2  EPW O   H1  H2  EPW O   H1  H2  EPW O   H1  H2  EPW O   H1  
H2  EPW O   H1  H2  EPW O   H1  H2  EPW O   H1  H2  EPW O   H1  H2  EPW O   H1  
H2  EPW O   H1  H2  EPW O   H1  H2  EPW O   H1  H2  EPW O   H1  H2  EPW O   H1  
H2  EPW O   H1  H2  EPW O   H1  H2  EPW O   H1  H2  EPW O   H1  H2  EPW O   H1  
H2  EPW O   H1  H2  EPW O   H1  H2  EPW O   H1  H2  EPW O   H1  H2  EPW O   H1  
H2  EPW O   H1  H2  EPW O   H1  H2  EPW O   H1  H2  EPW O   H1  H2  EPW O   H1  
H2  EPW O   H1  H2  EPW O   H1  H2  EPW O   H1  H2  EPW O   H1  H2  EPW O   H1  
H2  EPW O   H1  H2  EPW O   H1  H2  EPW O   H1  H2  EPW O   H1  H2  EPW O   H1  
H2  EPW O   H1  H2  EPW O   H1  H2  EPW O   H1  H2  EPW O   H1  H2  EPW O   H1  
H2  EPW O   H1  H2  EPW O   H1  H2  EPW O   H1  H2  EPW O   H1  H2  EPW O   H1  
H2  EPW O   H1  H2  EPW O   H1  H2  EPW O   H1  H2  EPW O   H1  H2  EPW O   H1  
H2  EPW O   H1  H2  EPW O   H1  H2  EPW O   H1  H2  EPW O   H1  H2  EPW O   H1  
H2  EPW O   H1  H2  EPW O   H1  H2  EPW O   H1  H2  EPW O   H1  H2  EPW O   H1  
H2  EPW O   H1  H2  EPW O   H1  H2  EPW O   H1  H2  EPW O   H1  H2  EPW O   H1  
H2  EPW O   H1  H2  EPW O   H1  H2  EPW O   H1  H2  EPW O   H1  H2  EPW O   H1  
H2  EPW O   H1  H2  EPW O   H1  H2  EPW O   H1  H2  EPW O   H1  H2  EPW O   H1  
H2  EPW O   H1  H2  EPW O   H1  H2  EPW O   H1  H2  EPW O   H1  H2  EPW O   H1  
H2  EPW O   H1  H2  EPW O   H1  H2  EPW O   H1  H2  EPW O   H1  H2  EPW O   H1  
H2  EPW O   H1  H2  EPW O   H1  H2  EPW O   H1  H2  EPW O   H1  H2  EPW O   H1  
H2  EPW O   H1  H2  EPW O   H1  H2  EPW O   H1  H2  EPW O   H1  H2  EPW O   H1  
H2  EPW O   H1  H2  EPW O   H1  H2  EPW O   H1  H2  EPW O   H1  H2  EPW O   H1  
H2  EPW O   H1  H2  EPW O   H1  H2  EPW O   H1  H2  EPW O   H1  H2  EPW O   H1  
H2  EPW O   H1  H2  EPW O   H1  H2  EPW O   H1  H2  EPW O   H1  H2  EPW O   H1  
H2  EPW O   H1  H2  EPW O   H1  H2  EPW O   H1  H2  EPW O   H1  H2  EPW O   H1  
H2  EPW O   H1  H2  EPW O   H1  H2  EPW O   H1  H2  EPW O   H1  H2  EPW O   H1  
H2  EPW O   H1  H2  EPW O   H1  H2  EPW O   H1  H2  EPW O   H1  H2  EPW O   H1  
H2  EPW O   H1  H2  EPW O   H1  H2  EPW O   H1  H2  EPW O   H1  H2  EPW O   H1  
H2  EPW O   H1  H2  EPW O   H1  H2  EPW O   H1  H2  EPW O   H1  H2  EPW O   H1  
H2  EPW O   H1  H2  EPW O   H1  H2  EPW O   H1  H2  EPW O   H1  H2  EPW O   H1  
H2  EPW O   H1  H2  EPW O   H1  H2  EPW O   H1  H2  EPW O   H1  H2  EPW O   H1  
H2  EPW O   H1  H2  EPW O   H1  H2  EPW O   H1  H2  EPW O   H1  H2  EPW O   H1  
H2  EPW O   H1  H2  EPW O   H1  H2  EPW O   H1  H2  EPW O   H1  H2  EPW O   H1  
H2  EPW O   H1  H2  EPW O   H1  H2  EPW O   H1  H2  EPW O   H1  H2  EPW O   H1  
H2  EPW O   H1  H2  EPW O   H1  H2  EPW O   H1  H2  EPW O   H1  H2  EPW O   H1  
H2  EPW O   H1  H2  EPW O   H1  H2  EPW O   H1  H2  EPW O   H1  H2  EPW O   H1  
H2  EPW O   H1  H2  EPW O   H1  H2  EPW O   H1  H2  EPW O   H1  H2  EPW O   H1  
H2  EPW O   H1  H2  EPW O   H1  H2  EPW O   H1  H2  EPW O   H1  H2  EPW O   H1  
H2  EPW O   H1  H2  EPW O   H1  H2  EPW O   H1  H2  EPW O   H1  H2  EPW O   H1  
H2  EPW O   H1  H2  EPW O   H1  H2  EPW O   H1  H2  EPW O   H1  H2  EPW O   H1  
H2  EPW O   H1  H2  EPW O   H1  H2  EPW O   H1  H2  EPW O   H1  H2  EPW O   H1  
H2  EPW O   H1  H2  EPW O   H1  H2  EPW O   H1  H2  EPW O   H1  H2  EPW O   H1  
H2  EPW O   H1  H2  EPW O   H1  H2  EPW O   H1  H2  EPW O   H1  H2  EPW O   H1  
H2  EPW O   H1  H2  EPW O   H1  H2  EPW O   H1  H2  EPW O   H1  H2  EPW O   H1  
H2  EPW O   H1  H2  EPW O   H1  H2  EPW O   H1  H2  EPW O   H1  H2  EPW O   H1  
H2  EPW O   H1  H2  EPW O   H1  H2  EPW O   H1  H2  EPW O   H1  H2  EPW O   H1  
H2  EPW O   H1  H2  EPW O   H1  H2  EPW O   H1  H2  EPW O   H1  H2  EPW O   H1  
H2  EPW O   H1  H2  EPW O   H1  H2  EPW O   H1  H2  EPW O   H1  H2  EPW O   H1  
H2  EPW O   H1  H2  EPW O   H1  H2  EPW O   H1  H2  EPW O   H1  H2  EPW O   H1  
H2  EPW O   H1  H2  EPW O   H1  H2  EPW O   H1  H2  EPW O   H1  H2  EPW O   H1  
H2  EPW O   H1  H2  EPW O   H1  H2  EPW O   H1  H2  EPW O   H1  H2  EPW O   H1  
H2  EPW O   H1  H2  EPW O   H1  H2  EPW O   H1  H2  EPW O   H1  H2  EPW O   H1  
H2  EPW O   H1  H2  EPW O   H1  H2  EPW O   H1  H2  EPW O   H1  H2  EPW O   H1  
H2  EPW O   H1  H2  EPW O   H1  H2  EPW O   H1  H2  EPW O   H1  H2  EPW O   H1  
H2  EPW O   H1  H2  EPW O   H1  H2  EPW O   H1  H2  EPW O   H1  H2  EPW O   H1  
H2  EPW O   H1  H2  EPW O   H1  H2  EPW O   H1  H2  EPW O   H1  H2  EPW O   H1  
H2  EPW O   H1  H2  EPW O   H1  H2  EPW O   H1  H2  EPW O   H1  H2  EPW O   H1  
H2  EPW O   H1  H2  EPW O   H1  H2  EPW O   H1  H2  EPW O   H1  H2  EPW O   H1  
H2  EPW O   H1  H2  EPW O   H1  H2  EPW O   H1  H2  EPW O   H1  H2  EPW O   H1  
H2  EPW O   H1  H2  EPW O   H1  H2  EPW O   H1  H2  EPW O   H1  H2  EPW O   H1  
H2  EPW O   H1  H2  EPW O   H1  H2  EPW O   H1  H2  EPW O   H1  H2  EPW O   H1  
H2  EPW O   H1  H2  EPW O   H1  H2  EPW O   H1  H2  EPW O   H1  H2  EPW O   H1  
H2  EPW O   H1  H2  EPW O   H1  H2  EPW O   H1  H2  EPW O   H1  H2  EPW O   H1  
H2  EPW O   H1  H2  EPW O   H1  H2  EPW O   H1  H2  EPW O   H1  H2  EPW O   H1  
H2  EPW O   H1  H2  EPW O   H1  H2  EPW O   H1  H2  EPW O   H1  H2  EPW O   H1  
H2  EPW O   H1  H2  EPW O   H1  H2  EPW O   H1  H2  EPW O   H1  H2  EPW O   H1  
H2  EPW O   H1  H2  EPW O   H1  H2  EPW O   H1  H2  EPW O   H1  H2  EPW O   H1  
H2  EPW O   H1  H2  EPW O   H1  H2  EPW O   H1  H2  EPW O   H1  H2  EPW O   H1  
H2  EPW O   H1  H2  EPW O   H1  H2  EPW O   H1  H2  EPW O   H1  H2  EPW O   H1  
H2  EPW O   H1  H2  EPW O   H1  H2  EPW O   H1  H2  EPW O   H1  H2  EPW O   H1  
H2  EPW O   H1  H2  EPW O   H1  H2  EPW O   H1  H2  EPW O   H1  H2  EPW O   H1  
H2  EPW O   H1  H2  EPW O   H1  H2  EPW O   H1  H2  EPW O   H1  H2  EPW O   H1  
H2  EPW O   H1  H2  EPW O   H1  H2  EPW O   H1  H2  EPW O   H1  H2  EPW O   H1  
H2  EPW O   H1  H2  EPW O   H1  H2  EPW O   H1  H2  EPW O   H1  H2  EPW O   H1  
H2  EPW O   H1  H2  EPW O   H1  H2  EPW O   H1  H2  EPW O   H1  H2  EPW O   H1  
H2  EPW O   H1  H2  EPW O   H1  H2  EPW O   H1  H2  EPW O   H1  H2  EPW O   H1  
H2  EPW O   H1  H2  EPW O   H1  H2  EPW O   H1  H2  EPW O   H1  H2  EPW O   H1  
H2  EPW O   H1  H2  EPW O   H1  H2  EPW O   H1  H2  EPW O   H1  H2  EPW O   H1  
H2  EPW O   H1  H2  EPW O   H1  H2  EPW O   H1  H2  EPW O   H1  H2  EPW O   H1  
H2  EPW O   H1  H2  EPW O   H1  H2  EPW O   H1  H2  EPW O   H1  H2  EPW O   H1  
H2  EPW O   H1  H2  EPW O   H1  H2  EPW O   H1  H2  EPW O   H1  H2  EPW O   H1  
H2  EPW O   H1  H2  EPW O   H1  H2  EPW O   H1  H2  EPW O   H1  H2  EPW O   H1  
H2  EPW O   H1  H2  EPW O   H1  H2  EPW O   H1  H2  EPW O   H1  H2  EPW O   H1  
H2  EPW O   H1  H2  EPW O   H1  H2  EPW O   H1  H2  EPW O   H1  H2  EPW O   H1  
H2  EPW O   H1  H2  EPW O   H1  H2  EPW O   H1  H2  EPW O   H1  H2  EPW O   H1  
H2  EPW O   H1  H2  EPW O   H1  H2  EPW O   H1  H2  EPW O   H1  H2  EPW O   H1  
H2  EPW O   H1  H2  EPW O   H1  H2  EPW O   H1  H2  EPW O   H1  H2  EPW O   H1  
H2  EPW O   H1  H2  EPW O   H1  H2  EPW O   H1  H2  EPW O   H1  H2  EPW O   H1  
H2  EPW O   H1  H2  EPW O   H1  H2  EPW O   H1  H2  EPW O   H1  H2  EPW O   H1  
H2  EPW O   H1  H2  EPW O   H1  H2  EPW O   H1  H2  EPW O   H1  H2  EPW O   H1  
H2  EPW O   H1  H2  EPW O   H1  H2  EPW O   H1  H2  EPW O   H1  H2  EPW O   H1  
H2  EPW O   H1  H2  EPW O   H1  H2  EPW O   H1  H2  EPW O   H1  H2  EPW O   H1  
H2  EPW O   H1  H2  EPW O   H1  H2  EPW O   H1  H2  EPW O   H1  H2  EPW O   H1  
H2  EPW O   H1  H2  EPW O   H1  H2  EPW O   H1  H2  EPW O   H1  H2  EPW O   H1  
H2  EPW O   H1  H2  EPW O   H1  H2  EPW O   H1  H2  EPW O   H1  H2  EPW O   H1  
H2  EPW O   H1  H2  EPW O   H1  H2  EPW O   H1  H2  EPW O   H1  H2  EPW O   H1  
H2  EPW O   H1  H2  EPW O   H1  H2  EPW O   H1  H2  EPW O   H1  H2  EPW O   H1  
H2  EPW O   H1  H2  EPW O   H1  H2  EPW O   H1  H2  EPW O   H1  H2  EPW O   H1  
H2  EPW O   H1  H2  EPW O   H1  H2  EPW O   H1  H2  EPW O   H1  H2  EPW O   H1  
H2  EPW O   H1  H2  EPW O   H1  H2  EPW O   H1  H2  EPW O   H1  H2  EPW O   H1  
H2  EPW O   H1  H2  EPW O   H1  H2  EPW O   H1  H2  EPW O   H1  H2  EPW O   H1  
H2  EPW O   H1  H2  EPW O   H1  H2  EPW O   H1  H2  EPW O   H1  H2  EPW O   H1  
H2  EPW O   H1  H2  EPW O   H1  H2  EPW O   H1  H2  EPW O   H1  H2  EPW O   H1  
H2  EPW O   H1  H2  EPW O   H1  H2  EPW O   H1  H2  EPW O   H1  H2  EPW O   H1  
H2  EPW O   H1  H2  EPW O   H1  H2  EPW O   H1  H2  EPW O   H1  H2  EPW O   H1  
H2  EPW O   H1  H2  EPW O   H1  H2  EPW O   H1  H2  EPW O   H1  H2  EPW O   H1  
H2  EPW O   H1  H2  EPW O   H1  H2  EPW O   H1  H2  EPW O   H1  H2  EPW O   H1  
H2  EPW O   H1  H2  EPW O   H1  H2  EPW O   H1  H2  EPW O   H1  H2  EPW O   H1  
H2  EPW O   H1  H2  EPW O   H1  H2  EPW O   H1  H2  EPW O   H1  H2  EPW O   H1  
H2  EPW O   H1  H2  EPW O   H1  H2  EPW O   H1  H2  EPW O   H1  H2  EPW O   H1  
H2  EPW O   H1  H2  EPW O   H1  H2  EPW O   H1  H2  EPW O   H1  H2  EPW O   H1  
H2  EPW O   H1  H2  EPW O   H1  H2  EPW O   H1  H2  EPW O   H1  H2  EPW O   H1  
H2  EPW O   H1  H2  EPW O   H1  H2  EPW O   H1  H2  EPW O   H1  H2  EPW O   H1  
H2  EPW O   H1  H2  EPW O   H1  H2  EPW O   H1  H2  EPW O   H1  H2  EPW O   H1  
H2  EPW O   H1  H2  EPW O   H1  H2  EPW O   H1  H2  EPW O   H1  H2  EPW O   H1  
H2  EPW O   H1  H2  EPW O   H1  H2  EPW O   H1  H2  EPW O   H1  H2  EPW O   H1  
H2  EPW O   H1  H2  EPW O   H1  H2  EPW O   H1  H2  EPW O   H1  H2  EPW O   H1  
H2  EPW O   H1  H2  EPW O   H1  H2  EPW O   H1  H2  EPW O   H1  H2  EPW O   H1  
H2  EPW O   H1  H2  EPW O   H1  H2  EPW O   H1  H2  EPW O   H1  H2  EPW O   H1  
H2  EPW O   H1  H2  EPW O   H1  H2  EPW O   H1  H2  EPW O   H1  H2  EPW O   H1  
H2  EPW O   H1  H2  EPW O   H1  H2  EPW O   H1  H2  EPW O   H1  H2  EPW O   H1  
H2  EPW O   H1  H2  EPW O   H1  H2  EPW O   H1  H2  EPW O   H1  H2  EPW O   H1  
H2  EPW O   H1  H2  EPW O   H1  H2  EPW O   H1  H2  EPW O   H1  H2  EPW O   H1  
H2  EPW O   H1  H2  EPW O   H1  H2  EPW O   H1  H2  EPW O   H1  H2  EPW O   H1  
H2  EPW O   H1  H2  EPW O   H1  H2  EPW O   H1  H2  EPW O   H1  H2  EPW O   H1  
H2  EPW O   H1  H2  EPW O   H1  H2  EPW O   H1  H2  EPW O   H1  H2  EPW O   H1  
H2  EPW O   H1  H2  EPW O   H1  H2  EPW O   H1  H2  EPW O   H1  H2  EPW O   H1  
H2  EPW O   H1  H2  EPW O   H1  H2  EPW O   H1  H2  EPW O   H1  H2  EPW O   H1  
H2  EPW O   H1  H2  EPW O   H1  H2  EPW O   H1  H2  EPW O   H1  H2  EPW O   H1  
H2  EPW O   H1  H2  EPW O   H1  H2  EPW O   H1  H2  EPW O   H1  H2  EPW O   H1  
H2  EPW O   H1  H2  EPW O   H1  H2  EPW O   H1  H2  EPW O   H1  H2  EPW O   H1  
H2  EPW O   H1  H2  EPW O   H1  H2  EPW O   H1  H2  EPW O   H1  H2  EPW O   H1  
H2  EPW O   H1  H2  EPW O   H1  H2  EPW O   H1  H2  EPW O   H1  H2  EPW O   H1  
H2  EPW O   H1  H2  EPW O   H1  H2  EPW O   H1  H2  EPW O   H1  H2  EPW O   H1  
H2  EPW O   H1  H2  EPW O   H1  H2  EPW O   H1  H2  EPW O   H1  H2  EPW O   H1  
H2  EPW O   H1  H2  EPW O   H1  H2  EPW O   H1  H2  EPW O   H1  H2  EPW O   H1  
H2  EPW O   H1  H2  EPW O   H1  H2  EPW O   H1  H2  EPW O   H1  H2  EPW O   H1  
H2  EPW O   H1  H2  EPW O   H1  H2  EPW O   H1  H2  EPW O   H1  H2  EPW O   H1  
H2  EPW O   H1  H2  EPW O   H1  H2  EPW O   H1  H2  EPW O   H1  H2  EPW O   H1  
H2  EPW O   H1  H2  EPW O   H1  H2  EPW O   H1  H2  EPW O   H1  H2  EPW O   H1  
H2  EPW O   H1  H2  EPW O   H1  H2  EPW O   H1  H2  EPW O   H1  H2  EPW O   H1  
H2  EPW O   H1  H2  EPW O   H1  H2  EPW O   H1  H2  EPW O   H1  H2  EPW O   H1  
H2  EPW O   H1  H2  EPW O   H1  H2  EPW O   H1  H2  EPW O   H1  H2  EPW O   H1  
H2  EPW O   H1  H2  EPW O   H1  H2  EPW O   H1  H2  EPW O   H1  H2  EPW O   H1  
H2  EPW O   H1  H2  EPW O   H1  H2  EPW O   H1  H2  EPW O   H1  H2  EPW O   H1  
H2  EPW O   H1  H2  EPW O   H1  H2  EPW O   H1  H2  EPW O   H1  H2  EPW O   H1  
H2  EPW O   H1  H2  EPW O   H1  H2  EPW O   H1  H2  EPW O   H1  H2  EPW O   H1  
H2  EPW O   H1  H2  EPW O   H1  H2  EPW O   H1  H2  EPW O   H1  H2  EPW O   H1  
H2  EPW O   H1  H2  EPW O   H1  H2  EPW O   H1  H2  EPW O   H1  H2  EPW O   H1  
H2  EPW O   H1  H2  EPW O   H1  H2  EPW O   H1  H2  EPW O   H1  H2  EPW O   H1  
H2  EPW O   H1  H2  EPW O   H1  H2  EPW O   H1  H2  EPW O   H1  H2  EPW O   H1  
H2  EPW O   H1  H2  EPW O   H1  H2  EPW O   H1  H2  EPW O   H1  H2  EPW O   H1  
H2  EPW O   H1  H2  EPW O   H1  H2  EPW O   H1  H2  EPW O   H1  H2  EPW O   H1  
H2  EPW O   H1  H2  EPW O   H1  H2  EPW O   H1  H2  EPW O   H1  H2  EPW O   H1  
H2  EPW O   H1  H2  EPW O   H1  H2  EPW O   H1  H2  EPW O   H1  H2  EPW O   H1  
H2  EPW O   H1  H2  EPW O   H1  H2  EPW O   H1  H2  EPW O   H1  H2  EPW O   H1  
H2  EPW O   H1  H2  EPW O   H1  H2  EPW O   H1  H2  EPW O   H1  H2  EPW O   H1  
H2  EPW O   H1  H2  EPW O   H1  H2  EPW O   H1  H2  EPW O   H1  H2  EPW O   H1  
H2  EPW O   H1  H2  EPW O   H1  H2  EPW O   H1  H2  EPW O   H1  H2  EPW O   H1  
H2  EPW O   H1  H2  EPW O   H1  H2  EPW O   H1  H2  EPW O   H1  H2  EPW O   H1  
H2  EPW O   H1  H2  EPW O   H1  H2  EPW O   H1  H2  EPW O   H1  H2  EPW O   H1  
H2  EPW O   H1  H2  EPW O   H1  H2  EPW O   H1  H2  EPW O   H1  H2  EPW O   H1  
H2  EPW O   H1  H2  EPW O   H1  H2  EPW O   H1  H2  EPW O   H1  H2  EPW O   H1  
H2  EPW O   H1  H2  EPW O   H1  H2  EPW O   H1  H2  EPW O   H1  H2  EPW O   H1  
H2  EPW O   H1  H2  EPW O   H1  H2  EPW O   H1  H2  EPW O   H1  H2  EPW O   H1  
H2  EPW O   H1  H2  EPW O   H1  H2  EPW O   H1  H2  EPW O   H1  H2  EPW O   H1  
H2  EPW O   H1  H2  EPW O   H1  H2  EPW O   H1  H2  EPW O   H1  H2  EPW O   H1  
H2  EPW O   H1  H2  EPW O   H1  H2  EPW O   H1  H2  EPW O   H1  H2  EPW O   H1  
H2  EPW O   H1  H2  EPW O   H1  H2  EPW O   H1  H2  EPW O   H1  H2  EPW O   H1  
H2  EPW O   H1  H2  EPW O   H1  H2  EPW O   H1  H2  EPW O   H1  H2  EPW O   H1  
H2  EPW O   H1  H2  EPW O   H1  H2  EPW O   H1  H2  EPW O   H1  H2  EPW O   H1  
H2  EPW O   H1  H2  EPW O   H1  H2  EPW O   H1  H2  EPW O   H1  H2  EPW O   H1  
H2  EPW O   H1  H2  EPW O   H1  H2  EPW O   H1  H2  EPW O   H1  H2  EPW O   H1  
H2  EPW O   H1  H2  EPW O   H1  H2  EPW O   H1  H2  EPW O   H1  H2  EPW O   H1  
H2  EPW O   H1  H2  EPW O   H1  H2  EPW O   H1  H2  EPW O   H1  H2  EPW O   H1  
H2  EPW O   H1  H2  EPW O   H1  H2  EPW O   H1  H2  EPW O   H1  H2  EPW O   H1  
H2  EPW O   H1  H2  EPW O   H1  H2  EPW O   H1  H2  EPW O   H1  H2  EPW O   H1  
H2  EPW O   H1  H2  EPW O   H1  H2  EPW O   H1  H2  EPW O   H1  H2  EPW O   H1  
H2  EPW O   H1  H2  EPW O   H1  H2  EPW O   H1  H2  EPW O   H1  H2  EPW O   H1  
H2  EPW O   H1  H2  EPW O   H1  H2  EPW O   H1  H2  EPW O   H1  H2  EPW O   H1  
H2  EPW O   H1  H2  EPW O   H1  H2  EPW O   H1  H2  EPW O   H1  H2  EPW O   H1  
H2  EPW O   H1  H2  EPW O   H1  H2  EPW O   H1  H2  EPW O   H1  H2  EPW O   H1  
H2  EPW O   H1  H2  EPW O   H1  H2  EPW O   H1  H2  EPW O   H1  H2  EPW O   H1  
H2  EPW O   H1  H2  EPW O   H1  H2  EPW O   H1  H2  EPW O   H1  H2  EPW O   H1  
H2  EPW O   H1  H2  EPW O   H1  H2  EPW O   H1  H2  EPW O   H1  H2  EPW O   H1  
H2  EPW O   H1  H2  EPW O   H1  H2  EPW O   H1  H2  EPW O   H1  H2  EPW O   H1  
H2  EPW O   H1  H2  EPW O   H1  H2  EPW O   H1  H2  EPW O   H1  H2  EPW O   H1  
H2  EPW O   H1  H2  EPW O   H1  H2  EPW O   H1  H2  EPW O   H1  H2  EPW O   H1  
H2  EPW O   H1  H2  EPW O   H1  H2  EPW O   H1  H2  EPW O   H1  H2  EPW O   H1  
H2  EPW O   H1  H2  EPW O   H1  H2  EPW O   H1  H2  EPW O   H1  H2  EPW O   H1  
H2  EPW O   H1  H2  EPW O   H1  H2  EPW O   H1  H2  EPW O   H1  H2  EPW O   H1  
H2  EPW O   H1  H2  EPW O   H1  H2  EPW O   H1  H2  EPW O   H1  H2  EPW O   H1  
H2  EPW O   H1  H2  EPW O   H1  H2  EPW O   H1  H2  EPW O   H1  H2  EPW O   H1  
H2  EPW O   H1  H2  EPW O   H1  H2  EPW O   H1  H2  EPW O   H1  H2  EPW O   H1  
H2  EPW O   H1  H2  EPW O   H1  H2  EPW O   H1  H2  EPW O   H1  H2  EPW O   H1  
H2  EPW O   H1  H2  EPW O   H1  H2  EPW O   H1  H2  EPW O   H1  H2  EPW O   H1  
H2  EPW O   H1  H2  EPW O   H1  H2  EPW O   H1  H2  EPW O   H1  H2  EPW O   H1  
H2  EPW O   H1  H2  EPW O   H1  H2  EPW O   H1  H2  EPW O   H1  H2  EPW O   H1  
H2  EPW O   H1  H2  EPW O   H1  H2  EPW O   H1  H2  EPW O   H1  H2  EPW O   H1  
H2  EPW O   H1  H2  EPW O   H1  H2  EPW O   H1  H2  EPW O   H1  H2  EPW O   H1  
H2  EPW O   H1  H2  EPW O   H1  H2  EPW O   H1  H2  EPW O   H1  H2  EPW O   H1  
H2  EPW O   H1  H2  EPW O   H1  H2  EPW O   H1  H2  EPW O   H1  H2  EPW O   H1  
H2  EPW O   H1  H2  EPW O   H1  H2  EPW O   H1  H2  EPW O   H1  H2  EPW O   H1  
H2  EPW O   H1  H2  EPW O   H1  H2  EPW O   H1  H2  EPW O   H1  H2  EPW O   H1  
H2  EPW O   H1  H2  EPW O   H1  H2  EPW O   H1  H2  EPW O   H1  H2  EPW O   H1  
H2  EPW O   H1  H2  EPW O   H1  H2  EPW O   H1  H2  EPW O   H1  H2  EPW O   H1  
H2  EPW O   H1  H2  EPW O   H1  H2  EPW O   H1  H2  EPW O   H1  H2  EPW O   H1  
H2  EPW O   H1  H2  EPW O   H1  H2  EPW O   H1  H2  EPW O   H1  H2  EPW O   H1  
H2  EPW O   H1  H2  EPW O   H1  H2  EPW O   H1  H2  EPW O   H1  H2  EPW O   H1  
H2  EPW O   H1  H2  EPW O   H1  H2  EPW O   H1  H2  EPW O   H1  H2  EPW O   H1  
H2  EPW O   H1  H2  EPW O   H1  H2  EPW O   H1  H2  EPW O   H1  H2  EPW O   H1  
H2  EPW O   H1  H2  EPW O   H1  H2  EPW O   H1  H2  EPW O   H1  H2  EPW O   H1  
H2  EPW O   H1  H2  EPW O   H1  H2  EPW O   H1  H2  EPW O   H1  H2  EPW O   H1  
H2  EPW O   H1  H2  EPW O   H1  H2  EPW O   H1  H2  EPW O   H1  H2  EPW O   H1  
H2  EPW O   H1  H2  EPW O   H1  H2  EPW O   H1  H2  EPW O   H1  H2  EPW O   H1  
H2  EPW O   H1  H2  EPW O   H1  H2  EPW O   H1  H2  EPW O   H1  H2  EPW O   H1  
H2  EPW O   H1  H2  EPW O   H1  H2  EPW O   H1  H2  EPW O   H1  H2  EPW O   H1  
H2  EPW O   H1  H2  EPW O   H1  H2  EPW O   H1  H2  EPW O   H1  H2  EPW O   H1  
H2  EPW O   H1  H2  EPW O   H1  H2  EPW O   H1  H2  EPW O   H1  H2  EPW O   H1  
H2  EPW O   H1  H2  EPW O   H1  H2  EPW O   H1  H2  EPW O   H1  H2  EPW O   H1  
H2  EPW O   H1  H2  EPW O   H1  H2  EPW O   H1  H2  EPW O   H1  H2  EPW O   H1  
H2  EPW O   H1  H2  EPW O   H1  H2  EPW O   H1  H2  EPW O   H1  H2  EPW O   H1  
H2  EPW O   H1  H2  EPW O   H1  H2  EPW O   H1  H2  EPW O   H1  H2  EPW O   H1  
H2  EPW O   H1  H2  EPW O   H1  H2  EPW O   H1  H2  EPW O   H1  H2  EPW O   H1  
H2  EPW O   H1  H2  EPW O   H1  H2  EPW O   H1  H2  EPW O   H1  H2  EPW O   H1  
H2  EPW O   H1  H2  EPW O   H1  H2  EPW O   H1  H2  EPW O   H1  H2  EPW O   H1  
H2  EPW O   H1  H2  EPW O   H1  H2  EPW O   H1  H2  EPW O   H1  H2  EPW O   H1  
H2  EPW O   H1  H2  EPW O   H1  H2  EPW O   H1  H2  EPW O   H1  H2  EPW O   H1  
H2  EPW O   H1  H2  EPW O   H1  H2  EPW O   H1  H2  EPW O   H1  H2  EPW O   H1  
H2  EPW O   H1  H2  EPW O   H1  H2  EPW O   H1  H2  EPW O   H1  H2  EPW O   H1  
H2  EPW O   H1  H2  EPW O   H1  H2  EPW O   H1  H2  EPW O   H1  H2  EPW O   H1  
H2  EPW O   H1  H2  EPW O   H1  H2  EPW O   H1  H2  EPW O   H1  H2  EPW O   H1  
H2  EPW O   H1  H2  EPW O   H1  H2  EPW O   H1  H2  EPW O   H1  H2  EPW O   H1  
H2  EPW O   H1  H2  EPW O   H1  H2  EPW O   H1  H2  EPW O   H1  H2  EPW O   H1  
H2  EPW O   H1  H2  EPW O   H1  H2  EPW O   H1  H2  EPW O   H1  H2  EPW O   H1  
H2  EPW O   H1  H2  EPW O   H1  H2  EPW O   H1  H2  EPW O   H1  H2  EPW O   H1  
H2  EPW O   H1  H2  EPW O   H1  H2  EPW O   H1  H2  EPW O   H1  H2  EPW O   H1  
H2  EPW O   H1  H2  EPW O   H1  H2  EPW O   H1  H2  EPW O   H1  H2  EPW O   H1  
H2  EPW O   H1  H2  EPW O   H1  H2  EPW O   H1  H2  EPW O   H1  H2  EPW O   H1  
H2  EPW O   H1  H2  EPW O   H1  H2  EPW O   H1  H2  EPW O   H1  H2  EPW O   H1  
H2  EPW O   H1  H2  EPW O   H1  H2  EPW O   H1  H2  EPW O   H1  H2  EPW O   H1  
H2  EPW O   H1  H2  EPW O   H1  H2  EPW O   H1  H2  EPW O   H1  H2  EPW O   H1  
H2  EPW O   H1  H2  EPW O   H1  H2  EPW O   H1  H2  EPW O   H1  H2  EPW O   H1  
H2  EPW O   H1  H2  EPW O   H1  H2  EPW O   H1  H2  EPW O   H1  H2  EPW O   H1  
H2  EPW O   H1  H2  EPW O   H1  H2  EPW O   H1  H2  EPW O   H1  H2  EPW O   H1  
H2  EPW O   H1  H2  EPW O   H1  H2  EPW O   H1  H2  EPW O   H1  H2  EPW O   H1  
H2  EPW O   H1  H2  EPW O   H1  H2  EPW O   H1  H2  EPW O   H1  H2  EPW O   H1  
H2  EPW O   H1  H2  EPW O   H1  H2  EPW O   H1  H2  EPW O   H1  H2  EPW O   H1  
H2  EPW O   H1  H2  EPW O   H1  H2  EPW O   H1  H2  EPW O   H1  H2  EPW O   H1  
H2  EPW O   H1  H2  EPW O   H1  H2  EPW O   H1  H2  EPW O   H1  H2  EPW O   H1  
H2  EPW O   H1  H2  EPW O   H1  H2  EPW O   H1  H2  EPW O   H1  H2  EPW O   H1  
H2  EPW O   H1  H2  EPW O   H1  H2  EPW O   H1  H2  EPW O   H1  H2  EPW O   H1  
H2  EPW O   H1  H2  EPW O   H1  H2  EPW O   H1  H2  EPW O   H1  H2  EPW O   H1  
H2  EPW O   H1  H2  EPW O   H1  H2  EPW O   H1  H2  EPW O   H1  H2  EPW O   H1  
H2  EPW O   H1  H2  EPW O   H1  H2  EPW O   H1  H2  EPW O   H1  H2  EPW O   H1  
H2  EPW O   H1  H2  EPW O   H1  H2  EPW O   H1  H2  EPW O   H1  H2  EPW O   H1  
H2  EPW O   H1  H2  EPW O   H1  H2  EPW O   H1  H2  EPW O   H1  H2  EPW O   H1  
H2  EPW O   H1  H2  EPW O   H1  H2  EPW O   H1  H2  EPW O   H1  H2  EPW O   H1  
H2  EPW O   H1  H2  EPW O   H1  H2  EPW O   H1  H2  EPW O   H1  H2  EPW O   H1  
H2  EPW O   H1  H2  EPW O   H1  H2  EPW O   H1  H2  EPW O   H1  H2  EPW O   H1  
H2  EPW O   H1  H2  EPW O   H1  H2  EPW O   H1  H2  EPW O   H1  H2  EPW O   H1  
H2  EPW O   H1  H2  EPW O   H1  H2  EPW O   H1  H2  EPW O   H1  H2  EPW O   H1  
H2  EPW O   H1  H2  EPW O   H1  H2  EPW O   H1  H2  EPW O   H1  H2  EPW O   H1  
H2  EPW O   H1  H2  EPW O   H1  H2  EPW O   H1  H2  EPW O   H1  H2  EPW O   H1  
H2  EPW O   H1  H2  EPW O   H1  H2  EPW O   H1  H2  EPW O   H1  H2  EPW O   H1  
H2  EPW O   H1  H2  EPW O   H1  H2  EPW O   H1  H2  EPW O   H1  H2  EPW O   H1  
H2  EPW O   H1  H2  EPW O   H1  H2  EPW O   H1  H2  EPW O   H1  H2  EPW O   H1  
H2  EPW O   H1  H2  EPW O   H1  H2  EPW O   H1  H2  EPW O   H1  H2  EPW O   H1  
H2  EPW O   H1  H2  EPW O   H1  H2  EPW O   H1  H2  EPW O   H1  H2  EPW O   H1  
H2  EPW O   H1  H2  EPW O   H1  H2  EPW O   H1  H2  EPW O   H1  H2  EPW O   H1  
H2  EPW O   H1  H2  EPW O   H1  H2  EPW O   H1  H2  EPW O   H1  H2  EPW O   H1  
H2  EPW O   H1  H2  EPW O   H1  H2  EPW O   H1  H2  EPW O   H1  H2  EPW O   H1  
H2  EPW O   H1  H2  EPW O   H1  H2  EPW O   H1  H2  EPW O   H1  H2  EPW O   H1  
H2  EPW O   H1  H2  EPW O   H1  H2  EPW O   H1  H2  EPW O   H1  H2  EPW O   H1  
H2  EPW O   H1  H2  EPW O   H1  H2  EPW O   H1  H2  EPW O   H1  H2  EPW O   H1  
H2  EPW O   H1  H2  EPW O   H1  H2  EPW O   H1  H2  EPW O   H1  H2  EPW O   H1  
H2  EPW O   H1  H2  EPW O   H1  H2  EPW O   H1  H2  EPW O   H1  H2  EPW O   H1  
H2  EPW O   H1  H2  EPW O   H1  H2  EPW O   H1  H2  EPW O   H1  H2  EPW O   H1  
H2  EPW O   H1  H2  EPW O   H1  H2  EPW O   H1  H2  EPW O   H1  H2  EPW O   H1  
H2  EPW O   H1  H2  EPW O   H1  H2  EPW O   H1  H2  EPW O   H1  H2  EPW O   H1  
H2  EPW O   H1  H2  EPW O   H1  H2  EPW O   H1  H2  EPW O   H1  H2  EPW O   H1  
H2  EPW O   H1  H2  EPW O   H1  H2  EPW O   H1  H2  EPW O   H1  H2  EPW O   H1  
H2  EPW O   H1  H2  EPW O   H1  H2  EPW O   H1  H2  EPW O   H1  H2  EPW O   H1  
H2  EPW O   H1  H2  EPW O   H1  H2  EPW O   H1  H2  EPW O   H1  H2  EPW O   H1  
H2  EPW O   H1  H2  EPW O   H1  H2  EPW O   H1  H2  EPW O   H1  H2  EPW O   H1  
H2  EPW O   H1  H2  EPW O   H1  H2  EPW O   H1  H2  EPW O   H1  H2  EPW O   H1  
H2  EPW O   H1  H2  EPW O   H1  H2  EPW O   H1  H2  EPW O   H1  H2  EPW O   H1  
H2  EPW O   H1  H2  EPW O   H1  H2  EPW O   H1  H2  EPW O   H1  H2  EPW O   H1  
H2  EPW O   H1  H2  EPW O   H1  H2  EPW O   H1  H2  EPW O   H1  H2  EPW O   H1  
H2  EPW O   H1  H2  EPW O   H1  H2  EPW O   H1  H2  EPW O   H1  H2  EPW O   H1  
H2  EPW O   H1  H2  EPW O   H1  H2  EPW O   H1  H2  EPW O   H1  H2  EPW O   H1  
H2  EPW O   H1  H2  EPW O   H1  H2  EPW O   H1  H2  EPW O   H1  H2  EPW O   H1  
H2  EPW O   H1  H2  EPW O   H1  H2  EPW O   H1  H2  EPW O   H1  H2  EPW O   H1  
H2  EPW O   H1  H2  EPW O   H1  H2  EPW O   H1  H2  EPW O   H1  H2  EPW O   H1  
H2  EPW O   H1  H2  EPW O   H1  H2  EPW O   H1  H2  EPW O   H1  H2  EPW O   H1  
H2  EPW O   H1  H2  EPW O   H1  H2  EPW O   H1  H2  EPW O   H1  H2  EPW O   H1  
H2  EPW O   H1  H2  EPW O   H1  H2  EPW O   H1  H2  EPW O   H1  H2  EPW O   H1  
H2  EPW O   H1  H2  EPW O   H1  H2  EPW O   H1  H2  EPW O   H1  H2  EPW O   H1  
H2  EPW O   H1  H2  EPW O   H1  H2  EPW O   H1  H2  EPW O   H1  H2  EPW O   H1  
H2  EPW O   H1  H2  EPW O   H1  H2  EPW O   H1  H2  EPW O   H1  H2  EPW O   H1  
H2  EPW O   H1  H2  EPW O   H1  H2  EPW O   H1  H2  EPW O   H1  H2  EPW O   H1  
H2  EPW O   H1  H2  EPW O   H1  H2  EPW O   H1  H2  EPW O   H1  H2  EPW O   H1  
H2  EPW O   H1  H2  EPW O   H1  H2  EPW O   H1  H2  EPW O   H1  H2  EPW O   H1  
H2  EPW O   H1  H2  EPW O   H1  H2  EPW O   H1  H2  EPW O   H1  H2  EPW O   H1  
H2  EPW O   H1  H2  EPW O   H1  H2  EPW O   H1  H2  EPW O   H1  H2  EPW O   H1  
H2  EPW O   H1  H2  EPW O   H1  H2  EPW O   H1  H2  EPW O   H1  H2  EPW O   H1  
H2  EPW O   H1  H2  EPW O   H1  H2  EPW O   H1  H2  EPW O   H1  H2  EPW O   H1  
H2  EPW O   H1  H2  EPW O   H1  H2  EPW O   H1  H2  EPW O   H1  H2  EPW O   H1  
H2  EPW O   H1  H2  EPW O   H1  H2  EPW O   H1  H2  EPW O   H1  H2  EPW O   H1  
H2  EPW O   H1  H2  EPW O   H1  H2  EPW O   H1  H2  EPW O   H1  H2  EPW O   H1  
H2  EPW O   H1  H2  EPW O   H1  H2  EPW O   H1  H2  EPW O   H1  H2  EPW O   H1  
H2  EPW O   H1  H2  EPW O   H1  H2  EPW O   H1  H2  EPW O   H1  H2  EPW O   H1  
H2  EPW O   H1  H2  EPW O   H1  H2  EPW O   H1  H2  EPW O   H1  H2  EPW O   H1  
H2  EPW O   H1  H2  EPW O   H1  H2  EPW O   H1  H2  EPW O   H1  H2  EPW O   H1  
H2  EPW O   H1  H2  EPW O   H1  H2  EPW O   H1  H2  EPW O   H1  H2  EPW O   H1  
H2  EPW O   H1  H2  EPW O   H1  H2  EPW O   H1  H2  EPW O   H1  H2  EPW O   H1  
H2  EPW O   H1  H2  EPW O   H1  H2  EPW O   H1  H2  EPW O   H1  H2  EPW O   H1  
H2  EPW O   H1  H2  EPW O   H1  H2  EPW O   H1  H2  EPW O   H1  H2  EPW O   H1  
H2  EPW O   H1  H2  EPW O   H1  H2  EPW O   H1  H2  EPW O   H1  H2  EPW O   H1  
H2  EPW O   H1  H2  EPW O   H1  H2  EPW O   H1  H2  EPW O   H1  H2  EPW O   H1  
H2  EPW O   H1  H2  EPW O   H1  H2  EPW O   H1  H2  EPW O   H1  H2  EPW O   H1  
H2  EPW O   H1  H2  EPW O   H1  H2  EPW O   H1  H2  EPW O   H1  H2  EPW O   H1  
H2  EPW O   H1  H2  EPW O   H1  H2  EPW O   H1  H2  EPW O   H1  H2  EPW O   H1  
H2  EPW O   H1  H2  EPW O   H1  H2  EPW O   H1  H2  EPW O   H1  H2  EPW O   H1  
H2  EPW O   H1  H2  EPW O   H1  H2  EPW O   H1  H2  EPW O   H1  H2  EPW O   H1  
H2  EPW O   H1  H2  EPW O   H1  H2  EPW O   H1  H2  EPW O   H1  H2  EPW O   H1  
H2  EPW O   H1  H2  EPW O   H1  H2  EPW O   H1  H2  EPW O   H1  H2  EPW O   H1  
H2  EPW O   H1  H2  EPW O   H1  H2  EPW O   H1  H2  EPW O   H1  H2  EPW O   H1  
H2  EPW O   H1  H2  EPW O   H1  H2  EPW O   H1  H2  EPW O   H1  H2  EPW O   H1  
H2  EPW O   H1  H2  EPW O   H1  H2  EPW O   H1  H2  EPW O   H1  H2  EPW O   H1  
H2  EPW O   H1  H2  EPW O   H1  H2  EPW O   H1  H2  EPW O   H1  H2  EPW O   H1  
H2  EPW O   H1  H2  EPW O   H1  H2  EPW O   H1  H2  EPW O   H1  H2  EPW O   H1  
H2  EPW O   H1  H2  EPW O   H1  H2  EPW O   H1  H2  EPW O   H1  H2  EPW O   H1  
H2  EPW O   H1  H2  EPW O   H1  H2  EPW O   H1  H2  EPW O   H1  H2  EPW O   H1  
H2  EPW O   H1  H2  EPW O   H1  H2  EPW O   H1  H2  EPW O   H1  H2  EPW O   H1  
H2  EPW O   H1  H2  EPW O   H1  H2  EPW O   H1  H2  EPW O   H1  H2  EPW O   H1  
H2  EPW O   H1  H2  EPW O   H1  H2  EPW O   H1  H2  EPW O   H1  H2  EPW O   H1  
H2  EPW O   H1  H2  EPW O   H1  H2  EPW O   H1  H2  EPW O   H1  H2  EPW O   H1  
H2  EPW O   H1  H2  EPW O   H1  H2  EPW O   H1  H2  EPW O   H1  H2  EPW O   H1  
H2  EPW O   H1  H2  EPW O   H1  H2  EPW O   H1  H2  EPW O   H1  H2  EPW O   H1  
H2  EPW O   H1  H2  EPW O   H1  H2  EPW O   H1  H2  EPW O   H1  H2  EPW O   H1  
H2  EPW O   H1  H2  EPW O   H1  H2  EPW O   H1  H2  EPW O   H1  H2  EPW O   H1  
H2  EPW O   H1  H2  EPW O   H1  H2  EPW O   H1  H2  EPW O   H1  H2  EPW O   H1  
H2  EPW O   H1  H2  EPW O   H1  H2  EPW O   H1  H2  EPW O   H1  H2  EPW O   H1  
H2  EPW O   H1  H2  EPW O   H1  H2  EPW O   H1  H2  EPW O   H1  H2  EPW O   H1  
H2  EPW O   H1  H2  EPW O   H1  H2  EPW O   H1  H2  EPW O   H1  H2  EPW O   H1  
H2  EPW O   H1  H2  EPW O   H1  H2  EPW O   H1  H2  EPW O   H1  H2  EPW O   H1  
H2  EPW O   H1  H2  EPW O   H1  H2  EPW O   H1  H2  EPW O   H1  H2  EPW O   H1  
H2  EPW O   H1  H2  EPW O   H1  H2  EPW O   H1  H2  EPW O   H1  H2  EPW O   H1  
H2  EPW O   H1  H2  EPW O   H1  H2  EPW O   H1  H2  EPW O   H1  H2  EPW O   H1  
H2  EPW O   H1  H2  EPW O   H1  H2  EPW O   H1  H2  EPW O   H1  H2  EPW O   H1  
H2  EPW O   H1  H2  EPW O   H1  H2  EPW O   H1  H2  EPW O   H1  H2  EPW O   H1  
H2  EPW O   H1  H2  EPW O   H1  H2  EPW O   H1  H2  EPW O   H1  H2  EPW O   H1  
H2  EPW O   H1  H2  EPW O   H1  H2  EPW O   H1  H2  EPW O   H1  H2  EPW O   H1  
H2  EPW O   H1  H2  EPW O   H1  H2  EPW O   H1  H2  EPW O   H1  H2  EPW O   H1  
H2  EPW O   H1  H2  EPW O   H1  H2  EPW O   H1  H2  EPW O   H1  H2  EPW O   H1  
H2  EPW O   H1  H2  EPW O   H1  H2  EPW O   H1  H2  EPW O   H1  H2  EPW O   H1  
H2  EPW O   H1  H2  EPW O   H1  H2  EPW O   H1  H2  EPW O   H1  H2  EPW O   H1  
H2  EPW O   H1  H2  EPW O   H1  H2  EPW O   H1  H2  EPW O   H1  H2  EPW O   H1  
H2  EPW O   H1  H2  EPW O   H1  H2  EPW O   H1  H2  EPW O   H1  H2  EPW O   H1  
H2  EPW O   H1  H2  EPW O   H1  H2  EPW O   H1  H2  EPW O   H1  H2  EPW O   H1  
H2  EPW O   H1  H2  EPW O   H1  H2  EPW O   H1  H2  EPW O   H1  H2  EPW O   H1  
H2  EPW O   H1  H2  EPW O   H1  H2  EPW O   H1  H2  EPW O   H1  H2  EPW O   H1  
H2  EPW O   H1  H2  EPW O   H1  H2  EPW O   H1  H2  EPW O   H1  H2  EPW O   H1  
H2  EPW O   H1  H2  EPW O   H1  H2  EPW O   H1  H2  EPW O   H1  H2  EPW O   H1  
H2  EPW O   H1  H2  EPW O   H1  H2  EPW O   H1  H2  EPW O   H1  H2  EPW O   H1  
H2  EPW O   H1  H2  EPW O   H1  H2  EPW O   H1  H2  EPW O   H1  H2  EPW O   H1  
H2  EPW O   H1  H2  EPW O   H1  H2  EPW O   H1  H2  EPW O   H1  H2  EPW O   H1  
H2  EPW O   H1  H2  EPW O   H1  H2  EPW O   H1  H2  EPW O   H1  H2  EPW O   H1  
H2  EPW O   H1  H2  EPW O   H1  H2  EPW O   H1  H2  EPW O   H1  H2  EPW O   H1  
H2  EPW O   H1  H2  EPW O   H1  H2  EPW O   H1  H2  EPW O   H1  H2  EPW O   H1  
H2  EPW O   H1  H2  EPW O   H1  H2  EPW O   H1  H2  EPW O   H1  H2  EPW O   H1  
H2  EPW O   H1  H2  EPW O   H1  H2  EPW O   H1  H2  EPW O   H1  H2  EPW O   H1  
H2  EPW O   H1  H2  EPW O   H1  H2  EPW O   H1  H2  EPW O   H1  H2  EPW O   H1  
H2  EPW O   H1  H2  EPW O   H1  H2  EPW O   H1  H2  EPW O   H1  H2  EPW O   H1  
H2  EPW O   H1  H2  EPW O   H1  H2  EPW O   H1  H2  EPW O   H1  H2  EPW O   H1  
H2  EPW O   H1  H2  EPW O   H1  H2  EPW O   H1  H2  EPW O   H1  H2  EPW O   H1  
H2  EPW O   H1  H2  EPW O   H1  H2  EPW O   H1  H2  EPW O   H1  H2  EPW O   H1  
H2  EPW O   H1  H2  EPW O   H1  H2  EPW O   H1  H2  EPW O   H1  H2  EPW O   H1  
H2  EPW O   H1  H2  EPW O   H1  H2  EPW O   H1  H2  EPW O   H1  H2  EPW O   H1  
H2  EPW O   H1  H2  EPW O   H1  H2  EPW O   H1  H2  EPW O   H1  H2  EPW O   H1  
H2  EPW O   H1  H2  EPW O   H1  H2  EPW O   H1  H2  EPW O   H1  H2  EPW O   H1  
H2  EPW O   H1  H2  EPW O   H1  H2  EPW O   H1  H2  EPW O   H1  H2  EPW O   H1  
H2  EPW O   H1  H2  EPW O   H1  H2  EPW O   H1  H2  EPW O   H1  H2  EPW O   H1  
H2  EPW O   H1  H2  EPW O   H1  H2  EPW O   H1  H2  EPW O   H1  H2  EPW O   H1  
H2  EPW O   H1  H2  EPW O   H1  H2  EPW O   H1  H2  EPW O   H1  H2  EPW O   H1  
H2  EPW O   H1  H2  EPW O   H1  H2  EPW O   H1  H2  EPW O   H1  H2  EPW O   H1  
H2  EPW O   H1  H2  EPW O   H1  H2  EPW O   H1  H2  EPW O   H1  H2  EPW O   H1  
H2  EPW O   H1  H2  EPW O   H1  H2  EPW O   H1  H2  EPW O   H1  H2  EPW O   H1  
H2  EPW O   H1  H2  EPW O   H1  H2  EPW O   H1  H2  EPW O   H1  H2  EPW O   H1  
H2  EPW O   H1  H2  EPW O   H1  H2  EPW O   H1  H2  EPW O   H1  H2  EPW O   H1  
H2  EPW O   H1  H2  EPW O   H1  H2  EPW O   H1  H2  EPW O   H1  H2  EPW O   H1  
H2  EPW O   H1  H2  EPW O   H1  H2  EPW O   H1  H2  EPW O   H1  H2  EPW O   H1  
H2  EPW O   H1  H2  EPW O   H1  H2  EPW O   H1  H2  EPW O   H1  H2  EPW O   H1  
H2  EPW O   H1  H2  EPW O   H1  H2  EPW O   H1  H2  EPW O   H1  H2  EPW O   H1  
H2  EPW O   H1  H2  EPW O   H1  H2  EPW O   H1  H2  EPW O   H1  H2  EPW O   H1  
H2  EPW O   H1  H2  EPW O   H1  H2  EPW O   H1  H2  EPW O   H1  H2  EPW O   H1  
H2  EPW O   H1  H2  EPW O   H1  H2  EPW O   H1  H2  EPW O   H1  H2  EPW O   H1  
H2  EPW O   H1  H2  EPW O   H1  H2  EPW O   H1  H2  EPW O   H1  H2  EPW O   H1  
H2  EPW O   H1  H2  EPW O   H1  H2  EPW O   H1  H2  EPW O   H1  H2  EPW O   H1  
H2  EPW O   H1  H2  EPW O   H1  H2  EPW O   H1  H2  EPW O   H1  H2  EPW O   H1  
H2  EPW O   H1  H2  EPW O   H1  H2  EPW O   H1  H2  EPW O   H1  H2  EPW O   H1  
H2  EPW O   H1  H2  EPW O   H1  H2  EPW O   H1  H2  EPW O   H1  H2  EPW O   H1  
H2  EPW O   H1  H2  EPW O   H1  H2  EPW O   H1  H2  EPW O   H1  H2  EPW O   H1  
H2  EPW O   H1  H2  EPW O   H1  H2  EPW O   H1  H2  EPW O   H1  H2  EPW O   H1  
H2  EPW O   H1  H2  EPW O   H1  H2  EPW O   H1  H2  EPW O   H1  H2  EPW O   H1  
H2  EPW O   H1  H2  EPW O   H1  H2  EPW O   H1  H2  EPW O   H1  H2  EPW O   H1  
H2  EPW O   H1  H2  EPW O   H1  H2  EPW O   H1  H2  EPW O   H1  H2  EPW O   H1  
H2  EPW O   H1  H2  EPW O   H1  H2  EPW O   H1  H2  EPW O   H1  H2  EPW O   H1  
H2  EPW O   H1  H2  EPW O   H1  H2  EPW O   H1  H2  EPW O   H1  H2  EPW O   H1  
H2  EPW O   H1  H2  EPW O   H1  H2  EPW O   H1  H2  EPW O   H1  H2  EPW O   H1  
H2  EPW O   H1  H2  EPW O   H1  H2  EPW O   H1  H2  EPW O   H1  H2  EPW O   H1  
H2  EPW O   H1  H2  EPW O   H1  H2  EPW O   H1  H2  EPW O   H1  H2  EPW O   H1  
H2  EPW O   H1  H2  EPW O   H1  H2  EPW O   H1  H2  EPW O   H1  H2  EPW O   H1  
H2  EPW O   H1  H2  EPW O   H1  H2  EPW O   H1  H2  EPW O   H1  H2  EPW O   H1  
H2  EPW O   H1  H2  EPW O   H1  H2  EPW O   H1  H2  EPW O   H1  H2  EPW O   H1  
H2  EPW O   H1  H2  EPW O   H1  H2  EPW O   H1  H2  EPW O   H1  H2  EPW O   H1  
H2  EPW O   H1  H2  EPW O   H1  H2  EPW O   H1  H2  EPW O   H1  H2  EPW O   H1  
H2  EPW O   H1  H2  EPW O   H1  H2  EPW O   H1  H2  EPW O   H1  H2  EPW O   H1  
H2  EPW O   H1  H2  EPW O   H1  H2  EPW O   H1  H2  EPW O   H1  H2  EPW O   H1  
H2  EPW O   H1  H2  EPW O   H1  H2  EPW O   H1  H2  EPW O   H1  H2  EPW O   H1  
H2  EPW O   H1  H2  EPW O   H1  H2  EPW O   H1  H2  EPW O   H1  H2  EPW O   H1  
H2  EPW O   H1  H2  EPW O   H1  H2  EPW O   H1  H2  EPW O   H1  H2  EPW O   H1  
H2  EPW O   H1  H2  EPW O   H1  H2  EPW O   H1  H2  EPW O   H1  H2  EPW O   H1  
H2  EPW O   H1  H2  EPW O   H1  H2  EPW O   H1  H2  EPW O   H1  H2  EPW O   H1  
H2  EPW O   H1  H2  EPW O   H1  H2  EPW O   H1  H2  EPW O   H1  H2  EPW O   H1  
H2  EPW O   H1  H2  EPW O   H1  H2  EPW O   H1  H2  EPW O   H1  H2  EPW O   H1  
H2  EPW O   H1  H2  EPW O   H1  H2  EPW O   H1  H2  EPW O   H1  H2  EPW O   H1  
H2  EPW O   H1  H2  EPW O   H1  H2  EPW O   H1  H2  EPW O   H1  H2  EPW O   H1  
H2  EPW O   H1  H2  EPW O   H1  H2  EPW O   H1  H2  EPW O   H1  H2  EPW O   H1  
H2  EPW O   H1  H2  EPW O   H1  H2  EPW O   H1  H2  EPW O   H1  H2  EPW O   H1  
H2  EPW O   H1  H2  EPW O   H1  H2  EPW O   H1  H2  EPW O   H1  H2  EPW O   H1  
H2  EPW O   H1  H2  EPW O   H1  H2  EPW O   H1  H2  EPW O   H1  H2  EPW O   H1  
H2  EPW O   H1  H2  EPW O   H1  H2  EPW O   H1  H2  EPW O   H1  H2  EPW O   H1  
H2  EPW O   H1  H2  EPW O   H1  H2  EPW O   H1  H2  EPW O   H1  H2  EPW O   H1  
H2  EPW O   H1  H2  EPW O   H1  H2  EPW O   H1  H2  EPW O   H1  H2  EPW O   H1  
H2  EPW O   H1  H2  EPW O   H1  H2  EPW O   H1  H2  EPW O   H1  H2  EPW O   H1  
H2  EPW O   H1  H2  EPW O   H1  H2  EPW O   H1  H2  EPW O   H1  H2  EPW O   H1  
H2  EPW O   H1  H2  EPW O   H1  H2  EPW O   H1  H2  EPW O   H1  H2  EPW O   H1  
H2  EPW O   H1  H2  EPW O   H1  H2  EPW O   H1  H2  EPW O   H1  H2  EPW O   H1  
H2  EPW O   H1  H2  EPW O   H1  H2  EPW O   H1  H2  EPW O   H1  H2  EPW O   H1  
H2  EPW O   H1  H2  EPW O   H1  H2  EPW O   H1  H2  EPW O   H1  H2  EPW O   H1  
H2  EPW O   H1  H2  EPW O   H1  H2  EPW O   H1  H2  EPW O   H1  H2  EPW O   H1  
H2  EPW O   H1  H2  EPW O   H1  H2  EPW O   H1  H2  EPW O   H1  H2  EPW O   H1  
H2  EPW O   H1  H2  EPW O   H1  H2  EPW O   H1  H2  EPW O   H1  H2  EPW O   H1  
H2  EPW O   H1  H2  EPW O   H1  H2  EPW O   H1  H2  EPW O   H1  H2  EPW O   H1  
H2  EPW O   H1  H2  EPW O   H1  H2  EPW O   H1  H2  EPW O   H1  H2  EPW O   H1  
H2  EPW O   H1  H2  EPW O   H1  H2  EPW O   H1  H2  EPW O   H1  H2  EPW O   H1  
H2  EPW O   H1  H2  EPW O   H1  H2  EPW O   H1  H2  EPW O   H1  H2  EPW O   H1  
H2  EPW O   H1  H2  EPW O   H1  H2  EPW O   H1  H2  EPW O   H1  H2  EPW O   H1  
H2  EPW O   H1  H2  EPW O   H1  H2  EPW O   H1  H2  EPW O   H1  H2  EPW O   H1  
H2  EPW O   H1  H2  EPW O   H1  H2  EPW O   H1  H2  EPW O   H1  H2  EPW O   H1  
H2  EPW O   H1  H2  EPW O   H1  H2  EPW O   H1  H2  EPW O   H1  H2  EPW O   H1  
H2  EPW O   H1  H2  EPW O   H1  H2  EPW O   H1  H2  EPW O   H1  H2  EPW O   H1  
H2  EPW O   H1  H2  EPW O   H1  H2  EPW O   H1  H2  EPW O   H1  H2  EPW O   H1  
H2  EPW O   H1  H2  EPW O   H1  H2  EPW O   H1  H2  EPW O   H1  H2  EPW O   H1  
H2  EPW O   H1  H2  EPW O   H1  H2  EPW O   H1  H2  EPW O   H1  H2  EPW O   H1  
H2  EPW O   H1  H2  EPW O   H1  H2  EPW O   H1  H2  EPW O   H1  H2  EPW O   H1  
H2  EPW O   H1  H2  EPW O   H1  H2  EPW O   H1  H2  EPW O   H1  H2  EPW O   H1  
H2  EPW O   H1  H2  EPW O   H1  H2  EPW O   H1  H2  EPW O   H1  H2  EPW O   H1  
H2  EPW O   H1  H2  EPW O   H1  H2  EPW O   H1  H2  EPW O   H1  H2  EPW O   H1  
H2  EPW O   H1  H2  EPW O   H1  H2  EPW O   H1  H2  EPW O   H1  H2  EPW O   H1  
H2  EPW O   H1  H2  EPW O   H1  H2  EPW O   H1  H2  EPW O   H1  H2  EPW O   H1  
H2  EPW O   H1  H2  EPW O   H1  H2  EPW O   H1  H2  EPW O   H1  H2  EPW O   H1  
H2  EPW O   H1  H2  EPW O   H1  H2  EPW O   H1  H2  EPW O   H1  H2  EPW O   H1  
H2  EPW O   H1  H2  EPW O   H1  H2  EPW O   H1  H2  EPW O   H1  H2  EPW O   H1  
H2  EPW O   H1  H2  EPW O   H1  H2  EPW O   H1  H2  EPW O   H1  H2  EPW O   H1  
H2  EPW O   H1  H2  EPW O   H1  H2  EPW O   H1  H2  EPW O   H1  H2  EPW O   H1  
H2  EPW O   H1  H2  EPW O   H1  H2  EPW O   H1  H2  EPW O   H1  H2  EPW O   H1  
H2  EPW O   H1  H2  EPW O   H1  H2  EPW O   H1  H2  EPW O   H1  H2  EPW O   H1  
H2  EPW O   H1  H2  EPW O   H1  H2  EPW O   H1  H2  EPW O   H1  H2  EPW O   H1  
H2  EPW O   H1  H2  EPW O   H1  H2  EPW O   H1  H2  EPW O   H1  H2  EPW O   H1  
H2  EPW O   H1  H2  EPW O   H1  H2  EPW O   H1  H2  EPW O   H1  H2  EPW O   H1  
H2  EPW O   H1  H2  EPW O   H1  H2  EPW O   H1  H2  EPW O   H1  H2  EPW O   H1  
H2  EPW O   H1  H2  EPW O   H1  H2  EPW O   H1  H2  EPW O   H1  H2  EPW O   H1  
H2  EPW O   H1  H2  EPW O   H1  H2  EPW O   H1  H2  EPW O   H1  H2  EPW O   H1  
H2  EPW O   H1  H2  EPW O   H1  H2  EPW O   H1  H2  EPW O   H1  H2  EPW O   H1  
H2  EPW O   H1  H2  EPW O   H1  H2  EPW O   H1  H2  EPW O   H1  H2  EPW O   H1  
H2  EPW O   H1  H2  EPW O   H1  H2  EPW O   H1  H2  EPW O   H1  H2  EPW O   H1  
H2  EPW O   H1  H2  EPW O   H1  H2  EPW O   H1  H2  EPW O   H1  H2  EPW O   H1  
H2  EPW O   H1  H2  EPW O   H1  H2  EPW O   H1  H2  EPW O   H1  H2  EPW O   H1  
H2  EPW O   H1  H2  EPW O   H1  H2  EPW O   H1  H2  EPW O   H1  H2  EPW O   H1  
H2  EPW O   H1  H2  EPW O   H1  H2  EPW O   H1  H2  EPW O   H1  H2  EPW O   H1  
H2  EPW O   H1  H2  EPW O   H1  H2  EPW O   H1  H2  EPW O   H1  H2  EPW O   H1  
H2  EPW O   H1  H2  EPW O   H1  H2  EPW O   H1  H2  EPW O   H1  H2  EPW O   H1  
H2  EPW O   H1  H2  EPW O   H1  H2  EPW O   H1  H2  EPW O   H1  H2  EPW O   H1  
H2  EPW O   H1  H2  EPW O   H1  H2  EPW O   H1  H2  EPW O   H1  H2  EPW O   H1  
H2  EPW O   H1  H2  EPW O   H1  H2  EPW O   H1  H2  EPW O   H1  H2  EPW O   H1  
H2  EPW O   H1  H2  EPW O   H1  H2  EPW O   H1  H2  EPW O   H1  H2  EPW O   H1  
H2  EPW O   H1  H2  EPW O   H1  H2  EPW O   H1  H2  EPW O   H1  H2  EPW O   H1  
H2  EPW O   H1  H2  EPW O   H1  H2  EPW O   H1  H2  EPW O   H1  H2  EPW O   H1  
H2  EPW O   H1  H2  EPW O   H1  H2  EPW O   H1  H2  EPW O   H1  H2  EPW O   H1  
H2  EPW O   H1  H2  EPW O   H1  H2  EPW O   H1  H2  EPW O   H1  H2  EPW O   H1  
H2  EPW O   H1  H2  EPW O   H1  H2  EPW O   H1  H2  EPW O   H1  H2  EPW O   H1  
H2  EPW O   H1  H2  EPW O   H1  H2  EPW O   H1  H2  EPW O   H1  H2  EPW O   H1  
H2  EPW O   H1  H2  EPW O   H1  H2  EPW O   H1  H2  EPW O   H1  H2  EPW O   H1  
H2  EPW O   H1  H2  EPW O   H1  H2  EPW O   H1  H2  EPW O   H1  H2  EPW O   H1  
H2  EPW O   H1  H2  EPW O   H1  H2  EPW O   H1  H2  EPW O   H1  H2  EPW O   H1  
H2  EPW O   H1  H2  EPW O   H1  H2  EPW O   H1  H2  EPW O   H1  H2  EPW O   H1  
H2  EPW O   H1  H2  EPW O   H1  H2  EPW O   H1  H2  EPW O   H1  H2  EPW O   H1  
H2  EPW O   H1  H2  EPW O   H1  H2  EPW O   H1  H2  EPW O   H1  H2  EPW O   H1  
H2  EPW O   H1  H2  EPW O   H1  H2  EPW O   H1  H2  EPW O   H1  H2  EPW O   H1  
H2  EPW O   H1  H2  EPW O   H1  H2  EPW O   H1  H2  EPW O   H1  H2  EPW O   H1  
H2  EPW O   H1  H2  EPW O   H1  H2  EPW O   H1  H2  EPW O   H1  H2  EPW O   H1  
H2  EPW O   H1  H2  EPW O   H1  H2  EPW O   H1  H2  EPW O   H1  H2  EPW O   H1  
H2  EPW O   H1  H2  EPW O   H1  H2  EPW O   H1  H2  EPW O   H1  H2  EPW O   H1  
H2  EPW O   H1  H2  EPW O   H1  H2  EPW O   H1  H2  EPW O   H1  H2  EPW O   H1  
H2  EPW O   H1  H2  EPW O   H1  H2  EPW O   H1  H2  EPW O   H1  H2  EPW O   H1  
H2  EPW O   H1  H2  EPW O   H1  H2  EPW O   H1  H2  EPW O   H1  H2  EPW O   H1  
H2  EPW O   H1  H2  EPW O   H1  H2  EPW O   H1  H2  EPW O   H1  H2  EPW O   H1  
H2  EPW O   H1  H2  EPW O   H1  H2  EPW O   H1  H2  EPW O   H1  H2  EPW O   H1  
H2  EPW O   H1  H2  EPW O   H1  H2  EPW O   H1  H2  EPW O   H1  H2  EPW O   H1  
H2  EPW O   H1  H2  EPW O   H1  H2  EPW O   H1  H2  EPW O   H1  H2  EPW O   H1  
H2  EPW O   H1  H2  EPW O   H1  H2  EPW O   H1  H2  EPW O   H1  H2  EPW O   H1  
H2  EPW O   H1  H2  EPW O   H1  H2  EPW O   H1  H2  EPW O   H1  H2  EPW O   H1  
H2  EPW O   H1  H2  EPW O   H1  H2  EPW O   H1  H2  EPW O   H1  H2  EPW O   H1  
H2  EPW O   H1  H2  EPW O   H1  H2  EPW O   H1  H2  EPW O   H1  H2  EPW O   H1  
H2  EPW O   H1  H2  EPW O   H1  H2  EPW O   H1  H2  EPW O   H1  H2  EPW O   H1  
H2  EPW O   H1  H2  EPW O   H1  H2  EPW O   H1  H2  EPW O   H1  H2  EPW O   H1  
H2  EPW O   H1  H2  EPW O   H1  H2  EPW O   H1  H2  EPW O   H1  H2  EPW O   H1  
H2  EPW O   H1  H2  EPW O   H1  H2  EPW O   H1  H2  EPW O   H1  H2  EPW O   H1  
H2  EPW O   H1  H2  EPW O   H1  H2  EPW O   H1  H2  EPW O   H1  H2  EPW O   H1  
H2  EPW O   H1  H2  EPW O   H1  H2  EPW O   H1  H2  EPW O   H1  H2  EPW O   H1  
H2  EPW O   H1  H2  EPW O   H1  H2  EPW O   H1  H2  EPW O   H1  H2  EPW O   H1  
H2  EPW O   H1  H2  EPW O   H1  H2  EPW O   H1  H2  EPW O   H1  H2  EPW O   H1  
H2  EPW O   H1  H2  EPW O   H1  H2  EPW O   H1  H2  EPW O   H1  H2  EPW O   H1  
H2  EPW O   H1  H2  EPW O   H1  H2  EPW O   H1  H2  EPW O   H1  H2  EPW O   H1  
H2  EPW O   H1  H2  EPW O   H1  H2  EPW O   H1  H2  EPW O   H1  H2  EPW O   H1  
H2  EPW O   H1  H2  EPW O   H1  H2  EPW O   H1  H2  EPW O   H1  H2  EPW O   H1  
H2  EPW O   H1  H2  EPW O   H1  H2  EPW O   H1  H2  EPW O   H1  H2  EPW O   H1  
H2  EPW O   H1  H2  EPW O   H1  H2  EPW O   H1  H2  EPW O   H1  H2  EPW O   H1  
H2  EPW O   H1  H2  EPW O   H1  H2  EPW O   H1  H2  EPW O   H1  H2  EPW O   H1  
H2  EPW O   H1  H2  EPW O   H1  H2  EPW O   H1  H2  EPW O   H1  H2  EPW O   H1  
H2  EPW O   H1  H2  EPW O   H1  H2  EPW O   H1  H2  EPW O   H1  H2  EPW O   H1  
H2  EPW O   H1  H2  EPW O   H1  H2  EPW O   H1  H2  EPW O   H1  H2  EPW O   H1  
H2  EPW O   H1  H2  EPW O   H1  H2  EPW O   H1  H2  EPW O   H1  H2  EPW O   H1  
H2  EPW O   H1  H2  EPW O   H1  H2  EPW O   H1  H2  EPW O   H1  H2  EPW O   H1  
H2  EPW O   H1  H2  EPW O   H1  H2  EPW O   H1  H2  EPW O   H1  H2  EPW O   H1  
H2  EPW O   H1  H2  EPW O   H1  H2  EPW O   H1  H2  EPW O   H1  H2  EPW O   H1  
H2  EPW O   H1  H2  EPW O   H1  H2  EPW O   H1  H2  EPW O   H1  H2  EPW O   H1  
H2  EPW O   H1  H2  EPW O   H1  H2  EPW O   H1  H2  EPW O   H1  H2  EPW O   H1  
H2  EPW O   H1  H2  EPW O   H1  H2  EPW O   H1  H2  EPW O   H1  H2  EPW O   H1  
H2  EPW O   H1  H2  EPW O   H1  H2  EPW O   H1  H2  EPW O   H1  H2  EPW O   H1  
H2  EPW O   H1  H2  EPW O   H1  H2  EPW O   H1  H2  EPW O   H1  H2  EPW O   H1  
H2  EPW O   H1  H2  EPW O   H1  H2  EPW O   H1  H2  EPW O   H1  H2  EPW O   H1  
H2  EPW O   H1  H2  EPW O   H1  H2  EPW O   H1  H2  EPW O   H1  H2  EPW O   H1  
H2  EPW O   H1  H2  EPW O   H1  H2  EPW O   H1  H2  EPW O   H1  H2  EPW O   H1  
H2  EPW O   H1  H2  EPW O   H1  H2  EPW O   H1  H2  EPW O   H1  H2  EPW O   H1  
H2  EPW O   H1  H2  EPW O   H1  H2  EPW O   H1  H2  EPW O   H1  H2  EPW O   H1  
H2  EPW O   H1  H2  EPW O   H1  H2  EPW O   H1  H2  EPW O   H1  H2  EPW O   H1  
H2  EPW O   H1  H2  EPW O   H1  H2  EPW O   H1  H2  EPW O   H1  H2  EPW O   H1  
H2  EPW O   H1  H2  EPW O   H1  H2  EPW O   H1  H2  EPW O   H1  H2  EPW O   H1  
H2  EPW O   H1  H2  EPW O   H1  H2  EPW O   H1  H2  EPW O   H1  H2  EPW O   H1  
H2  EPW O   H1  H2  EPW O   H1  H2  EPW O   H1  H2  EPW O   H1  H2  EPW O   H1  
H2  EPW O   H1  H2  EPW O   H1  H2  EPW O   H1  H2  EPW O   H1  H2  EPW O   H1  
H2  EPW O   H1  H2  EPW O   H1  H2  EPW O   H1  H2  EPW O   H1  H2  EPW O   H1  
H2  EPW O   H1  H2  EPW O   H1  H2  EPW O   H1  H2  EPW O   H1  H2  EPW O   H1  
H2  EPW O   H1  H2  EPW O   H1  H2  EPW O   H1  H2  EPW O   H1  H2  EPW O   H1  
H2  EPW O   H1  H2  EPW O   H1  H2  EPW O   H1  H2  EPW O   H1  H2  EPW O   H1  
H2  EPW O   H1  H2  EPW O   H1  H2  EPW O   H1  H2  EPW O   H1  H2  EPW O   H1  
H2  EPW O   H1  H2  EPW O   H1  H2  EPW O   H1  H2  EPW O   H1  H2  EPW O   H1  
H2  EPW O   H1  H2  EPW O   H1  H2  EPW O   H1  H2  EPW O   H1  H2  EPW O   H1  
H2  EPW O   H1  H2  EPW O   H1  H2  EPW O   H1  H2  EPW O   H1  H2  EPW O   H1  
H2  EPW O   H1  H2  EPW O   H1  H2  EPW O   H1  H2  EPW O   H1  H2  EPW O   H1  
H2  EPW O   H1  H2  EPW O   H1  H2  EPW O   H1  H2  EPW O   H1  H2  EPW O   H1  
H2  EPW O   H1  H2  EPW O   H1  H2  EPW O   H1  H2  EPW O   H1  H2  EPW O   H1  
H2  EPW O   H1  H2  EPW O   H1  H2  EPW O   H1  H2  EPW O   H1  H2  EPW O   H1  
H2  EPW O   H1  H2  EPW O   H1  H2  EPW O   H1  H2  EPW O   H1  H2  EPW O   H1  
H2  EPW O   H1  H2  EPW O   H1  H2  EPW O   H1  H2  EPW O   H1  H2  EPW O   H1  
H2  EPW O   H1  H2  EPW O   H1  H2  EPW O   H1  H2  EPW O   H1  H2  EPW O   H1  
H2  EPW O   H1  H2  EPW O   H1  H2  EPW O   H1  H2  EPW O   H1  H2  EPW O   H1  
H2  EPW O   H1  H2  EPW O   H1  H2  EPW O   H1  H2  EPW O   H1  H2  EPW O   H1  
H2  EPW O   H1  H2  EPW O   H1  H2  EPW O   H1  H2  EPW O   H1  H2  EPW O   H1  
H2  EPW O   H1  H2  EPW O   H1  H2  EPW O   H1  H2  EPW O   H1  H2  EPW O   H1  
H2  EPW O   H1  H2  EPW O   H1  H2  EPW O   H1  H2  EPW O   H1  H2  EPW O   H1  
H2  EPW O   H1  H2  EPW O   H1  H2  EPW O   H1  H2  EPW O   H1  H2  EPW O   H1  
H2  EPW O   H1  H2  EPW O   H1  H2  EPW O   H1  H2  EPW O   H1  H2  EPW O   H1  
H2  EPW O   H1  H2  EPW O   H1  H2  EPW O   H1  H2  EPW O   H1  H2  EPW O   H1  
H2  EPW O   H1  H2  EPW O   H1  H2  EPW O   H1  H2  EPW O   H1  H2  EPW O   H1  
H2  EPW O   H1  H2  EPW O   H1  H2  EPW O   H1  H2  EPW O   H1  H2  EPW O   H1  
H2  EPW O   H1  H2  EPW O   H1  H2  EPW O   H1  H2  EPW O   H1  H2  EPW O   H1  
H2  EPW O   H1  H2  EPW O   H1  H2  EPW O   H1  H2  EPW O   H1  H2  EPW O   H1  
H2  EPW O   H1  H2  EPW O   H1  H2  EPW O   H1  H2  EPW O   H1  H2  EPW O   H1  
H2  EPW O   H1  H2  EPW O   H1  H2  EPW O   H1  H2  EPW O   H1  H2  EPW O   H1  
H2  EPW O   H1  H2  EPW O   H1  H2  EPW O   H1  H2  EPW O   H1  H2  EPW O   H1  
H2  EPW O   H1  H2  EPW O   H1  H2  EPW O   H1  H2  EPW O   H1  H2  EPW O   H1  
H2  EPW O   H1  H2  EPW O   H1  H2  EPW O   H1  H2  EPW O   H1  H2  EPW O   H1  
H2  EPW O   H1  H2  EPW O   H1  H2  EPW O   H1  H2  EPW O   H1  H2  EPW O   H1  
H2  EPW O   H1  H2  EPW O   H1  H2  EPW O   H1  H2  EPW O   H1  H2  EPW O   H1  
H2  EPW O   H1  H2  EPW O   H1  H2  EPW O   H1  H2  EPW O   H1  H2  EPW O   H1  
H2  EPW O   H1  H2  EPW O   H1  H2  EPW O   H1  H2  EPW O   H1  H2  EPW O   H1  
H2  EPW O   H1  H2  EPW O   H1  H2  EPW O   H1  H2  EPW O   H1  H2  EPW O   H1  
H2  EPW O   H1  H2  EPW O   H1  H2  EPW O   H1  H2  EPW O   H1  H2  EPW O   H1  
H2  EPW O   H1  H2  EPW O   H1  H2  EPW O   H1  H2  EPW O   H1  H2  EPW O   H1  
H2  EPW O   H1  H2  EPW O   H1  H2  EPW O   H1  H2  EPW O   H1  H2  EPW O   H1  
H2  EPW O   H1  H2  EPW O   H1  H2  EPW O   H1  H2  EPW O   H1  H2  EPW O   H1  
H2  EPW O   H1  H2  EPW O   H1  H2  EPW O   H1  H2  EPW O   H1  H2  EPW O   H1  
H2  EPW O   H1  H2  EPW O   H1  H2  EPW O   H1  H2  EPW O   H1  H2  EPW O   H1  
H2  EPW O   H1  H2  EPW O   H1  H2  EPW O   H1  H2  EPW O   H1  H2  EPW O   H1  
H2  EPW O   H1  H2  EPW O   H1  H2  EPW O   H1  H2  EPW O   H1  H2  EPW O   H1  
H2  EPW O   H1  H2  EPW O   H1  H2  EPW O   H1  H2  EPW O   H1  H2  EPW O   H1  
H2  EPW O   H1  H2  EPW O   H1  H2  EPW O   H1  H2  EPW O   H1  H2  EPW O   H1  
H2  EPW O   H1  H2  EPW O   H1  H2  EPW O   H1  H2  EPW O   H1  H2  EPW O   H1  
H2  EPW O   H1  H2  EPW O   H1  H2  EPW O   H1  H2  EPW O   H1  H2  EPW O   H1  
H2  EPW O   H1  H2  EPW O   H1  H2  EPW O   H1  H2  EPW O   H1  H2  EPW O   H1  
H2  EPW O   H1  H2  EPW O   H1  H2  EPW O   H1  H2  EPW O   H1  H2  EPW O   H1  
H2  EPW O   H1  H2  EPW O   H1  H2  EPW O   H1  H2  EPW O   H1  H2  EPW O   H1  
H2  EPW O   H1  H2  EPW O   H1  H2  EPW O   H1  H2  EPW O   H1  H2  EPW O   H1  
H2  EPW O   H1  H2  EPW O   H1  H2  EPW O   H1  H2  EPW O   H1  H2  EPW O   H1  
H2  EPW O   H1  H2  EPW O   H1  H2  EPW O   H1  H2  EPW O   H1  H2  EPW O   H1  
H2  EPW O   H1  H2  EPW O   H1  H2  EPW O   H1  H2  EPW O   H1  H2  EPW O   H1  
H2  EPW O   H1  H2  EPW O   H1  H2  EPW O   H1  H2  EPW O   H1  H2  EPW O   H1  
H2  EPW O   H1  H2  EPW O   H1  H2  EPW O   H1  H2  EPW O   H1  H2  EPW O   H1  
H2  EPW O   H1  H2  EPW O   H1  H2  EPW O   H1  H2  EPW O   H1  H2  EPW O   H1  
H2  EPW O   H1  H2  EPW O   H1  H2  EPW O   H1  H2  EPW O   H1  H2  EPW O   H1  
H2  EPW O   H1  H2  EPW O   H1  H2  EPW O   H1  H2  EPW O   H1  H2  EPW O   H1  
H2  EPW O   H1  H2  EPW O   H1  H2  EPW O   H1  H2  EPW O   H1  H2  EPW O   H1  
H2  EPW O   H1  H2  EPW O   H1  H2  EPW O   H1  H2  EPW O   H1  H2  EPW O   H1  
H2  EPW O   H1  H2  EPW O   H1  H2  EPW O   H1  H2  EPW O   H1  H2  EPW O   H1  
H2  EPW O   H1  H2  EPW O   H1  H2  EPW O   H1  H2  EPW O   H1  H2  EPW O   H1  
H2  EPW O   H1  H2  EPW O   H1  H2  EPW O   H1  H2  EPW O   H1  H2  EPW O   H1  
H2  EPW O   H1  H2  EPW O   H1  H2  EPW O   H1  H2  EPW O   H1  H2  EPW O   H1  
H2  EPW O   H1  H2  EPW O   H1  H2  EPW O   H1  H2  EPW O   H1  H2  EPW O   H1  
H2  EPW O   H1  H2  EPW O   H1  H2  EPW O   H1  H2  EPW O   H1  H2  EPW O   H1  
H2  EPW O   H1  H2  EPW O   H1  H2  EPW O   H1  H2  EPW O   H1  H2  EPW O   H1  
H2  EPW O   H1  H2  EPW O   H1  H2  EPW O   H1  H2  EPW O   H1  H2  EPW O   H1  
H2  EPW O   H1  H2  EPW O   H1  H2  EPW O   H1  H2  EPW O   H1  H2  EPW O   H1  
H2  EPW O   H1  H2  EPW O   H1  H2  EPW O   H1  H2  EPW O   H1  H2  EPW O   H1  
H2  EPW O   H1  H2  EPW O   H1  H2  EPW O   H1  H2  EPW O   H1  H2  EPW O   H1  
H2  EPW O   H1  H2  EPW O   H1  H2  EPW O   H1  H2  EPW O   H1  H2  EPW O   H1  
H2  EPW O   H1  H2  EPW O   H1  H2  EPW O   H1  H2  EPW O   H1  H2  EPW O   H1  
H2  EPW O   H1  H2  EPW O   H1  H2  EPW O   H1  H2  EPW O   H1  H2  EPW O   H1  
H2  EPW O   H1  H2  EPW O   H1  H2  EPW O   H1  H2  EPW O   H1  H2  EPW O   H1  
H2  EPW O   H1  H2  EPW O   H1  H2  EPW O   H1  H2  EPW O   H1  H2  EPW O   H1  
H2  EPW O   H1  H2  EPW O   H1  H2  EPW O   H1  H2  EPW O   H1  H2  EPW O   H1  
H2  EPW O   H1  H2  EPW O   H1  H2  EPW O   H1  H2  EPW O   H1  H2  EPW O   H1  
H2  EPW O   H1  H2  EPW O   H1  H2  EPW O   H1  H2  EPW O   H1  H2  EPW O   H1  
H2  EPW O   H1  H2  EPW O   H1  H2  EPW O   H1  H2  EPW O   H1  H2  EPW O   H1  
H2  EPW O   H1  H2  EPW O   H1  H2  EPW O   H1  H2  EPW O   H1  H2  EPW O   H1  
H2  EPW O   H1  H2  EPW O   H1  H2  EPW O   H1  H2  EPW O   H1  H2  EPW O   H1  
H2  EPW O   H1  H2  EPW O   H1  H2  EPW O   H1  H2  EPW O   H1  H2  EPW O   H1  
H2  EPW O   H1  H2  EPW O   H1  H2  EPW O   H1  H2  EPW O   H1  H2  EPW O   H1  
H2  EPW O   H1  H2  EPW O   H1  H2  EPW O   H1  H2  EPW O   H1  H2  EPW O   H1  
H2  EPW O   H1  H2  EPW O   H1  H2  EPW O   H1  H2  EPW O   H1  H2  EPW O   H1  
H2  EPW O   H1  H2  EPW O   H1  H2  EPW O   H1  H2  EPW O   H1  H2  EPW O   H1  
H2  EPW O   H1  H2  EPW O   H1  H2  EPW O   H1  H2  EPW O   H1  H2  EPW O   H1  
H2  EPW O   H1  H2  EPW O   H1  H2  EPW O   H1  H2  EPW O   H1  H2  EPW O   H1  
H2  EPW O   H1  H2  EPW O   H1  H2  EPW O   H1  H2  EPW O   H1  H2  EPW O   H1  
H2  EPW O   H1  H2  EPW O   H1  H2  EPW O   H1  H2  EPW O   H1  H2  EPW O   H1  
H2  EPW O   H1  H2  EPW O   H1  H2  EPW O   H1  H2  EPW O   H1  H2  EPW O   H1  
H2  EPW O   H1  H2  EPW O   H1  H2  EPW O   H1  H2  EPW O   H1  H2  EPW O   H1  
H2  EPW O   H1  H2  EPW O   H1  H2  EPW O   H1  H2  EPW O   H1  H2  EPW O   H1  
H2  EPW O   H1  H2  EPW O   H1  H2  EPW O   H1  H2  EPW O   H1  H2  EPW O   H1  
H2  EPW O   H1  H2  EPW O   H1  H2  EPW O   H1  H2  EPW O   H1  H2  EPW O   H1  
H2  EPW O   H1  H2  EPW O   H1  H2  EPW O   H1  H2  EPW O   H1  H2  EPW O   H1  
H2  EPW O   H1  H2  EPW O   H1  H2  EPW O   H1  H2  EPW O   H1  H2  EPW O   H1  
H2  EPW O   H1  H2  EPW O   H1  H2  EPW O   H1  H2  EPW O   H1  H2  EPW O   H1  
H2  EPW O   H1  H2  EPW O   H1  H2  EPW O   H1  H2  EPW O   H1  H2  EPW O   H1  
H2  EPW O   H1  H2  EPW O   H1  H2  EPW O   H1  H2  EPW O   H1  H2  EPW O   H1  
H2  EPW O   H1  H2  EPW O   H1  H2  EPW O   H1  H2  EPW O   H1  H2  EPW O   H1  
H2  EPW O   H1  H2  EPW O   H1  H2  EPW O   H1  H2  EPW O   H1  H2  EPW O   H1  
H2  EPW O   H1  H2  EPW O   H1  H2  EPW O   H1  H2  EPW O   H1  H2  EPW O   H1  
H2  EPW O   H1  H2  EPW O   H1  H2  EPW O   H1  H2  EPW O   H1  H2  EPW O   H1  
H2  EPW O   H1  H2  EPW O   H1  H2  EPW O   H1  H2  EPW O   H1  H2  EPW O   H1  
H2  EPW O   H1  H2  EPW O   H1  H2  EPW O   H1  H2  EPW O   H1  H2  EPW O   H1  
H2  EPW O   H1  H2  EPW O   H1  H2  EPW O   H1  H2  EPW O   H1  H2  EPW O   H1  
H2  EPW O   H1  H2  EPW O   H1  H2  EPW O   H1  H2  EPW O   H1  H2  EPW O   H1  
H2  EPW O   H1  H2  EPW O   H1  H2  EPW O   H1  H2  EPW O   H1  H2  EPW O   H1  
H2  EPW O   H1  H2  EPW O   H1  H2  EPW O   H1  H2  EPW O   H1  H2  EPW O   H1  
H2  EPW O   H1  H2  EPW O   H1  H2  EPW O   H1  H2  EPW O   H1  H2  EPW O   H1  
H2  EPW O   H1  H2  EPW O   H1  H2  EPW O   H1  H2  EPW O   H1  H2  EPW O   H1  
H2  EPW O   H1  H2  EPW O   H1  H2  EPW O   H1  H2  EPW O   H1  H2  EPW O   H1  
H2  EPW O   H1  H2  EPW O   H1  H2  EPW O   H1  H2  EPW O   H1  H2  EPW O   H1  
H2  EPW O   H1  H2  EPW O   H1  H2  EPW O   H1  H2  EPW O   H1  H2  EPW O   H1  
H2  EPW O   H1  H2  EPW O   H1  H2  EPW O   H1  H2  EPW O   H1  H2  EPW O   H1  
H2  EPW O   H1  H2  EPW O   H1  H2  EPW O   H1  H2  EPW O   H1  H2  EPW O   H1  
H2  EPW O   H1  H2  EPW O   H1  H2  EPW O   H1  H2  EPW O   H1  H2  EPW O   H1  
H2  EPW O   H1  H2  EPW O   H1  H2  EPW O   H1  H2  EPW O   H1  H2  EPW O   H1  
H2  EPW O   H1  H2  EPW O   H1  H2  EPW O   H1  H2  EPW O   H1  H2  EPW O   H1  
H2  EPW O   H1  H2  EPW O   H1  H2  EPW O   H1  H2  EPW O   H1  H2  EPW O   H1  
H2  EPW O   H1  H2  EPW O   H1  H2  EPW O   H1  H2  EPW O   H1  H2  EPW O   H1  
H2  EPW O   H1  H2  EPW O   H1  H2  EPW O   H1  H2  EPW O   H1  H2  EPW O   H1  
H2  EPW O   H1  H2  EPW O   H1  H2  EPW O   H1  H2  EPW O   H1  H2  EPW O   H1  
H2  EPW O   H1  H2  EPW O   H1  H2  EPW O   H1  H2  EPW O   H1  H2  EPW O   H1  
H2  EPW O   H1  H2  EPW O   H1  H2  EPW O   H1  H2  EPW O   H1  H2  EPW O   H1  
H2  EPW O   H1  H2  EPW O   H1  H2  EPW O   H1  H2  EPW O   H1  H2  EPW O   H1  
H2  EPW O   H1  H2  EPW O   H1  H2  EPW O   H1  H2  EPW O   H1  H2  EPW O   H1  
H2  EPW O   H1  H2  EPW O   H1  H2  EPW O   H1  H2  EPW O   H1  H2  EPW O   H1  
H2  EPW O   H1  H2  EPW O   H1  H2  EPW O   H1  H2  EPW O   H1  H2  EPW O   H1  
H2  EPW O   H1  H2  EPW O   H1  H2  EPW O   H1  H2  EPW O   H1  H2  EPW O   H1  
H2  EPW O   H1  H2  EPW O   H1  H2  EPW O   H1  H2  EPW O   H1  H2  EPW O   H1  
H2  EPW O   H1  H2  EPW O   H1  H2  EPW O   H1  H2  EPW O   H1  H2  EPW O   H1  
H2  EPW O   H1  H2  EPW O   H1  H2  EPW O   H1  H2  EPW O   H1  H2  EPW O   H1  
H2  EPW O   H1  H2  EPW O   H1  H2  EPW O   H1  H2  EPW O   H1  H2  EPW O   H1  
H2  EPW O   H1  H2  EPW O   H1  H2  EPW O   H1  H2  EPW O   H1  H2  EPW O   H1  
H2  EPW O   H1  H2  EPW O   H1  H2  EPW O   H1  H2  EPW O   H1  H2  EPW O   H1  
H2  EPW O   H1  H2  EPW O   H1  H2  EPW O   H1  H2  EPW O   H1  H2  EPW O   H1  
H2  EPW O   H1  H2  EPW O   H1  H2  EPW O   H1  H2  EPW O   H1  H2  EPW O   H1  
H2  EPW O   H1  H2  EPW O   H1  H2  EPW O   H1  H2  EPW O   H1  H2  EPW O   H1  
H2  EPW O   H1  H2  EPW O   H1  H2  EPW O   H1  H2  EPW O   H1  H2  EPW O   H1  
H2  EPW O   H1  H2  EPW O   H1  H2  EPW O   H1  H2  EPW O   H1  H2  EPW O   H1  
H2  EPW O   H1  H2  EPW O   H1  H2  EPW O   H1  H2  EPW O   H1  H2  EPW O   H1  
H2  EPW O   H1  H2  EPW O   H1  H2  EPW O   H1  H2  EPW O   H1  H2  EPW O   H1  
H2  EPW O   H1  H2  EPW O   H1  H2  EPW O   H1  H2  EPW O   H1  H2  EPW O   H1  
H2  EPW O   H1  H2  EPW O   H1  H2  EPW O   H1  H2  EPW O   H1  H2  EPW O   H1  
H2  EPW O   H1  H2  EPW O   H1  H2  EPW O   H1  H2  EPW O   H1  H2  EPW O   H1  
H2  EPW O   H1  H2  EPW O   H1  H2  EPW O   H1  H2  EPW O   H1  H2  EPW O   H1  
H2  EPW O   H1  H2  EPW O   H1  H2  EPW O   H1  H2  EPW O   H1  H2  EPW O   H1  
H2  EPW O   H1  H2  EPW O   H1  H2  EPW O   H1  H2  EPW O   H1  H2  EPW O   H1  
H2  EPW O   H1  H2  EPW O   H1  H2  EPW O   H1  H2  EPW O   H1  H2  EPW O   H1  
H2  EPW O   H1  H2  EPW O   H1  H2  EPW O   H1  H2  EPW O   H1  H2  EPW O   H1  
H2  EPW O   H1  H2  EPW O   H1  H2  EPW O   H1  H2  EPW O   H1  H2  EPW O   H1  
H2  EPW O   H1  H2  EPW O   H1  H2  EPW O   H1  H2  EPW O   H1  H2  EPW O   H1  
H2  EPW O   H1  H2  EPW O   H1  H2  EPW O   H1  H2  EPW O   H1  H2  EPW O   H1  
H2  EPW O   H1  H2  EPW O   H1  H2  EPW O   H1  H2  EPW O   H1  H2  EPW O   H1  
H2  EPW O   H1  H2  EPW O   H1  H2  EPW O   H1  H2  EPW O   H1  H2  EPW O   H1  
H2  EPW O   H1  H2  EPW O   H1  H2  EPW O   H1  H2  EPW O   H1  H2  EPW O   H1  
H2  EPW O   H1  H2  EPW O   H1  H2  EPW O   H1  H2  EPW O   H1  H2  EPW O   H1  
H2  EPW O   H1  H2  EPW O   H1  H2  EPW O   H1  H2  EPW O   H1  H2  EPW O   H1  
H2  EPW O   H1  H2  EPW O   H1  H2  EPW O   H1  H2  EPW O   H1  H2  EPW O   H1  
H2  EPW O   H1  H2  EPW O   H1  H2  EPW O   H1  H2  EPW O   H1  H2  EPW O   H1  
H2  EPW O   H1  H2  EPW O   H1  H2  EPW O   H1  H2  EPW O   H1  H2  EPW O   H1  
H2  EPW O   H1  H2  EPW O   H1  H2  EPW O   H1  H2  EPW O   H1  H2  EPW O   H1  
H2  EPW O   H1  H2  EPW O   H1  H2  EPW O   H1  H2  EPW O   H1  H2  EPW O   H1  
H2  EPW O   H1  H2  EPW O   H1  H2  EPW O   H1  H2  EPW O   H1  H2  EPW O   H1  
H2  EPW O   H1  H2  EPW O   H1  H2  EPW O   H1  H2  EPW O   H1  H2  EPW O   H1  
H2  EPW O   H1  H2  EPW O   H1  H2  EPW O   H1  H2  EPW O   H1  H2  EPW O   H1  
H2  EPW O   H1  H2  EPW O   H1  H2  EPW O   H1  H2  EPW O   H1  H2  EPW O   H1  
H2  EPW O   H1  H2  EPW O   H1  H2  EPW O   H1  H2  EPW O   H1  H2  EPW O   H1  
H2  EPW O   H1  H2  EPW O   H1  H2  EPW O   H1  H2  EPW O   H1  H2  EPW O   H1  
H2  EPW O   H1  H2  EPW O   H1  H2  EPW O   H1  H2  EPW O   H1  H2  EPW O   H1  
H2  EPW O   H1  H2  EPW O   H1  H2  EPW O   H1  H2  EPW O   H1  H2  EPW O   H1  
H2  EPW O   H1  H2  EPW O   H1  H2  EPW O   H1  H2  EPW O   H1  H2  EPW O   H1  
H2  EPW O   H1  H2  EPW O   H1  H2  EPW O   H1  H2  EPW O   H1  H2  EPW O   H1  
H2  EPW O   H1  H2  EPW O   H1  H2  EPW O   H1  H2  EPW O   H1  H2  EPW O   H1  
H2  EPW O   H1  H2  EPW O   H1  H2  EPW O   H1  H2  EPW O   H1  H2  EPW O   H1  
H2  EPW O   H1  H2  EPW O   H1  H2  EPW O   H1  H2  EPW O   H1  H2  EPW O   H1  
H2  EPW O   H1  H2  EPW O   H1  H2  EPW O   H1  H2  EPW O   H1  H2  EPW O   H1  
H2  EPW O   H1  H2  EPW O   H1  H2  EPW O   H1  H2  EPW O   H1  H2  EPW O   H1  
H2  EPW O   H1  H2  EPW O   H1  H2  EPW O   H1  H2  EPW O   H1  H2  EPW O   H1  
H2  EPW O   H1  H2  EPW O   H1  H2  EPW O   H1  H2  EPW O   H1  H2  EPW O   H1  
H2  EPW O   H1  H2  EPW O   H1  H2  EPW O   H1  H2  EPW O   H1  H2  EPW O   H1  
H2  EPW O   H1  H2  EPW O   H1  H2  EPW O   H1  H2  EPW O   H1  H2  EPW O   H1  
H2  EPW O   H1  H2  EPW O   H1  H2  EPW O   H1  H2  EPW O   H1  H2  EPW O   H1  
H2  EPW O   H1  H2  EPW O   H1  H2  EPW O   H1  H2  EPW O   H1  H2  EPW O   H1  
H2  EPW O   H1  H2  EPW O   H1  H2  EPW O   H1  H2  EPW O   H1  H2  EPW O   H1  
H2  EPW O   H1  H2  EPW O   H1  H2  EPW O   H1  H2  EPW O   H1  H2  EPW O   H1  
H2  EPW O   H1  H2  EPW O   H1  H2  EPW O   H1  H2  EPW O   H1  H2  EPW O   H1  
H2  EPW O   H1  H2  EPW O   H1  H2  EPW O   H1  H2  EPW O   H1  H2  EPW O   H1  
H2  EPW O   H1  H2  EPW O   H1  H2  EPW O   H1  H2  EPW O   H1  H2  EPW O   H1  
H2  EPW O   H1  H2  EPW O   H1  H2  EPW O   H1  H2  EPW O   H1  H2  EPW O   H1  
H2  EPW O   H1  H2  EPW O   H1  H2  EPW O   H1  H2  EPW O   H1  H2  EPW O   H1  
H2  EPW O   H1  H2  EPW O   H1  H2  EPW O   H1  H2  EPW O   H1  H2  EPW O   H1  
H2  EPW O   H1  H2  EPW O   H1  H2  EPW O   H1  H2  EPW O   H1  H2  EPW O   H1  
H2  EPW O   H1  H2  EPW O   H1  H2  EPW O   H1  H2  EPW O   H1  H2  EPW O   H1  
H2  EPW O   H1  H2  EPW O   H1  H2  EPW O   H1  H2  EPW O   H1  H2  EPW O   H1  
H2  EPW O   H1  H2  EPW O   H1  H2  EPW O   H1  H2  EPW O   H1  H2  EPW O   H1  
H2  EPW O   H1  H2  EPW O   H1  H2  EPW O   H1  H2  EPW O   H1  H2  EPW O   H1  
H2  EPW O   H1  H2  EPW O   H1  H2  EPW O   H1  H2  EPW O   H1  H2  EPW O   H1  
H2  EPW O   H1  H2  EPW O   H1  H2  EPW O   H1  H2  EPW O   H1  H2  EPW O   H1  
H2  EPW O   H1  H2  EPW O   H1  H2  EPW O   H1  H2  EPW O   H1  H2  EPW O   H1  
H2  EPW O   H1  H2  EPW O   H1  H2  EPW O   H1  H2  EPW O   H1  H2  EPW O   H1  
H2  EPW O   H1  H2  EPW O   H1  H2  EPW O   H1  H2  EPW O   H1  H2  EPW O   H1  
H2  EPW O   H1  H2  EPW O   H1  H2  EPW O   H1  H2  EPW O   H1  H2  EPW O   H1  
H2  EPW O   H1  H2  EPW O   H1  H2  EPW O   H1  H2  EPW O   H1  H2  EPW O   H1  
H2  EPW O   H1  H2  EPW O   H1  H2  EPW O   H1  H2  EPW O   H1  H2  EPW O   H1  
H2  EPW O   H1  H2  EPW O   H1  H2  EPW O   H1  H2  EPW O   H1  H2  EPW O   H1  
H2  EPW O   H1  H2  EPW O   H1  H2  EPW O   H1  H2  EPW O   H1  H2  EPW O   H1  
H2  EPW O   H1  H2  EPW O   H1  H2  EPW O   H1  H2  EPW O   H1  H2  EPW O   H1  
H2  EPW O   H1  H2  EPW O   H1  H2  EPW O   H1  H2  EPW O   H1  H2  EPW O   H1  
H2  EPW O   H1  H2  EPW O   H1  H2  EPW O   H1  H2  EPW O   H1  H2  EPW O   H1  
H2  EPW O   H1  H2  EPW O   H1  H2  EPW O   H1  H2  EPW O   H1  H2  EPW O   H1  
H2  EPW O   H1  H2  EPW O   H1  H2  EPW O   H1  H2  EPW O   H1  H2  EPW O   H1  
H2  EPW O   H1  H2  EPW O   H1  H2  EPW O   H1  H2  EPW O   H1  H2  EPW O   H1  
H2  EPW O   H1  H2  EPW O   H1  H2  EPW O   H1  H2  EPW O   H1  H2  EPW O   H1  
H2  EPW O   H1  H2  EPW O   H1  H2  EPW O   H1  H2  EPW O   H1  H2  EPW O   H1  
H2  EPW O   H1  H2  EPW O   H1  H2  EPW O   H1  H2  EPW O   H1  H2  EPW O   H1  
H2  EPW O   H1  H2  EPW O   H1  H2  EPW O   H1  H2  EPW O   H1  H2  EPW O   H1  
H2  EPW O   H1  H2  EPW O   H1  H2  EPW O   H1  H2  EPW O   H1  H2  EPW O   H1  
H2  EPW O   H1  H2  EPW O   H1  H2  EPW O   H1  H2  EPW O   H1  H2  EPW O   H1  
H2  EPW O   H1  H2  EPW O   H1  H2  EPW O   H1  H2  EPW O   H1  H2  EPW O   H1  
H2  EPW O   H1  H2  EPW O   H1  H2  EPW O   H1  H2  EPW O   H1  H2  EPW O   H1  
H2  EPW O   H1  H2  EPW O   H1  H2  EPW O   H1  H2  EPW O   H1  H2  EPW O   H1  
H2  EPW O   H1  H2  EPW O   H1  H2  EPW O   H1  H2  EPW O   H1  H2  EPW O   H1  
H2  EPW O   H1  H2  EPW O   H1  H2  EPW O   H1  H2  EPW O   H1  H2  EPW O   H1  
H2  EPW O   H1  H2  EPW O   H1  H2  EPW O   H1  H2  EPW O   H1  H2  EPW O   H1  
H2  EPW O   H1  H2  EPW O   H1  H2  EPW O   H1  H2  EPW O   H1  H2  EPW O   H1  
H2  EPW O   H1  H2  EPW O   H1  H2  EPW O   H1  H2  EPW O   H1  H2  EPW O   H1  
H2  EPW O   H1  H2  EPW O   H1  H2  EPW O   H1  H2  EPW O   H1  H2  EPW O   H1  
H2  EPW O   H1  H2  EPW O   H1  H2  EPW O   H1  H2  EPW O   H1  H2  EPW O   H1  
H2  EPW O   H1  H2  EPW O   H1  H2  EPW O   H1  H2  EPW O   H1  H2  EPW O   H1  
H2  EPW O   H1  H2  EPW O   H1  H2  EPW O   H1  H2  EPW O   H1  H2  EPW O   H1  
H2  EPW O   H1  H2  EPW O   H1  H2  EPW O   H1  H2  EPW O   H1  H2  EPW O   H1  
H2  EPW O   H1  H2  EPW O   H1  H2  EPW O   H1  H2  EPW O   H1  H2  EPW O   H1  
H2  EPW O   H1  H2  EPW O   H1  H2  EPW O   H1  H2  EPW O   H1  H2  EPW O   H1  
H2  EPW O   H1  H2  EPW O   H1  H2  EPW O   H1  H2  EPW O   H1  H2  EPW O   H1  
H2  EPW O   H1  H2  EPW O   H1  H2  EPW O   H1  H2  EPW O   H1  H2  EPW O   H1  
H2  EPW O   H1  H2  EPW O   H1  H2  EPW O   H1  H2  EPW O   H1  H2  EPW O   H1  
H2  EPW O   H1  H2  EPW O   H1  H2  EPW O   H1  H2  EPW O   H1  H2  EPW O   H1  
H2  EPW O   H1  H2  EPW O   H1  H2  EPW O   H1  H2  EPW O   H1  H2  EPW O   H1  
H2  EPW O   H1  H2  EPW O   H1  H2  EPW O   H1  H2  EPW O   H1  H2  EPW O   H1  
H2  EPW O   H1  H2  EPW O   H1  H2  EPW O   H1  H2  EPW O   H1  H2  EPW O   H1  
H2  EPW O   H1  H2  EPW O   H1  H2  EPW O   H1  H2  EPW O   H1  H2  EPW O   H1  
H2  EPW O   H1  H2  EPW O   H1  H2  EPW O   H1  H2  EPW O   H1  H2  EPW O   H1  
H2  EPW O   H1  H2  EPW O   H1  H2  EPW O   H1  H2  EPW O   H1  H2  EPW O   H1  
H2  EPW O   H1  H2  EPW O   H1  H2  EPW O   H1  H2  EPW O   H1  H2  EPW O   H1  
H2  EPW O   H1  H2  EPW O   H1  H2  EPW O   H1  H2  EPW O   H1  H2  EPW O   H1  
H2  EPW O   H1  H2  EPW O   H1  H2  EPW O   H1  H2  EPW O   H1  H2  EPW O   H1  
H2  EPW O   H1  H2  EPW O   H1  H2  EPW O   H1  H2  EPW O   H1  H2  EPW O   H1  
H2  EPW O   H1  H2  EPW O   H1  H2  EPW O   H1  H2  EPW O   H1  H2  EPW O   H1  
H2  EPW O   H1  H2  EPW O   H1  H2  EPW O   H1  H2  EPW O   H1  H2  EPW O   H1  
H2  EPW O   H1  H2  EPW O   H1  H2  EPW O   H1  H2  EPW O   H1  H2  EPW O   H1  
H2  EPW O   H1  H2  EPW O   H1  H2  EPW O   H1  H2  EPW O   H1  H2  EPW O   H1  
H2  EPW O   H1  H2  EPW O   H1  H2  EPW O   H1  H2  EPW O   H1  H2  EPW O   H1  
H2  EPW O   H1  H2  EPW O   H1  H2  EPW O   H1  H2  EPW O   H1  H2  EPW O   H1  
H2  EPW O   H1  H2  EPW O   H1  H2  EPW O   H1  H2  EPW O   H1  H2  EPW O   H1  
H2  EPW O   H1  H2  EPW O   H1  H2  EPW O   H1  H2  EPW O   H1  H2  EPW O   H1  
H2  EPW O   H1  H2  EPW O   H1  H2  EPW O   H1  H2  EPW O   H1  H2  EPW O   H1  
H2  EPW O   H1  H2  EPW O   H1  H2  EPW O   H1  H2  EPW O   H1  H2  EPW O   H1  
H2  EPW O   H1  H2  EPW O   H1  H2  EPW O   H1  H2  EPW O   H1  H2  EPW O   H1  
H2  EPW O   H1  H2  EPW O   H1  H2  EPW O   H1  H2  EPW O   H1  H2  EPW O   H1  
H2  EPW O   H1  H2  EPW O   H1  H2  EPW O   H1  H2  EPW O   H1  H2  EPW O   H1  
H2  EPW O   H1  H2  EPW O   H1  H2  EPW O   H1  H2  EPW O   H1  H2  EPW O   H1  
H2  EPW O   H1  H2  EPW O   H1  H2  EPW O   H1  H2  EPW O   H1  H2  EPW O   H1  
H2  EPW O   H1  H2  EPW O   H1  H2  EPW O   H1  H2  EPW O   H1  H2  EPW O   H1  
H2  EPW O   H1  H2  EPW O   H1  H2  EPW O   H1  H2  EPW O   H1  H2  EPW O   H1  
H2  EPW O   H1  H2  EPW O   H1  H2  EPW O   H1  H2  EPW O   H1  H2  EPW O   H1  
H2  EPW O   H1  H2  EPW O   H1  H2  EPW O   H1  H2  EPW O   H1  H2  EPW O   H1  
H2  EPW O   H1  H2  EPW O   H1  H2  EPW O   H1  H2  EPW O   H1  H2  EPW O   H1  
H2  EPW O   H1  H2  EPW O   H1  H2  EPW O   H1  H2  EPW O   H1  H2  EPW O   H1  
H2  EPW O   H1  H2  EPW O   H1  H2  EPW O   H1  H2  EPW O   H1  H2  EPW O   H1  
H2  EPW O   H1  H2  EPW O   H1  H2  EPW O   H1  H2  EPW O   H1  H2  EPW O   H1  
H2  EPW O   H1  H2  EPW O   H1  H2  EPW O   H1  H2  EPW O   H1  H2  EPW O   H1  
H2  EPW O   H1  H2  EPW O   H1  H2  EPW O   H1  H2  EPW O   H1  H2  EPW O   H1  
H2  EPW O   H1  H2  EPW O   H1  H2  EPW O   H1  H2  EPW O   H1  H2  EPW O   H1  
H2  EPW O   H1  H2  EPW O   H1  H2  EPW O   H1  H2  EPW O   H1  H2  EPW O   H1  
H2  EPW O   H1  H2  EPW O   H1  H2  EPW O   H1  H2  EPW O   H1  H2  EPW O   H1  
H2  EPW O   H1  H2  EPW O   H1  H2  EPW O   H1  H2  EPW O   H1  H2  EPW O   H1  
H2  EPW O   H1  H2  EPW O   H1  H2  EPW O   H1  H2  EPW O   H1  H2  EPW O   H1  
H2  EPW O   H1  H2  EPW O   H1  H2  EPW O   H1  H2  EPW O   H1  H2  EPW O   H1  
H2  EPW O   H1  H2  EPW O   H1  H2  EPW O   H1  H2  EPW O   H1  H2  EPW O   H1  
H2  EPW O   H1  H2  EPW O   H1  H2  EPW O   H1  H2  EPW O   H1  H2  EPW O   H1  
H2  EPW O   H1  H2  EPW O   H1  H2  EPW O   H1  H2  EPW O   H1  H2  EPW O   H1  
H2  EPW O   H1  H2  EPW O   H1  H2  EPW O   H1  H2  EPW O   H1  H2  EPW O   H1  
H2  EPW O   H1  H2  EPW O   H1  H2  EPW O   H1  H2  EPW O   H1  H2  EPW O   H1  
H2  EPW O   H1  H2  EPW O   H1  H2  EPW O   H1  H2  EPW O   H1  H2  EPW O   H1  
H2  EPW O   H1  H2  EPW O   H1  H2  EPW O   H1  H2  EPW O   H1  H2  EPW O   H1  
H2  EPW O   H1  H2  EPW O   H1  H2  EPW O   H1  H2  EPW O   H1  H2  EPW O   H1  
H2  EPW O   H1  H2  EPW O   H1  H2  EPW O   H1  H2  EPW O   H1  H2  EPW O   H1  
H2  EPW O   H1  H2  EPW O   H1  H2  EPW O   H1  H2  EPW O   H1  H2  EPW O   H1  
H2  EPW O   H1  H2  EPW O   H1  H2  EPW O   H1  H2  EPW O   H1  H2  EPW O   H1  
H2  EPW O   H1  H2  EPW O   H1  H2  EPW O   H1  H2  EPW O   H1  H2  EPW O   H1  
H2  EPW O   H1  H2  EPW O   H1  H2  EPW O   H1  H2  EPW O   H1  H2  EPW O   H1  
H2  EPW O   H1  H2  EPW O   H1  H2  EPW O   H1  H2  EPW O   H1  H2  EPW O   H1  
H2  EPW O   H1  H2  EPW O   H1  H2  EPW O   H1  H2  EPW O   H1  H2  EPW O   H1  
H2  EPW O   H1  H2  EPW O   H1  H2  EPW O   H1  H2  EPW O   H1  H2  EPW O   H1  
H2  EPW O   H1  H2  EPW O   H1  H2  EPW O   H1  H2  EPW O   H1  H2  EPW O   H1  
H2  EPW O   H1  H2  EPW O   H1  H2  EPW O   H1  H2  EPW O   H1  H2  EPW O   H1  
H2  EPW O   H1  H2  EPW O   H1  H2  EPW O   H1  H2  EPW O   H1  H2  EPW O   H1  
H2  EPW O   H1  H2  EPW O   H1  H2  EPW O   H1  H2  EPW O   H1  H2  EPW O   H1  
H2  EPW O   H1  H2  EPW O   H1  H2  EPW O   H1  H2  EPW O   H1  H2  EPW O   H1  
H2  EPW O   H1  H2  EPW O   H1  H2  EPW O   H1  H2  EPW O   H1  H2  EPW O   H1  
H2  EPW O   H1  H2  EPW O   H1  H2  EPW O   H1  H2  EPW O   H1  H2  EPW O   H1  
H2  EPW O   H1  H2  EPW O   H1  H2  EPW O   H1  H2  EPW O   H1  H2  EPW O   H1  
H2  EPW O   H1  H2  EPW O   H1  H2  EPW O   H1  H2  EPW O   H1  H2  EPW O   H1  
H2  EPW O   H1  H2  EPW O   H1  H2  EPW O   H1  H2  EPW O   H1  H2  EPW O   H1  
H2  EPW O   H1  H2  EPW O   H1  H2  EPW O   H1  H2  EPW O   H1  H2  EPW O   H1  
H2  EPW O   H1  H2  EPW O   H1  H2  EPW O   H1  H2  EPW O   H1  H2  EPW O   H1  
H2  EPW O   H1  H2  EPW O   H1  H2  EPW O   H1  H2  EPW O   H1  H2  EPW O   H1  
H2  EPW O   H1  H2  EPW O   H1  H2  EPW O   H1  H2  EPW O   H1  H2  EPW O   H1  
H2  EPW O   H1  H2  EPW O   H1  H2  EPW O   H1  H2  EPW O   H1  H2  EPW O   H1  
H2  EPW O   H1  H2  EPW O   H1  H2  EPW O   H1  H2  EPW O   H1  H2  EPW O   H1  
H2  EPW O   H1  H2  EPW O   H1  H2  EPW O   H1  H2  EPW O   H1  H2  EPW O   H1  
H2  EPW O   H1  H2  EPW O   H1  H2  EPW O   H1  H2  EPW O   H1  H2  EPW O   H1  
H2  EPW O   H1  H2  EPW O   H1  H2  EPW O   H1  H2  EPW O   H1  H2  EPW O   H1  
H2  EPW O   H1  H2  EPW O   H1  H2  EPW O   H1  H2  EPW O   H1  H2  EPW O   H1  
H2  EPW O   H1  H2  EPW O   H1  H2  EPW O   H1  H2  EPW O   H1  H2  EPW O   H1  
H2  EPW O   H1  H2  EPW O   H1  H2  EPW O   H1  H2  EPW O   H1  H2  EPW O   H1  
H2  EPW O   H1  H2  EPW O   H1  H2  EPW O   H1  H2  EPW O   H1  H2  EPW O   H1  
H2  EPW O   H1  H2  EPW O   H1  H2  EPW O   H1  H2  EPW O   H1  H2  EPW O   H1  
H2  EPW O   H1  H2  EPW O   H1  H2  EPW O   H1  H2  EPW O   H1  H2  EPW O   H1  
H2  EPW O   H1  H2  EPW O   H1  H2  EPW O   H1  H2  EPW O   H1  H2  EPW O   H1  
H2  EPW O   H1  H2  EPW O   H1  H2  EPW O   H1  H2  EPW O   H1  H2  EPW O   H1  
H2  EPW O   H1  H2  EPW O   H1  H2  EPW O   H1  H2  EPW O   H1  H2  EPW O   H1  
H2  EPW O   H1  H2  EPW O   H1  H2  EPW O   H1  H2  EPW O   H1  H2  EPW O   H1  
H2  EPW O   H1  H2  EPW O   H1  H2  EPW O   H1  H2  EPW O   H1  H2  EPW O   H1  
H2  EPW O   H1  H2  EPW O   H1  H2  EPW O   H1  H2  EPW O   H1  H2  EPW O   H1  
H2  EPW O   H1  H2  EPW O   H1  H2  EPW O   H1  H2  EPW O   H1  H2  EPW O   H1  
H2  EPW O   H1  H2  EPW O   H1  H2  EPW O   H1  H2  EPW O   H1  H2  EPW O   H1  
H2  EPW O   H1  H2  EPW O   H1  H2  EPW O   H1  H2  EPW O   H1  H2  EPW O   H1  
H2  EPW O   H1  H2  EPW O   H1  H2  EPW O   H1  H2  EPW O   H1  H2  EPW O   H1  
H2  EPW O   H1  H2  EPW O   H1  H2  EPW O   H1  H2  EPW O   H1  H2  EPW O   H1  
H2  EPW O   H1  H2  EPW O   H1  H2  EPW O   H1  H2  EPW O   H1  H2  EPW O   H1  
H2  EPW O   H1  H2  EPW O   H1  H2  EPW O   H1  H2  EPW O   H1  H2  EPW O   H1  
H2  EPW O   H1  H2  EPW O   H1  H2  EPW O   H1  H2  EPW O   H1  H2  EPW O   H1  
H2  EPW O   H1  H2  EPW O   H1  H2  EPW O   H1  H2  EPW O   H1  H2  EPW O   H1  
H2  EPW O   H1  H2  EPW O   H1  H2  EPW O   H1  H2  EPW O   H1  H2  EPW O   H1  
H2  EPW O   H1  H2  EPW O   H1  H2  EPW O   H1  H2  EPW O   H1  H2  EPW O   H1  
H2  EPW O   H1  H2  EPW O   H1  H2  EPW O   H1  H2  EPW O   H1  H2  EPW O   H1  
H2  EPW O   H1  H2  EPW O   H1  H2  EPW O   H1  H2  EPW O   H1  H2  EPW O   H1  
H2  EPW O   H1  H2  EPW O   H1  H2  EPW O   H1  H2  EPW O   H1  H2  EPW O   H1  
H2  EPW O   H1  H2  EPW O   H1  H2  EPW O   H1  H2  EPW O   H1  H2  EPW O   H1  
H2  EPW O   H1  H2  EPW O   H1  H2  EPW O   H1  H2  EPW O   H1  H2  EPW O   H1  
H2  EPW O   H1  H2  EPW O   H1  H2  EPW O   H1  H2  EPW O   H1  H2  EPW O   H1  
H2  EPW O   H1  H2  EPW O   H1  H2  EPW O   H1  H2  EPW O   H1  H2  EPW O   H1  
H2  EPW O   H1  H2  EPW O   H1  H2  EPW O   H1  H2  EPW O   H1  H2  EPW O   H1  
H2  EPW O   H1  H2  EPW O   H1  H2  EPW O   H1  H2  EPW O   H1  H2  EPW O   H1  
H2  EPW O   H1  H2  EPW O   H1  H2  EPW O   H1  H2  EPW O   H1  H2  EPW O   H1  
H2  EPW O   H1  H2  EPW O   H1  H2  EPW O   H1  H2  EPW O   H1  H2  EPW O   H1  
H2  EPW O   H1  H2  EPW O   H1  H2  EPW O   H1  H2  EPW O   H1  H2  EPW O   H1  
H2  EPW O   H1  H2  EPW O   H1  H2  EPW O   H1  H2  EPW O   H1  H2  EPW O   H1  
H2  EPW O   H1  H2  EPW O   H1  H2  EPW O   H1  H2  EPW O   H1  H2  EPW O   H1  
H2  EPW O   H1  H2  EPW O   H1  H2  EPW O   H1  H2  EPW O   H1  H2  EPW O   H1  
H2  EPW O   H1  H2  EPW O   H1  H2  EPW O   H1  H2  EPW O   H1  H2  EPW O   H1  
H2  EPW O   H1  H2  EPW O   H1  H2  EPW O   H1  H2  EPW O   H1  H2  EPW O   H1  
H2  EPW O   H1  H2  EPW O   H1  H2  EPW O   H1  H2  EPW O   H1  H2  EPW O   H1  
H2  EPW O   H1  H2  EPW O   H1  H2  EPW O   H1  H2  EPW O   H1  H2  EPW O   H1  
H2  EPW O   H1  H2  EPW O   H1  H2  EPW O   H1  H2  EPW O   H1  H2  EPW O   H1  
H2  EPW O   H1  H2  EPW O   H1  H2  EPW O   H1  H2  EPW O   H1  H2  EPW O   H1  
H2  EPW O   H1  H2  EPW O   H1  H2  EPW O   H1  H2  EPW O   H1  H2  EPW O   H1  
H2  EPW O   H1  H2  EPW O   H1  H2  EPW O   H1  H2  EPW O   H1  H2  EPW O   H1  
H2  EPW O   H1  H2  EPW O   H1  H2  EPW O   H1  H2  EPW O   H1  H2  EPW O   H1  
H2  EPW O   H1  H2  EPW O   H1  H2  EPW O   H1  H2  EPW O   H1  H2  EPW O   H1  
H2  EPW O   H1  H2  EPW O   H1  H2  EPW O   H1  H2  EPW O   H1  H2  EPW O   H1  
H2  EPW O   H1  H2  EPW O   H1  H2  EPW O   H1  H2  EPW O   H1  H2  EPW O   H1  
H2  EPW O   H1  H2  EPW O   H1  H2  EPW O   H1  H2  EPW O   H1  H2  EPW O   H1  
H2  EPW O   H1  H2  EPW O   H1  H2  EPW O   H1  H2  EPW O   H1  H2  EPW O   H1  
H2  EPW O   H1  H2  EPW O   H1  H2  EPW O   H1  H2  EPW O   H1  H2  EPW O   H1  
H2  EPW O   H1  H2  EPW O   H1  H2  EPW O   H1  H2  EPW O   H1  H2  EPW O   H1  
H2  EPW O   H1  H2  EPW O   H1  H2  EPW O   H1  H2  EPW O   H1  H2  EPW O   H1  
H2  EPW O   H1  H2  EPW O   H1  H2  EPW O   H1  H2  EPW O   H1  H2  EPW O   H1  
H2  EPW O   H1  H2  EPW O   H1  H2  EPW O   H1  H2  EPW O   H1  H2  EPW O   H1  
H2  EPW O   H1  H2  EPW O   H1  H2  EPW O   H1  H2  EPW O   H1  H2  EPW O   H1  
H2  EPW O   H1  H2  EPW O   H1  H2  EPW O   H1  H2  EPW O   H1  H2  EPW O   H1  
H2  EPW O   H1  H2  EPW O   H1  H2  EPW O   H1  H2  EPW O   H1  H2  EPW O   H1  
H2  EPW O   H1  H2  EPW O   H1  H2  EPW O   H1  H2  EPW O   H1  H2  EPW O   H1  
H2  EPW O   H1  H2  EPW O   H1  H2  EPW O   H1  H2  EPW O   H1  H2  EPW O   H1  
H2  EPW O   H1  H2  EPW O   H1  H2  EPW O   H1  H2  EPW O   H1  H2  EPW O   H1  
H2  EPW O   H1  H2  EPW O   H1  H2  EPW O   H1  H2  EPW O   H1  H2  EPW O   H1  
H2  EPW O   H1  H2  EPW O   H1  H2  EPW O   H1  H2  EPW O   H1  H2  EPW O   H1  
H2  EPW O   H1  H2  EPW O   H1  H2  EPW O   H1  H2  EPW O   H1  H2  EPW O   H1  
H2  EPW O   H1  H2  EPW O   H1  H2  EPW O   H1  H2  EPW O   H1  H2  EPW O   H1  
H2  EPW O   H1  H2  EPW O   H1  H2  EPW O   H1  H2  EPW O   H1  H2  EPW O   H1  
H2  EPW O   H1  H2  EPW O   H1  H2  EPW O   H1  H2  EPW O   H1  H2  EPW O   H1  
H2  EPW O   H1  H2  EPW O   H1  H2  EPW O   H1  H2  EPW O   H1  H2  EPW O   H1  
H2  EPW O   H1  H2  EPW O   H1  H2  EPW O   H1  H2  EPW O   H1  H2  EPW O   H1  
H2  EPW O   H1  H2  EPW O   H1  H2  EPW O   H1  H2  EPW O   H1  H2  EPW O   H1  
H2  EPW O   H1  H2  EPW O   H1  H2  EPW O   H1  H2  EPW O   H1  H2  EPW O   H1  
H2  EPW O   H1  H2  EPW O   H1  H2  EPW O   H1  H2  EPW O   H1  H2  EPW O   H1  
H2  EPW O   H1  H2  EPW O   H1  H2  EPW O   H1  H2  EPW O   H1  H2  EPW O   H1  
H2  EPW O   H1  H2  EPW O   H1  H2  EPW O   H1  H2  EPW O   H1  H2  EPW O   H1  
H2  EPW O   H1  H2  EPW O   H1  H2  EPW O   H1  H2  EPW O   H1  H2  EPW O   H1  
H2  EPW O   H1  H2  EPW O   H1  H2  EPW O   H1  H2  EPW O   H1  H2  EPW O   H1  
H2  EPW O   H1  H2  EPW O   H1  H2  EPW O   H1  H2  EPW O   H1  H2  EPW O   H1  
H2  EPW O   H1  H2  EPW O   H1  H2  EPW O   H1  H2  EPW O   H1  H2  EPW O   H1  
H2  EPW O   H1  H2  EPW O   H1  H2  EPW O   H1  H2  EPW O   H1  H2  EPW O   H1  
H2  EPW O   H1  H2  EPW O   H1  H2  EPW O   H1  H2  EPW O   H1  H2  EPW O   H1  
H2  EPW O   H1  H2  EPW O   H1  H2  EPW O   H1  H2  EPW O   H1  H2  EPW O   H1  
H2  EPW O   H1  H2  EPW O   H1  H2  EPW O   H1  H2  EPW O   H1  H2  EPW O   H1  
H2  EPW O   H1  H2  EPW O   H1  H2  EPW O   H1  H2  EPW O   H1  H2  EPW O   H1  
H2  EPW O   H1  H2  EPW O   H1  H2  EPW O   H1  H2  EPW O   H1  H2  EPW O   H1  
H2  EPW O   H1  H2  EPW O   H1  H2  EPW O   H1  H2  EPW O   H1  H2  EPW O   H1  
H2  EPW O   H1  H2  EPW O   H1  H2  EPW O   H1  H2  EPW O   H1  H2  EPW O   H1  
H2  EPW O   H1  H2  EPW O   H1  H2  EPW O   H1  H2  EPW O   H1  H2  EPW O   H1  
H2  EPW O   H1  H2  EPW O   H1  H2  EPW O   H1  H2  EPW O   H1  H2  EPW O   H1  
H2  EPW O   H1  H2  EPW O   H1  H2  EPW O   H1  H2  EPW O   H1  H2  EPW O   H1  
H2  EPW O   H1  H2  EPW O   H1  H2  EPW O   H1  H2  EPW O   H1  H2  EPW O   H1  
H2  EPW O   H1  H2  EPW O   H1  H2  EPW O   H1  H2  EPW O   H1  H2  EPW O   H1  
H2  EPW O   H1  H2  EPW O   H1  H2  EPW O   H1  H2  EPW O   H1  H2  EPW O   H1  
H2  EPW O   H1  H2  EPW O   H1  H2  EPW O   H1  H2  EPW O   H1  H2  EPW O   H1  
H2  EPW O   H1  H2  EPW O   H1  H2  EPW O   H1  H2  EPW O   H1  H2  EPW O   H1  
H2  EPW O   H1  H2  EPW O   H1  H2  EPW O   H1  H2  EPW O   H1  H2  EPW O   H1  
H2  EPW O   H1  H2  EPW O   H1  H2  EPW O   H1  H2  EPW O   H1  H2  EPW O   H1  
H2  EPW O   H1  H2  EPW O   H1  H2  EPW O   H1  H2  EPW O   H1  H2  EPW O   H1  
H2  EPW O   H1  H2  EPW O   H1  H2  EPW O   H1  H2  EPW O   H1  H2  EPW O   H1  
H2  EPW O   H1  H2  EPW O   H1  H2  EPW O   H1  H2  EPW O   H1  H2  EPW O   H1  
H2  EPW O   H1  H2  EPW O   H1  H2  EPW O   H1  H2  EPW O   H1  H2  EPW O   H1  
H2  EPW O   H1  H2  EPW O   H1  H2  EPW O   H1  H2  EPW O   H1  H2  EPW O   H1  
H2  EPW O   H1  H2  EPW O   H1  H2  EPW O   H1  H2  EPW O   H1  H2  EPW O   H1  
H2  EPW O   H1  H2  EPW O   H1  H2  EPW O   H1  H2  EPW O   H1  H2  EPW O   H1  
H2  EPW O   H1  H2  EPW O   H1  H2  EPW O   H1  H2  EPW O   H1  H2  EPW O   H1  
H2  EPW O   H1  H2  EPW O   H1  H2  EPW O   H1  H2  EPW O   H1  H2  EPW O   H1  
H2  EPW O   H1  H2  EPW O   H1  H2  EPW O   H1  H2  EPW O   H1  H2  EPW O   H1  
H2  EPW O   H1  H2  EPW O   H1  H2  EPW O   H1  H2  EPW O   H1  H2  EPW O   H1  
H2  EPW O   H1  H2  EPW O   H1  H2  EPW O   H1  H2  EPW O   H1  H2  EPW O   H1  
H2  EPW O   H1  H2  EPW O   H1  H2  EPW O   H1  H2  EPW O   H1  H2  EPW O   H1  
H2  EPW O   H1  H2  EPW O   H1  H2  EPW O   H1  H2  EPW O   H1  H2  EPW O   H1  
H2  EPW O   H1  H2  EPW O   H1  H2  EPW O   H1  H2  EPW O   H1  H2  EPW O   H1  
H2  EPW O   H1  H2  EPW O   H1  H2  EPW O   H1  H2  EPW O   H1  H2  EPW O   H1  
H2  EPW O   H1  H2  EPW O   H1  H2  EPW O   H1  H2  EPW O   H1  H2  EPW O   H1  
H2  EPW O   H1  H2  EPW O   H1  H2  EPW O   H1  H2  EPW O   H1  H2  EPW O   H1  
H2  EPW O   H1  H2  EPW O   H1  H2  EPW O   H1  H2  EPW O   H1  H2  EPW O   H1  
H2  EPW O   H1  H2  EPW O   H1  H2  EPW O   H1  H2  EPW O   H1  H2  EPW O   H1  
H2  EPW O   H1  H2  EPW O   H1  H2  EPW O   H1  H2  EPW O   H1  H2  EPW O   H1  
H2  EPW O   H1  H2  EPW O   H1  H2  EPW O   H1  H2  EPW O   H1  H2  EPW O   H1  
H2  EPW O   H1  H2  EPW O   H1  H2  EPW O   H1  H2  EPW O   H1  H2  EPW O   H1  
H2  EPW O   H1  H2  EPW O   H1  H2  EPW O   H1  H2  EPW O   H1  H2  EPW O   H1  
H2  EPW O   H1  H2  EPW O   H1  H2  EPW O   H1  H2  EPW O   H1  H2  EPW O   H1  
H2  EPW O   H1  H2  EPW O   H1  H2  EPW O   H1  H2  EPW O   H1  H2  EPW O   H1  
H2  EPW O   H1  H2  EPW O   H1  H2  EPW O   H1  H2  EPW O   H1  H2  EPW O   H1  
H2  EPW O   H1  H2  EPW O   H1  H2  EPW O   H1  H2  EPW O   H1  H2  EPW O   H1  
H2  EPW O   H1  H2  EPW O   H1  H2  EPW O   H1  H2  EPW O   H1  H2  EPW O   H1  
H2  EPW O   H1  H2  EPW O   H1  H2  EPW O   H1  H2  EPW O   H1  H2  EPW O   H1  
H2  EPW O   H1  H2  EPW O   H1  H2  EPW O   H1  H2  EPW O   H1  H2  EPW O   H1  
H2  EPW O   H1  H2  EPW O   H1  H2  EPW O   H1  H2  EPW O   H1  H2  EPW O   H1  
H2  EPW O   H1  H2  EPW O   H1  H2  EPW O   H1  H2  EPW O   H1  H2  EPW O   H1  
H2  EPW O   H1  H2  EPW O   H1  H2  EPW O   H1  H2  EPW O   H1  H2  EPW O   H1  
H2  EPW O   H1  H2  EPW O   H1  H2  EPW O   H1  H2  EPW O   H1  H2  EPW O   H1  
H2  EPW O   H1  H2  EPW O   H1  H2  EPW O   H1  H2  EPW O   H1  H2  EPW O   H1  
H2  EPW O   H1  H2  EPW O   H1  H2  EPW O   H1  H2  EPW O   H1  H2  EPW O   H1  
H2  EPW O   H1  H2  EPW O   H1  H2  EPW O   H1  H2  EPW O   H1  H2  EPW O   H1  
H2  EPW O   H1  H2  EPW O   H1  H2  EPW O   H1  H2  EPW O   H1  H2  EPW O   H1  
H2  EPW O   H1  H2  EPW O   H1  H2  EPW O   H1  H2  EPW O   H1  H2  EPW O   H1  
H2  EPW O   H1  H2  EPW O   H1  H2  EPW O   H1  H2  EPW O   H1  H2  EPW O   H1  
H2  EPW O   H1  H2  EPW O   H1  H2  EPW O   H1  H2  EPW O   H1  H2  EPW O   H1  
H2  EPW O   H1  H2  EPW O   H1  H2  EPW O   H1  H2  EPW O   H1  H2  EPW O   H1  
H2  EPW O   H1  H2  EPW O   H1  H2  EPW O   H1  H2  EPW O   H1  H2  EPW O   H1  
H2  EPW O   H1  H2  EPW O   H1  H2  EPW O   H1  H2  EPW O   H1  H2  EPW O   H1  
H2  EPW O   H1  H2  EPW O   H1  H2  EPW O   H1  H2  EPW O   H1  H2  EPW O   H1  
H2  EPW O   H1  H2  EPW O   H1  H2  EPW O   H1  H2  EPW O   H1  H2  EPW O   H1  
H2  EPW O   H1  H2  EPW O   H1  H2  EPW O   H1  H2  EPW O   H1  H2  EPW O   H1  
H2  EPW O   H1  H2  EPW O   H1  H2  EPW O   H1  H2  EPW O   H1  H2  EPW O   H1  
H2  EPW O   H1  H2  EPW O   H1  H2  EPW O   H1  H2  EPW O   H1  H2  EPW O   H1  
H2  EPW O   H1  H2  EPW O   H1  H2  EPW O   H1  H2  EPW O   H1  H2  EPW O   H1  
H2  EPW O   H1  H2  EPW O   H1  H2  EPW O   H1  H2  EPW O   H1  H2  EPW O   H1  
H2  EPW O   H1  H2  EPW O   H1  H2  EPW O   H1  H2  EPW O   H1  H2  EPW O   H1  
H2  EPW O   H1  H2  EPW O   H1  H2  EPW O   H1  H2  EPW O   H1  H2  EPW O   H1  
H2  EPW O   H1  H2  EPW O   H1  H2  EPW O   H1  H2  EPW O   H1  H2  EPW O   H1  
H2  EPW O   H1  H2  EPW O   H1  H2  EPW O   H1  H2  EPW O   H1  H2  EPW O   H1  
H2  EPW O   H1  H2  EPW O   H1  H2  EPW O   H1  H2  EPW O   H1  H2  EPW O   H1  
H2  EPW O   H1  H2  EPW O   H1  H2  EPW O   H1  H2  EPW O   H1  H2  EPW O   H1  
H2  EPW O   H1  H2  EPW O   H1  H2  EPW O   H1  H2  EPW O   H1  H2  EPW O   H1  
H2  EPW O   H1  H2  EPW O   H1  H2  EPW O   H1  H2  EPW O   H1  H2  EPW O   H1  
H2  EPW O   H1  H2  EPW O   H1  H2  EPW O   H1  H2  EPW O   H1  H2  EPW O   H1  
H2  EPW O   H1  H2  EPW O   H1  H2  EPW O   H1  H2  EPW O   H1  H2  EPW O   H1  
H2  EPW O   H1  H2  EPW O   H1  H2  EPW O   H1  H2  EPW O   H1  H2  EPW O   H1  
H2  EPW O   H1  H2  EPW O   H1  H2  EPW O   H1  H2  EPW O   H1  H2  EPW O   H1  
H2  EPW O   H1  H2  EPW O   H1  H2  EPW O   H1  H2  EPW O   H1  H2  EPW O   H1  
H2  EPW O   H1  H2  EPW O   H1  H2  EPW O   H1  H2  EPW O   H1  H2  EPW O   H1  
H2  EPW O   H1  H2  EPW O   H1  H2  EPW O   H1  H2  EPW O   H1  H2  EPW O   H1  
H2  EPW O   H1  H2  EPW O   H1  H2  EPW O   H1  H2  EPW O   H1  H2  EPW O   H1  
H2  EPW O   H1  H2  EPW O   H1  H2  EPW O   H1  H2  EPW O   H1  H2  EPW O   H1  
H2  EPW O   H1  H2  EPW O   H1  H2  EPW O   H1  H2  EPW O   H1  H2  EPW O   H1  
H2  EPW O   H1  H2  EPW O   H1  H2  EPW O   H1  H2  EPW O   H1  H2  EPW O   H1  
H2  EPW O   H1  H2  EPW O   H1  H2  EPW O   H1  H2  EPW O   H1  H2  EPW O   H1  
H2  EPW O   H1  H2  EPW O   H1  H2  EPW O   H1  H2  EPW O   H1  H2  EPW O   H1  
H2  EPW O   H1  H2  EPW O   H1  H2  EPW O   H1  H2  EPW O   H1  H2  EPW O   H1  
H2  EPW O   H1  H2  EPW O   H1  H2  EPW O   H1  H2  EPW O   H1  H2  EPW O   H1  
H2  EPW O   H1  H2  EPW O   H1  H2  EPW O   H1  H2  EPW O   H1  H2  EPW O   H1  
H2  EPW O   H1  H2  EPW O   H1  H2  EPW O   H1  H2  EPW O   H1  H2  EPW O   H1  
H2  EPW O   H1  H2  EPW O   H1  H2  EPW O   H1  H2  EPW O   H1  H2  EPW O   H1  
H2  EPW O   H1  H2  EPW O   H1  H2  EPW O   H1  H2  EPW O   H1  H2  EPW O   H1  
H2  EPW O   H1  H2  EPW O   H1  H2  EPW O   H1  H2  EPW O   H1  H2  EPW O   H1  
H2  EPW O   H1  H2  EPW O   H1  H2  EPW O   H1  H2  EPW O   H1  H2  EPW O   H1  
H2  EPW O   H1  H2  EPW O   H1  H2  EPW O   H1  H2  EPW O   H1  H2  EPW O   H1  
H2  EPW O   H1  H2  EPW O   H1  H2  EPW O   H1  H2  EPW O   H1  H2  EPW O   H1  
H2  EPW O   H1  H2  EPW O   H1  H2  EPW O   H1  H2  EPW O   H1  H2  EPW O   H1  
H2  EPW O   H1  H2  EPW O   H1  H2  EPW O   H1  H2  EPW O   H1  H2  EPW O   H1  
H2  EPW O   H1  H2  EPW O   H1  H2  EPW O   H1  H2  EPW O   H1  H2  EPW O   H1  
H2  EPW O   H1  H2  EPW O   H1  H2  EPW O   H1  H2  EPW O   H1  H2  EPW O   H1  
H2  EPW O   H1  H2  EPW O   H1  H2  EPW O   H1  H2  EPW O   H1  H2  EPW O   H1  
H2  EPW O   H1  H2  EPW O   H1  H2  EPW O   H1  H2  EPW O   H1  H2  EPW O   H1  
H2  EPW O   H1  H2  EPW O   H1  H2  EPW O   H1  H2  EPW O   H1  H2  EPW O   H1  
H2  EPW O   H1  H2  EPW O   H1  H2  EPW O   H1  H2  EPW O   H1  H2  EPW O   H1  
H2  EPW O   H1  H2  EPW O   H1  H2  EPW O   H1  H2  EPW O   H1  H2  EPW O   H1  
H2  EPW O   H1  H2  EPW O   H1  H2  EPW O   H1  H2  EPW O   H1  H2  EPW O   H1  
H2  EPW O   H1  H2  EPW O   H1  H2  EPW O   H1  H2  EPW O   H1  H2  EPW O   H1  
H2  EPW O   H1  H2  EPW O   H1  H2  EPW O   H1  H2  EPW O   H1  H2  EPW O   H1  
H2  EPW O   H1  H2  EPW O   H1  H2  EPW O   H1  H2  EPW O   H1  H2  EPW O   H1  
H2  EPW O   H1  H2  EPW O   H1  H2  EPW O   H1  H2  EPW O   H1  H2  EPW O   H1  
H2  EPW O   H1  H2  EPW O   H1  H2  EPW O   H1  H2  EPW O   H1  H2  EPW O   H1  
H2  EPW O   H1  H2  EPW O   H1  H2  EPW O   H1  H2  EPW O   H1  H2  EPW O   H1  
H2  EPW O   H1  H2  EPW O   H1  H2  EPW O   H1  H2  EPW O   H1  H2  EPW O   H1  
H2  EPW O   H1  H2  EPW O   H1  H2  EPW O   H1  H2  EPW O   H1  H2  EPW O   H1  
H2  EPW O   H1  H2  EPW O   H1  H2  EPW O   H1  H2  EPW O   H1  H2  EPW O   H1  
H2  EPW O   H1  H2  EPW O   H1  H2  EPW O   H1  H2  EPW O   H1  H2  EPW O   H1  
H2  EPW O   H1  H2  EPW O   H1  H2  EPW O   H1  H2  EPW O   H1  H2  EPW O   H1  
H2  EPW O   H1  H2  EPW O   H1  H2  EPW O   H1  H2  EPW O   H1  H2  EPW O   H1  
H2  EPW O   H1  H2  EPW O   H1  H2  EPW O   H1  H2  EPW O   H1  H2  EPW O   H1  
H2  EPW O   H1  H2  EPW O   H1  H2  EPW O   H1  H2  EPW O   H1  H2  EPW O   H1  
H2  EPW O   H1  H2  EPW O   H1  H2  EPW O   H1  H2  EPW O   H1  H2  EPW O   H1  
H2  EPW O   H1  H2  EPW O   H1  H2  EPW O   H1  H2  EPW O   H1  H2  EPW O   H1  
H2  EPW O   H1  H2  EPW O   H1  H2  EPW O   H1  H2  EPW O   H1  H2  EPW O   H1  
H2  EPW O   H1  H2  EPW O   H1  H2  EPW O   H1  H2  EPW O   H1  H2  EPW O   H1  
H2  EPW O   H1  H2  EPW O   H1  H2  EPW O   H1  H2  EPW O   H1  H2  EPW O   H1  
H2  EPW O   H1  H2  EPW O   H1  H2  EPW O   H1  H2  EPW O   H1  H2  EPW O   H1  
H2  EPW O   H1  H2  EPW O   H1  H2  EPW O   H1  H2  EPW O   H1  H2  EPW O   H1  
H2  EPW O   H1  H2  EPW O   H1  H2  EPW O   H1  H2  EPW O   H1  H2  EPW O   H1  
H2  EPW O   H1  H2  EPW O   H1  H2  EPW O   H1  H2  EPW O   H1  H2  EPW O   H1  
H2  EPW O   H1  H2  EPW O   H1  H2  EPW O   H1  H2  EPW O   H1  H2  EPW O   H1  
H2  EPW O   H1  H2  EPW O   H1  H2  EPW O   H1  H2  EPW O   H1  H2  EPW O   H1  
H2  EPW O   H1  H2  EPW O   H1  H2  EPW O   H1  H2  EPW O   H1  H2  EPW O   H1  
H2  EPW O   H1  H2  EPW O   H1  H2  EPW O   H1  H2  EPW O   H1  H2  EPW O   H1  
H2  EPW O   H1  H2  EPW O   H1  H2  EPW O   H1  H2  EPW O   H1  H2  EPW O   H1  
H2  EPW O   H1  H2  EPW O   H1  H2  EPW O   H1  H2  EPW O   H1  H2  EPW O   H1  
H2  EPW O   H1  H2  EPW O   H1  H2  EPW O   H1  H2  EPW O   H1  H2  EPW O   H1  
H2  EPW O   H1  H2  EPW O   H1  H2  EPW O   H1  H2  EPW O   H1  H2  EPW O   H1  
H2  EPW O   H1  H2  EPW O   H1  H2  EPW O   H1  H2  EPW O   H1  H2  EPW O   H1  
H2  EPW O   H1  H2  EPW O   H1  H2  EPW O   H1  H2  EPW O   H1  H2  EPW O   H1  
H2  EPW O   H1  H2  EPW O   H1  H2  EPW O   H1  H2  EPW O   H1  H2  EPW O   H1  
H2  EPW O   H1  H2  EPW O   H1  H2  EPW O   H1  H2  EPW O   H1  H2  EPW O   H1  
H2  EPW O   H1  H2  EPW O   H1  H2  EPW O   H1  H2  EPW O   H1  H2  EPW O   H1  
H2  EPW O   H1  H2  EPW O   H1  H2  EPW O   H1  H2  EPW O   H1  H2  EPW O   H1  
H2  EPW O   H1  H2  EPW O   H1  H2  EPW O   H1  H2  EPW O   H1  H2  EPW O   H1  
H2  EPW O   H1  H2  EPW O   H1  H2  EPW O   H1  H2  EPW O   H1  H2  EPW O   H1  
H2  EPW O   H1  H2  EPW O   H1  H2  EPW O   H1  H2  EPW O   H1  H2  EPW O   H1  
H2  EPW O   H1  H2  EPW O   H1  H2  EPW O   H1  H2  EPW O   H1  H2  EPW O   H1  
H2  EPW O   H1  H2  EPW O   H1  H2  EPW O   H1  H2  EPW O   H1  H2  EPW O   H1  
H2  EPW O   H1  H2  EPW O   H1  H2  EPW O   H1  H2  EPW O   H1  H2  EPW O   H1  
H2  EPW O   H1  H2  EPW O   H1  H2  EPW O   H1  H2  EPW O   H1  H2  EPW O   H1  
H2  EPW O   H1  H2  EPW O   H1  H2  EPW O   H1  H2  EPW O   H1  H2  EPW O   H1  
H2  EPW O   H1  H2  EPW O   H1  H2  EPW O   H1  H2  EPW O   H1  H2  EPW O   H1  
H2  EPW O   H1  H2  EPW O   H1  H2  EPW O   H1  H2  EPW O   H1  H2  EPW O   H1  
H2  EPW O   H1  H2  EPW O   H1  H2  EPW O   H1  H2  EPW O   H1  H2  EPW O   H1  
H2  EPW O   H1  H2  EPW O   H1  H2  EPW O   H1  H2  EPW O   H1  H2  EPW O   H1  
H2  EPW O   H1  H2  EPW O   H1  H2  EPW O   H1  H2  EPW O   H1  H2  EPW O   H1  
H2  EPW O   H1  H2  EPW O   H1  H2  EPW O   H1  H2  EPW O   H1  H2  EPW O   H1  
H2  EPW O   H1  H2  EPW O   H1  H2  EPW O   H1  H2  EPW O   H1  H2  EPW O   H1  
H2  EPW O   H1  H2  EPW O   H1  H2  EPW O   H1  H2  EPW O   H1  H2  EPW O   H1  
H2  EPW O   H1  H2  EPW O   H1  H2  EPW O   H1  H2  EPW O   H1  H2  EPW O   H1  
H2  EPW O   H1  H2  EPW O   H1  H2  EPW O   H1  H2  EPW O   H1  H2  EPW O   H1  
H2  EPW O   H1  H2  EPW O   H1  H2  EPW O   H1  H2  EPW O   H1  H2  EPW O   H1  
H2  EPW O   H1  H2  EPW O   H1  H2  EPW O   H1  H2  EPW O   H1  H2  EPW O   H1  
H2  EPW O   H1  H2  EPW O   H1  H2  EPW O   H1  H2  EPW O   H1  H2  EPW O   H1  
H2  EPW O   H1  H2  EPW O   H1  H2  EPW O   H1  H2  EPW O   H1  H2  EPW O   H1  
H2  EPW O   H1  H2  EPW O   H1  H2  EPW O   H1  H2  EPW O   H1  H2  EPW O   H1  
H2  EPW O   H1  H2  EPW O   H1  H2  EPW O   H1  H2  EPW O   H1  H2  EPW O   H1  
H2  EPW O   H1  H2  EPW O   H1  H2  EPW O   H1  H2  EPW O   H1  H2  EPW O   H1  
H2  EPW O   H1  H2  EPW O   H1  H2  EPW O   H1  H2  EPW O   H1  H2  EPW O   H1  
H2  EPW O   H1  H2  EPW O   H1  H2  EPW O   H1  H2  EPW O   H1  H2  EPW O   H1  
H2  EPW O   H1  H2  EPW O   H1  H2  EPW O   H1  H2  EPW O   H1  H2  EPW O   H1  
H2  EPW O   H1  H2  EPW O   H1  H2  EPW O   H1  H2  EPW O   H1  H2  EPW O   H1  
H2  EPW O   H1  H2  EPW O   H1  H2  EPW O   H1  H2  EPW O   H1  H2  EPW O   H1  
H2  EPW O   H1  H2  EPW O   H1  H2  EPW O   H1  H2  EPW O   H1  H2  EPW O   H1  
H2  EPW O   H1  H2  EPW O   H1  H2  EPW O   H1  H2  EPW O   H1  H2  EPW O   H1  
H2  EPW O   H1  H2  EPW O   H1  H2  EPW O   H1  H2  EPW O   H1  H2  EPW O   H1  
H2  EPW O   H1  H2  EPW O   H1  H2  EPW O   H1  H2  EPW O   H1  H2  EPW O   H1  
H2  EPW O   H1  H2  EPW O   H1  H2  EPW O   H1  H2  EPW O   H1  H2  EPW O   H1  
H2  EPW O   H1  H2  EPW O   H1  H2  EPW O   H1  H2  EPW O   H1  H2  EPW O   H1  
H2  EPW O   H1  H2  EPW O   H1  H2  EPW O   H1  H2  EPW O   H1  H2  EPW O   H1  
H2  EPW O   H1  H2  EPW O   H1  H2  EPW O   H1  H2  EPW O   H1  H2  EPW O   H1  
H2  EPW O   H1  H2  EPW O   H1  H2  EPW O   H1  H2  EPW O   H1  H2  EPW O   H1  
H2  EPW O   H1  H2  EPW O   H1  H2  EPW O   H1  H2  EPW O   H1  H2  EPW O   H1  
H2  EPW O   H1  H2  EPW O   H1  H2  EPW O   H1  H2  EPW O   H1  H2  EPW O   H1  
H2  EPW O   H1  H2  EPW O   H1  H2  EPW O   H1  H2  EPW O   H1  H2  EPW O   H1  
H2  EPW O   H1  H2  EPW O   H1  H2  EPW O   H1  H2  EPW O   H1  H2  EPW O   H1  
H2  EPW O   H1  H2  EPW O   H1  H2  EPW O   H1  H2  EPW O   H1  H2  EPW O   H1  
H2  EPW O   H1  H2  EPW O   H1  H2  EPW O   H1  H2  EPW O   H1  H2  EPW O   H1  
H2  EPW O   H1  H2  EPW O   H1  H2  EPW O   H1  H2  EPW O   H1  H2  EPW O   H1  
H2  EPW O   H1  H2  EPW O   H1  H2  EPW O   H1  H2  EPW O   H1  H2  EPW O   H1  
H2  EPW O   H1  H2  EPW O   H1  H2  EPW O   H1  H2  EPW O   H1  H2  EPW O   H1  
H2  EPW O   H1  H2  EPW O   H1  H2  EPW O   H1  H2  EPW O   H1  H2  EPW O   H1  
H2  EPW O   H1  H2  EPW O   H1  H2  EPW O   H1  H2  EPW O   H1  H2  EPW O   H1  
H2  EPW O   H1  H2  EPW O   H1  H2  EPW O   H1  H2  EPW O   H1  H2  EPW O   H1  
H2  EPW O   H1  H2  EPW O   H1  H2  EPW O   H1  H2  EPW O   H1  H2  EPW O   H1  
H2  EPW O   H1  H2  EPW O   H1  H2  EPW O   H1  H2  EPW O   H1  H2  EPW O   H1  
H2  EPW O   H1  H2  EPW O   H1  H2  EPW O   H1  H2  EPW O   H1  H2  EPW O   H1  
H2  EPW O   H1  H2  EPW O   H1  H2  EPW O   H1  H2  EPW O   H1  H2  EPW O   H1  
H2  EPW O   H1  H2  EPW O   H1  H2  EPW O   H1  H2  EPW O   H1  H2  EPW O   H1  
H2  EPW O   H1  H2  EPW O   H1  H2  EPW O   H1  H2  EPW O   H1  H2  EPW O   H1  
H2  EPW O   H1  H2  EPW O   H1  H2  EPW O   H1  H2  EPW O   H1  H2  EPW O   H1  
H2  EPW O   H1  H2  EPW O   H1  H2  EPW O   H1  H2  EPW O   H1  H2  EPW O   H1  
H2  EPW O   H1  H2  EPW O   H1  H2  EPW O   H1  H2  EPW O   H1  H2  EPW O   H1  
H2  EPW O   H1  H2  EPW O   H1  H2  EPW O   H1  H2  EPW O   H1  H2  EPW O   H1  
H2  EPW O   H1  H2  EPW O   H1  H2  EPW O   H1  H2  EPW O   H1  H2  EPW O   H1  
H2  EPW O   H1  H2  EPW O   H1  H2  EPW O   H1  H2  EPW O   H1  H2  EPW O   H1  
H2  EPW O   H1  H2  EPW O   H1  H2  EPW O   H1  H2  EPW O   H1  H2  EPW O   H1  
H2  EPW O   H1  H2  EPW O   H1  H2  EPW O   H1  H2  EPW O   H1  H2  EPW O   H1  
H2  EPW O   H1  H2  EPW O   H1  H2  EPW O   H1  H2  EPW O   H1  H2  EPW O   H1  
H2  EPW O   H1  H2  EPW O   H1  H2  EPW O   H1  H2  EPW O   H1  H2  EPW O   H1  
H2  EPW O   H1  H2  EPW O   H1  H2  EPW O   H1  H2  EPW O   H1  H2  EPW O   H1  
H2  EPW O   H1  H2  EPW O   H1  H2  EPW O   H1  H2  EPW O   H1  H2  EPW O   H1  
H2  EPW O   H1  H2  EPW O   H1  H2  EPW O   H1  H2  EPW O   H1  H2  EPW O   H1  
H2  EPW O   H1  H2  EPW O   H1  H2  EPW O   H1  H2  EPW O   H1  H2  EPW O   H1  
H2  EPW O   H1  H2  EPW O   H1  H2  EPW O   H1  H2  EPW O   H1  H2  EPW O   H1  
H2  EPW O   H1  H2  EPW O   H1  H2  EPW O   H1  H2  EPW O   H1  H2  EPW O   H1  
H2  EPW O   H1  H2  EPW O   H1  H2  EPW O   H1  H2  EPW O   H1  H2  EPW O   H1  
H2  EPW O   H1  H2  EPW O   H1  H2  EPW O   H1  H2  EPW O   H1  H2  EPW O   H1  
H2  EPW O   H1  H2  EPW O   H1  H2  EPW O   H1  H2  EPW O   H1  H2  EPW O   H1  
H2  EPW O   H1  H2  EPW O   H1  H2  EPW O   H1  H2  EPW O   H1  H2  EPW O   H1  
H2  EPW O   H1  H2  EPW O   H1  H2  EPW O   H1  H2  EPW O   H1  H2  EPW O   H1  
H2  EPW O   H1  H2  EPW O   H1  H2  EPW O   H1  H2  EPW O   H1  H2  EPW O   H1  
H2  EPW O   H1  H2  EPW O   H1  H2  EPW O   H1  H2  EPW O   H1  H2  EPW O   H1  
H2  EPW O   H1  H2  EPW O   H1  H2  EPW O   H1  H2  EPW O   H1  H2  EPW O   H1  
H2  EPW O   H1  H2  EPW O   H1  H2  EPW O   H1  H2  EPW O   H1  H2  EPW O   H1  
H2  EPW O   H1  H2  EPW O   H1  H2  EPW O   H1  H2  EPW O   H1  H2  EPW O   H1  
H2  EPW O   H1  H2  EPW O   H1  H2  EPW O   H1  H2  EPW O   H1  H2  EPW O   H1  
H2  EPW O   H1  H2  EPW O   H1  H2  EPW O   H1  H2  EPW O   H1  H2  EPW O   H1  
H2  EPW O   H1  H2  EPW O   H1  H2  EPW O   H1  H2  EPW O   H1  H2  EPW O   H1  
H2  EPW O   H1  H2  EPW O   H1  H2  EPW O   H1  H2  EPW O   H1  H2  EPW O   H1  
H2  EPW O   H1  H2  EPW O   H1  H2  EPW O   H1  H2  EPW O   H1  H2  EPW O   H1  
H2  EPW O   H1  H2  EPW O   H1  H2  EPW O   H1  H2  EPW O   H1  H2  EPW O   H1  
H2  EPW O   H1  H2  EPW O   H1  H2  EPW O   H1  H2  EPW O   H1  H2  EPW O   H1  
H2  EPW O   H1  H2  EPW O   H1  H2  EPW O   H1  H2  EPW O   H1  H2  EPW O   H1  
H2  EPW O   H1  H2  EPW O   H1  H2  EPW O   H1  H2  EPW O   H1  H2  EPW O   H1  
H2  EPW O   H1  H2  EPW O   H1  H2  EPW O   H1  H2  EPW O   H1  H2  EPW O   H1  
H2  EPW O   H1  H2  EPW O   H1  H2  EPW O   H1  H2  EPW O   H1  H2  EPW O   H1  
H2  EPW O   H1  H2  EPW O   H1  H2  EPW O   H1  H2  EPW O   H1  H2  EPW O   H1  
H2  EPW O   H1  H2  EPW O   H1  H2  EPW O   H1  H2  EPW O   H1  H2  EPW O   H1  
H2  EPW O   H1  H2  EPW O   H1  H2  EPW O   H1  H2  EPW O   H1  H2  EPW O   H1  
H2  EPW O   H1  H2  EPW O   H1  H2  EPW O   H1  H2  EPW O   H1  H2  EPW O   H1  
H2  EPW O   H1  H2  EPW O   H1  H2  EPW O   H1  H2  EPW O   H1  H2  EPW O   H1  
H2  EPW O   H1  H2  EPW O   H1  H2  EPW O   H1  H2  EPW O   H1  H2  EPW O   H1  
H2  EPW O   H1  H2  EPW O   H1  H2  EPW O   H1  H2  EPW O   H1  H2  EPW O   H1  
H2  EPW O   H1  H2  EPW O   H1  H2  EPW O   H1  H2  EPW O   H1  H2  EPW O   H1  
H2  EPW O   H1  H2  EPW O   H1  H2  EPW O   H1  H2  EPW O   H1  H2  EPW O   H1  
H2  EPW O   H1  H2  EPW O   H1  H2  EPW O   H1  H2  EPW O   H1  H2  EPW O   H1  
H2  EPW O   H1  H2  EPW O   H1  H2  EPW O   H1  H2  EPW O   H1  H2  EPW O   H1  
H2  EPW O   H1  H2  EPW O   H1  H2  EPW O   H1  H2  EPW O   H1  H2  EPW O   H1  
H2  EPW O   H1  H2  EPW O   H1  H2  EPW O   H1  H2  EPW O   H1  H2  EPW O   H1  
H2  EPW O   H1  H2  EPW O   H1  H2  EPW O   H1  H2  EPW O   H1  H2  EPW O   H1  
H2  EPW O   H1  H2  EPW O   H1  H2  EPW O   H1  H2  EPW O   H1  H2  EPW O   H1  
H2  EPW O   H1  H2  EPW O   H1  H2  EPW O   H1  H2  EPW O   H1  H2  EPW O   H1  
H2  EPW O   H1  H2  EPW O   H1  H2  EPW O   H1  H2  EPW O   H1  H2  EPW O   H1  
H2  EPW O   H1  H2  EPW O   H1  H2  EPW O   H1  H2  EPW O   H1  H2  EPW O   H1  
H2  EPW O   H1  H2  EPW O   H1  H2  EPW O   H1  H2  EPW O   H1  H2  EPW O   H1  
H2  EPW O   H1  H2  EPW O   H1  H2  EPW O   H1  H2  EPW O   H1  H2  EPW O   H1  
H2  EPW O   H1  H2  EPW O   H1  H2  EPW O   H1  H2  EPW O   H1  H2  EPW O   H1  
H2  EPW O   H1  H2  EPW O   H1  H2  EPW O   H1  H2  EPW O   H1  H2  EPW O   H1  
H2  EPW O   H1  H2  EPW O   H1  H2  EPW O   H1  H2  EPW O   H1  H2  EPW O   H1  
H2  EPW O   H1  H2  EPW O   H1  H2  EPW O   H1  H2  EPW O   H1  H2  EPW O   H1  
H2  EPW O   H1  H2  EPW O   H1  H2  EPW O   H1  H2  EPW O   H1  H2  EPW O   H1  
H2  EPW O   H1  H2  EPW O   H1  H2  EPW O   H1  H2  EPW O   H1  H2  EPW O   H1  
H2  EPW O   H1  H2  EPW O   H1  H2  EPW O   H1  H2  EPW O   H1  H2  EPW O   H1  
H2  EPW O   H1  H2  EPW O   H1  H2  EPW O   H1  H2  EPW O   H1  H2  EPW O   H1  
H2  EPW O   H1  H2  EPW O   H1  H2  EPW O   H1  H2  EPW O   H1  H2  EPW O   H1  
H2  EPW O   H1  H2  EPW O   H1  H2  EPW O   H1  H2  EPW O   H1  H2  EPW O   H1  
H2  EPW O   H1  H2  EPW O   H1  H2  EPW O   H1  H2  EPW O   H1  H2  EPW O   H1  
H2  EPW O   H1  H2  EPW O   H1  H2  EPW O   H1  H2  EPW O   H1  H2  EPW O   H1  
H2  EPW O   H1  H2  EPW O   H1  H2  EPW O   H1  H2  EPW O   H1  H2  EPW O   H1  
H2  EPW O   H1  H2  EPW O   H1  H2  EPW O   H1  H2  EPW O   H1  H2  EPW O   H1  
H2  EPW O   H1  H2  EPW O   H1  H2  EPW O   H1  H2  EPW O   H1  H2  EPW O   H1  
H2  EPW O   H1  H2  EPW O   H1  H2  EPW O   H1  H2  EPW O   H1  H2  EPW O   H1  
H2  EPW O   H1  H2  EPW O   H1  H2  EPW O   H1  H2  EPW O   H1  H2  EPW O   H1  
H2  EPW O   H1  H2  EPW O   H1  H2  EPW O   H1  H2  EPW O   H1  H2  EPW O   H1  
H2  EPW O   H1  H2  EPW O   H1  H2  EPW O   H1  H2  EPW O   H1  H2  EPW O   H1  
H2  EPW O   H1  H2  EPW O   H1  H2  EPW O   H1  H2  EPW O   H1  H2  EPW O   H1  
H2  EPW O   H1  H2  EPW O   H1  H2  EPW O   H1  H2  EPW O   H1  H2  EPW O   H1  
H2  EPW O   H1  H2  EPW O   H1  H2  EPW O   H1  H2  EPW O   H1  H2  EPW O   H1  
H2  EPW O   H1  H2  EPW O   H1  H2  EPW O   H1  H2  EPW O   H1  H2  EPW O   H1  
H2  EPW O   H1  H2  EPW O   H1  H2  EPW O   H1  H2  EPW O   H1  H2  EPW O   H1  
H2  EPW O   H1  H2  EPW O   H1  H2  EPW O   H1  H2  EPW O   H1  H2  EPW O   H1  
H2  EPW O   H1  H2  EPW O   H1  H2  EPW O   H1  H2  EPW O   H1  H2  EPW O   H1  
H2  EPW O   H1  H2  EPW O   H1  H2  EPW O   H1  H2  EPW O   H1  H2  EPW O   H1  
H2  EPW O   H1  H2  EPW O   H1  H2  EPW O   H1  H2  EPW O   H1  H2  EPW O   H1  
H2  EPW O   H1  H2  EPW O   H1  H2  EPW O   H1  H2  EPW O   H1  H2  EPW O   H1  
H2  EPW O   H1  H2  EPW O   H1  H2  EPW O   H1  H2  EPW O   H1  H2  EPW O   H1  
H2  EPW O   H1  H2  EPW O   H1  H2  EPW O   H1  H2  EPW O   H1  H2  EPW O   H1  
H2  EPW O   H1  H2  EPW O   H1  H2  EPW O   H1  H2  EPW O   H1  H2  EPW O   H1  
H2  EPW O   H1  H2  EPW O   H1  H2  EPW O   H1  H2  EPW O   H1  H2  EPW O   H1  
H2  EPW O   H1  H2  EPW O   H1  H2  EPW O   H1  H2  EPW O   H1  H2  EPW O   H1  
H2  EPW O   H1  H2  EPW O   H1  H2  EPW O   H1  H2  EPW O   H1  H2  EPW O   H1  
H2  EPW O   H1  H2  EPW O   H1  H2  EPW O   H1  H2  EPW O   H1  H2  EPW O   H1  
H2  EPW O   H1  H2  EPW O   H1  H2  EPW O   H1  H2  EPW O   H1  H2  EPW O   H1  
H2  EPW O   H1  H2  EPW O   H1  H2  EPW O   H1  H2  EPW O   H1  H2  EPW O   H1  
H2  EPW O   H1  H2  EPW O   H1  H2  EPW O   H1  H2  EPW O   H1  H2  EPW O   H1  
H2  EPW O   H1  H2  EPW O   H1  H2  EPW O   H1  H2  EPW O   H1  H2  EPW O   H1  
H2  EPW O   H1  H2  EPW O   H1  H2  EPW O   H1  H2  EPW O   H1  H2  EPW O   H1  
H2  EPW O   H1  H2  EPW O   H1  H2  EPW O   H1  H2  EPW O   H1  H2  EPW O   H1  
H2  EPW O   H1  H2  EPW O   H1  H2  EPW O   H1  H2  EPW O   H1  H2  EPW O   H1  
H2  EPW O   H1  H2  EPW O   H1  H2  EPW O   H1  H2  EPW O   H1  H2  EPW O   H1  
H2  EPW O   H1  H2  EPW O   H1  H2  EPW O   H1  H2  EPW O   H1  H2  EPW O   H1  
H2  EPW O   H1  H2  EPW O   H1  H2  EPW O   H1  H2  EPW O   H1  H2  EPW O   H1  
H2  EPW O   H1  H2  EPW O   H1  H2  EPW O   H1  H2  EPW O   H1  H2  EPW O   H1  
H2  EPW O   H1  H2  EPW O   H1  H2  EPW O   H1  H2  EPW O   H1  H2  EPW O   H1  
H2  EPW O   H1  H2  EPW O   H1  H2  EPW O   H1  H2  EPW O   H1  H2  EPW O   H1  
H2  EPW O   H1  H2  EPW O   H1  H2  EPW O   H1  H2  EPW O   H1  H2  EPW O   H1  
H2  EPW O   H1  H2  EPW O   H1  H2  EPW O   H1  H2  EPW O   H1  H2  EPW O   H1  
H2  EPW O   H1  H2  EPW O   H1  H2  EPW O   H1  H2  EPW O   H1  H2  EPW O   H1  
H2  EPW O   H1  H2  EPW O   H1  H2  EPW O   H1  H2  EPW O   H1  H2  EPW O   H1  
H2  EPW O   H1  H2  EPW O   H1  H2  EPW O   H1  H2  EPW O   H1  H2  EPW O   H1  
H2  EPW O   H1  H2  EPW O   H1  H2  EPW O   H1  H2  EPW O   H1  H2  EPW O   H1  
H2  EPW O   H1  H2  EPW O   H1  H2  EPW O   H1  H2  EPW O   H1  H2  EPW O   H1  
H2  EPW O   H1  H2  EPW O   H1  H2  EPW O   H1  H2  EPW O   H1  H2  EPW O   H1  
H2  EPW O   H1  H2  EPW O   H1  H2  EPW O   H1  H2  EPW O   H1  H2  EPW O   H1  
H2  EPW O   H1  H2  EPW O   H1  H2  EPW O   H1  H2  EPW O   H1  H2  EPW O   H1  
H2  EPW O   H1  H2  EPW O   H1  H2  EPW O   H1  H2  EPW O   H1  H2  EPW O   H1  
H2  EPW O   H1  H2  EPW O   H1  H2  EPW O   H1  H2  EPW O   H1  H2  EPW O   H1  
H2  EPW O   H1  H2  EPW O   H1  H2  EPW O   H1  H2  EPW O   H1  H2  EPW O   H1  
H2  EPW O   H1  H2  EPW O   H1  H2  EPW O   H1  H2  EPW O   H1  H2  EPW O   H1  
H2  EPW O   H1  H2  EPW O   H1  H2  EPW O   H1  H2  EPW O   H1  H2  EPW O   H1  
H2  EPW O   H1  H2  EPW O   H1  H2  EPW O   H1  H2  EPW O   H1  H2  EPW O   H1  
H2  EPW O   H1  H2  EPW O   H1  H2  EPW O   H1  H2  EPW O   H1  H2  EPW O   H1  
H2  EPW O   H1  H2  EPW O   H1  H2  EPW O   H1  H2  EPW O   H1  H2  EPW O   H1  
H2  EPW O   H1  H2  EPW O   H1  H2  EPW O   H1  H2  EPW O   H1  H2  EPW O   H1  
H2  EPW O   H1  H2  EPW O   H1  H2  EPW O   H1  H2  EPW O   H1  H2  EPW O   H1  
H2  EPW O   H1  H2  EPW O   H1  H2  EPW O   H1  H2  EPW O   H1  H2  EPW O   H1  
H2  EPW O   H1  H2  EPW O   H1  H2  EPW O   H1  H2  EPW O   H1  H2  EPW O   H1  
H2  EPW O   H1  H2  EPW O   H1  H2  EPW O   H1  H2  EPW O   H1  H2  EPW O   H1  
H2  EPW O   H1  H2  EPW O   H1  H2  EPW O   H1  H2  EPW O   H1  H2  EPW O   H1  
H2  EPW O   H1  H2  EPW O   H1  H2  EPW O   H1  H2  EPW O   H1  H2  EPW O   H1  
H2  EPW O   H1  H2  EPW O   H1  H2  EPW O   H1  H2  EPW O   H1  H2  EPW O   H1  
H2  EPW O   H1  H2  EPW O   H1  H2  EPW O   H1  H2  EPW O   H1  H2  EPW O   H1  
H2  EPW O   H1  H2  EPW O   H1  H2  EPW O   H1  H2  EPW O   H1  H2  EPW O   H1  
H2  EPW O   H1  H2  EPW O   H1  H2  EPW O   H1  H2  EPW O   H1  H2  EPW O   H1  
H2  EPW O   H1  H2  EPW O   H1  H2  EPW O   H1  H2  EPW O   H1  H2  EPW O   H1  
H2  EPW O   H1  H2  EPW O   H1  H2  EPW O   H1  H2  EPW O   H1  H2  EPW O   H1  
H2  EPW O   H1  H2  EPW O   H1  H2  EPW O   H1  H2  EPW O   H1  H2  EPW O   H1  
H2  EPW O   H1  H2  EPW O   H1  H2  EPW O   H1  H2  EPW O   H1  H2  EPW O   H1  
H2  EPW O   H1  H2  EPW O   H1  H2  EPW O   H1  H2  EPW O   H1  H2  EPW O   H1  
H2  EPW O   H1  H2  EPW O   H1  H2  EPW O   H1  H2  EPW O   H1  H2  EPW O   H1  
H2  EPW O   H1  H2  EPW O   H1  H2  EPW O   H1  H2  EPW O   H1  H2  EPW O   H1  
H2  EPW O   H1  H2  EPW O   H1  H2  EPW O   H1  H2  EPW O   H1  H2  EPW O   H1  
H2  EPW O   H1  H2  EPW O   H1  H2  EPW O   H1  H2  EPW O   H1  H2  EPW O   H1  
H2  EPW O   H1  H2  EPW O   H1  H2  EPW O   H1  H2  EPW O   H1  H2  EPW O   H1  
H2  EPW O   H1  H2  EPW O   H1  H2  EPW O   H1  H2  EPW O   H1  H2  EPW O   H1  
H2  EPW O   H1  H2  EPW O   H1  H2  EPW O   H1  H2  EPW O   H1  H2  EPW O   H1  
H2  EPW O   H1  H2  EPW O   H1  H2  EPW O   H1  H2  EPW O   H1  H2  EPW O   H1  
H2  EPW O   H1  H2  EPW O   H1  H2  EPW O   H1  H2  EPW O   H1  H2  EPW O   H1  
H2  EPW O   H1  H2  EPW O   H1  H2  EPW O   H1  H2  EPW O   H1  H2  EPW O   H1  
H2  EPW O   H1  H2  EPW O   H1  H2  EPW O   H1  H2  EPW O   H1  H2  EPW O   H1  
H2  EPW O   H1  H2  EPW O   H1  H2  EPW O   H1  H2  EPW O   H1  H2  EPW O   H1  
H2  EPW O   H1  H2  EPW O   H1  H2  EPW O   H1  H2  EPW O   H1  H2  EPW O   H1  
H2  EPW O   H1  H2  EPW O   H1  H2  EPW O   H1  H2  EPW O   H1  H2  EPW O   H1  
H2  EPW O   H1  H2  EPW O   H1  H2  EPW O   H1  H2  EPW O   H1  H2  EPW O   H1  
H2  EPW O   H1  H2  EPW O   H1  H2  EPW O   H1  H2  EPW O   H1  H2  EPW O   H1  
H2  EPW O   H1  H2  EPW O   H1  H2  EPW O   H1  H2  EPW O   H1  H2  EPW O   H1  
H2  EPW O   H1  H2  EPW O   H1  H2  EPW O   H1  H2  EPW O   H1  H2  EPW O   H1  
H2  EPW O   H1  H2  EPW O   H1  H2  EPW O   H1  H2  EPW O   H1  H2  EPW O   H1  
H2  EPW O   H1  H2  EPW O   H1  H2  EPW O   H1  H2  EPW O   H1  H2  EPW O   H1  
H2  EPW O   H1  H2  EPW O   H1  H2  EPW O   H1  H2  EPW O   H1  H2  EPW O   H1  
H2  EPW O   H1  H2  EPW O   H1  H2  EPW O   H1  H2  EPW O   H1  H2  EPW O   H1  
H2  EPW O   H1  H2  EPW O   H1  H2  EPW O   H1  H2  EPW O   H1  H2  EPW O   H1  
H2  EPW O   H1  H2  EPW O   H1  H2  EPW O   H1  H2  EPW O   H1  H2  EPW O   H1  
H2  EPW O   H1  H2  EPW O   H1  H2  EPW O   H1  H2  EPW O   H1  H2  EPW O   H1  
H2  EPW O   H1  H2  EPW O   H1  H2  EPW O   H1  H2  EPW O   H1  H2  EPW O   H1  
H2  EPW O   H1  H2  EPW O   H1  H2  EPW O   H1  H2  EPW O   H1  H2  EPW O   H1  
H2  EPW O   H1  H2  EPW O   H1  H2  EPW O   H1  H2  EPW O   H1  H2  EPW O   H1  
H2  EPW O   H1  H2  EPW O   H1  H2  EPW O   H1  H2  EPW O   H1  H2  EPW O   H1  
H2  EPW O   H1  H2  EPW O   H1  H2  EPW O   H1  H2  EPW O   H1  H2  EPW O   H1  
H2  EPW O   H1  H2  EPW O   H1  H2  EPW O   H1  H2  EPW O   H1  H2  EPW O   H1  
H2  EPW O   H1  H2  EPW O   H1  H2  EPW O   H1  H2  EPW O   H1  H2  EPW O   H1  
H2  EPW O   H1  H2  EPW O   H1  H2  EPW O   H1  H2  EPW O   H1  H2  EPW O   H1  
H2  EPW O   H1  H2  EPW O   H1  H2  EPW O   H1  H2  EPW O   H1  H2  EPW O   H1  
H2  EPW O   H1  H2  EPW O   H1  H2  EPW O   H1  H2  EPW O   H1  H2  EPW O   H1  
H2  EPW O   H1  H2  EPW O   H1  H2  EPW O   H1  H2  EPW O   H1  H2  EPW O   H1  
H2  EPW O   H1  H2  EPW O   H1  H2  EPW O   H1  H2  EPW O   H1  H2  EPW O   H1  
H2  EPW O   H1  H2  EPW O   H1  H2  EPW O   H1  H2  EPW O   H1  H2  EPW O   H1  
H2  EPW O   H1  H2  EPW O   H1  H2  EPW O   H1  H2  EPW O   H1  H2  EPW O   H1  
H2  EPW O   H1  H2  EPW O   H1  H2  EPW O   H1  H2  EPW O   H1  H2  EPW O   H1  
H2  EPW O   H1  H2  EPW O   H1  H2  EPW O   H1  H2  EPW O   H1  H2  EPW O   H1  
H2  EPW O   H1  H2  EPW O   H1  H2  EPW O   H1  H2  EPW O   H1  H2  EPW O   H1  
H2  EPW O   H1  H2  EPW O   H1  H2  EPW O   H1  H2  EPW O   H1  H2  EPW O   H1  
H2  EPW O   H1  H2  EPW O   H1  H2  EPW O   H1  H2  EPW O   H1  H2  EPW O   H1  
H2  EPW O   H1  H2  EPW O   H1  H2  EPW O   H1  H2  EPW O   H1  H2  EPW O   H1  
H2  EPW O   H1  H2  EPW O   H1  H2  EPW O   H1  H2  EPW O   H1  H2  EPW O   H1  
H2  EPW O   H1  H2  EPW O   H1  H2  EPW O   H1  H2  EPW O   H1  H2  EPW O   H1  
H2  EPW O   H1  H2  EPW O   H1  H2  EPW O   H1  H2  EPW O   H1  H2  EPW O   H1  
H2  EPW O   H1  H2  EPW O   H1  H2  EPW O   H1  H2  EPW O   H1  H2  EPW O   H1  
H2  EPW O   H1  H2  EPW O   H1  H2  EPW O   H1  H2  EPW O   H1  H2  EPW O   H1  
H2  EPW O   H1  H2  EPW O   H1  H2  EPW O   H1  H2  EPW O   H1  H2  EPW O   H1  
H2  EPW O   H1  H2  EPW O   H1  H2  EPW O   H1  H2  EPW O   H1  H2  EPW O   H1  
H2  EPW O   H1  H2  EPW O   H1  H2  EPW O   H1  H2  EPW O   H1  H2  EPW O   H1  
H2  EPW O   H1  H2  EPW O   H1  H2  EPW O   H1  H2  EPW O   H1  H2  EPW O   H1  
H2  EPW O   H1  H2  EPW O   H1  H2  EPW O   H1  H2  EPW O   H1  H2  EPW O   H1  
H2  EPW O   H1  H2  EPW O   H1  H2  EPW O   H1  H2  EPW O   H1  H2  EPW O   H1  
H2  EPW O   H1  H2  EPW O   H1  H2  EPW O   H1  H2  EPW O   H1  H2  EPW O   H1  
H2  EPW O   H1  H2  EPW O   H1  H2  EPW O   H1  H2  EPW O   H1  H2  EPW O   H1  
H2  EPW O   H1  H2  EPW O   H1  H2  EPW O   H1  H2  EPW O   H1  H2  EPW O   H1  
H2  EPW O   H1  H2  EPW O   H1  H2  EPW O   H1  H2  EPW O   H1  H2  EPW O   H1  
H2  EPW O   H1  H2  EPW O   H1  H2  EPW O   H1  H2  EPW O   H1  H2  EPW O   H1  
H2  EPW O   H1  H2  EPW O   H1  H2  EPW O   H1  H2  EPW O   H1  H2  EPW O   H1  
H2  EPW O   H1  H2  EPW O   H1  H2  EPW O   H1  H2  EPW O   H1  H2  EPW O   H1  
H2  EPW O   H1  H2  EPW O   H1  H2  EPW O   H1  H2  EPW O   H1  H2  EPW O   H1  
H2  EPW O   H1  H2  EPW O   H1  H2  EPW O   H1  H2  EPW O   H1  H2  EPW O   H1  
H2  EPW O   H1  H2  EPW O   H1  H2  EPW O   H1  H2  EPW O   H1  H2  EPW O   H1  
H2  EPW O   H1  H2  EPW O   H1  H2  EPW O   H1  H2  EPW O   H1  H2  EPW O   H1  
H2  EPW O   H1  H2  EPW O   H1  H2  EPW O   H1  H2  EPW O   H1  H2  EPW O   H1  
H2  EPW O   H1  H2  EPW O   H1  H2  EPW O   H1  H2  EPW O   H1  H2  EPW O   H1  
H2  EPW O   H1  H2  EPW O   H1  H2  EPW O   H1  H2  EPW O   H1  H2  EPW O   H1  
H2  EPW O   H1  H2  EPW O   H1  H2  EPW O   H1  H2  EPW O   H1  H2  EPW O   H1  
H2  EPW O   H1  H2  EPW O   H1  H2  EPW O   H1  H2  EPW O   H1  H2  EPW O   H1  
H2  EPW O   H1  H2  EPW O   H1  H2  EPW O   H1  H2  EPW O   H1  H2  EPW O   H1  
H2  EPW O   H1  H2  EPW O   H1  H2  EPW O   H1  H2  EPW O   H1  H2  EPW O   H1  
H2  EPW O   H1  H2  EPW O   H1  H2  EPW O   H1  H2  EPW O   H1  H2  EPW O   H1  
H2  EPW O   H1  H2  EPW O   H1  H2  EPW O   H1  H2  EPW O   H1  H2  EPW O   H1  
H2  EPW O   H1  H2  EPW O   H1  H2  EPW O   H1  H2  EPW O   H1  H2  EPW O   H1  
H2  EPW O   H1  H2  EPW O   H1  H2  EPW O   H1  H2  EPW O   H1  H2  EPW O   H1  
H2  EPW O   H1  H2  EPW O   H1  H2  EPW O   H1  H2  EPW O   H1  H2  EPW O   H1  
H2  EPW O   H1  H2  EPW O   H1  H2  EPW O   H1  H2  EPW O   H1  H2  EPW O   H1  
H2  EPW O   H1  H2  EPW O   H1  H2  EPW O   H1  H2  EPW O   H1  H2  EPW O   H1  
H2  EPW O   H1  H2  EPW O   H1  H2  EPW O   H1  H2  EPW O   H1  H2  EPW O   H1  
H2  EPW O   H1  H2  EPW O   H1  H2  EPW O   H1  H2  EPW O   H1  H2  EPW O   H1  
H2  EPW O   H1  H2  EPW O   H1  H2  EPW O   H1  H2  EPW O   H1  H2  EPW O   H1  
H2  EPW O   H1  H2  EPW O   H1  H2  EPW O   H1  H2  EPW O   H1  H2  EPW O   H1  
H2  EPW O   H1  H2  EPW O   H1  H2  EPW O   H1  H2  EPW O   H1  H2  EPW O   H1  
H2  EPW O   H1  H2  EPW O   H1  H2  EPW O   H1  H2  EPW O   H1  H2  EPW O   H1  
H2  EPW O   H1  H2  EPW O   H1  H2  EPW O   H1  H2  EPW O   H1  H2  EPW O   H1  
H2  EPW O   H1  H2  EPW O   H1  H2  EPW O   H1  H2  EPW O   H1  H2  EPW O   H1  
H2  EPW O   H1  H2  EPW O   H1  H2  EPW O   H1  H2  EPW O   H1  H2  EPW O   H1  
H2  EPW O   H1  H2  EPW O   H1  H2  EPW O   H1  H2  EPW O   H1  H2  EPW O   H1  
H2  EPW O   H1  H2  EPW O   H1  H2  EPW O   H1  H2  EPW O   H1  H2  EPW O   H1  
H2  EPW O   H1  H2  EPW O   H1  H2  EPW O   H1  H2  EPW O   H1  H2  EPW O   H1  
H2  EPW O   H1  H2  EPW O   H1  H2  EPW O   H1  H2  EPW O   H1  H2  EPW O   H1  
H2  EPW O   H1  H2  EPW O   H1  H2  EPW O   H1  H2  EPW O   H1  H2  EPW O   H1  
H2  EPW O   H1  H2  EPW O   H1  H2  EPW O   H1  H2  EPW O   H1  H2  EPW O   H1  
H2  EPW O   H1  H2  EPW O   H1  H2  EPW O   H1  H2  EPW O   H1  H2  EPW O   H1  
H2  EPW O   H1  H2  EPW O   H1  H2  EPW O   H1  H2  EPW O   H1  H2  EPW O   H1  
H2  EPW O   H1  H2  EPW O   H1  H2  EPW O   H1  H2  EPW O   H1  H2  EPW O   H1  
H2  EPW O   H1  H2  EPW O   H1  H2  EPW O   H1  H2  EPW O   H1  H2  EPW O   H1  
H2  EPW O   H1  H2  EPW O   H1  H2  EPW O   H1  H2  EPW O   H1  H2  EPW O   H1  
H2  EPW O   H1  H2  EPW O   H1  H2  EPW O   H1  H2  EPW O   H1  H2  EPW O   H1  
H2  EPW O   H1  H2  EPW O   H1  H2  EPW O   H1  H2  EPW O   H1  H2  EPW O   H1  
H2  EPW O   H1  H2  EPW O   H1  H2  EPW O   H1  H2  EPW O   H1  H2  EPW O   H1  
H2  EPW O   H1  H2  EPW O   H1  H2  EPW O   H1  H2  EPW O   H1  H2  EPW O   H1  
H2  EPW O   H1  H2  EPW O   H1  H2  EPW O   H1  H2  EPW O   H1  H2  EPW O   H1  
H2  EPW O   H1  H2  EPW O   H1  H2  EPW O   H1  H2  EPW O   H1  H2  EPW O   H1  
H2  EPW O   H1  H2  EPW O   H1  H2  EPW O   H1  H2  EPW O   H1  H2  EPW O   H1  
H2  EPW O   H1  H2  EPW O   H1  H2  EPW O   H1  H2  EPW O   H1  H2  EPW O   H1  
H2  EPW O   H1  H2  EPW O   H1  H2  EPW O   H1  H2  EPW O   H1  H2  EPW O   H1  
H2  EPW O   H1  H2  EPW O   H1  H2  EPW O   H1  H2  EPW O   H1  H2  EPW O   H1  
H2  EPW O   H1  H2  EPW O   H1  H2  EPW O   H1  H2  EPW O   H1  H2  EPW O   H1  
H2  EPW O   H1  H2  EPW O   H1  H2  EPW O   H1  H2  EPW O   H1  H2  EPW O   H1  
H2  EPW O   H1  H2  EPW O   H1  H2  EPW O   H1  H2  EPW O   H1  H2  EPW O   H1  
H2  EPW O   H1  H2  EPW O   H1  H2  EPW O   H1  H2  EPW O   H1  H2  EPW O   H1  
H2  EPW O   H1  H2  EPW O   H1  H2  EPW O   H1  H2  EPW O   H1  H2  EPW O   H1  
H2  EPW O   H1  H2  EPW O   H1  H2  EPW O   H1  H2  EPW O   H1  H2  EPW O   H1  
H2  EPW O   H1  H2  EPW O   H1  H2  EPW O   H1  H2  EPW O   H1  H2  EPW O   H1  
H2  EPW O   H1  H2  EPW O   H1  H2  EPW O   H1  H2  EPW O   H1  H2  EPW O   H1  
H2  EPW O   H1  H2  EPW O   H1  H2  EPW O   H1  H2  EPW O   H1  H2  EPW O   H1  
H2  EPW O   H1  H2  EPW O   H1  H2  EPW O   H1  H2  EPW O   H1  H2  EPW O   H1  
H2  EPW O   H1  H2  EPW O   H1  H2  EPW O   H1  H2  EPW O   H1  H2  EPW O   H1  
H2  EPW O   H1  H2  EPW O   H1  H2  EPW O   H1  H2  EPW O   H1  H2  EPW O   H1  
H2  EPW O   H1  H2  EPW O   H1  H2  EPW O   H1  H2  EPW O   H1  H2  EPW O   H1  
H2  EPW O   H1  H2  EPW O   H1  H2  EPW O   H1  H2  EPW O   H1  H2  EPW O   H1  
H2  EPW O   H1  H2  EPW O   H1  H2  EPW O   H1  H2  EPW O   H1  H2  EPW O   H1  
H2  EPW O   H1  H2  EPW O   H1  H2  EPW O   H1  H2  EPW O   H1  H2  EPW O   H1  
H2  EPW O   H1  H2  EPW O   H1  H2  EPW O   H1  H2  EPW O   H1  H2  EPW O   H1  
H2  EPW O   H1  H2  EPW O   H1  H2  EPW O   H1  H2  EPW O   H1  H2  EPW O   H1  
H2  EPW O   H1  H2  EPW O   H1  H2  EPW O   H1  H2  EPW O   H1  H2  EPW O   H1  
H2  EPW O   H1  H2  EPW O   H1  H2  EPW O   H1  H2  EPW O   H1  H2  EPW O   H1  
H2  EPW O   H1  H2  EPW O   H1  H2  EPW O   H1  H2  EPW O   H1  H2  EPW O   H1  
H2  EPW O   H1  H2  EPW O   H1  H2  EPW O   H1  H2  EPW O   H1  H2  EPW O   H1  
H2  EPW O   H1  H2  EPW O   H1  H2  EPW O   H1  H2  EPW O   H1  H2  EPW O   H1  
H2  EPW O   H1  H2  EPW O   H1  H2  EPW O   H1  H2  EPW O   H1  H2  EPW O   H1  
H2  EPW O   H1  H2  EPW O   H1  H2  EPW O   H1  H2  EPW O   H1  H2  EPW O   H1  
H2  EPW O   H1  H2  EPW O   H1  H2  EPW O   H1  H2  EPW O   H1  H2  EPW O   H1  
H2  EPW O   H1  H2  EPW O   H1  H2  EPW O   H1  H2  EPW O   H1  H2  EPW O   H1  
H2  EPW O   H1  H2  EPW O   H1  H2  EPW O   H1  H2  EPW O   H1  H2  EPW O   H1  
H2  EPW O   H1  H2  EPW O   H1  H2  EPW O   H1  H2  EPW O   H1  H2  EPW O   H1  
H2  EPW O   H1  H2  EPW O   H1  H2  EPW O   H1  H2  EPW O   H1  H2  EPW O   H1  
H2  EPW O   H1  H2  EPW O   H1  H2  EPW O   H1  H2  EPW O   H1  H2  EPW O   H1  
H2  EPW O   H1  H2  EPW O   H1  H2  EPW O   H1  H2  EPW O   H1  H2  EPW O   H1  
H2  EPW O   H1  H2  EPW O   H1  H2  EPW O   H1  H2  EPW O   H1  H2  EPW O   H1  
H2  EPW O   H1  H2  EPW O   H1  H2  EPW O   H1  H2  EPW O   H1  H2  EPW O   H1  
H2  EPW O   H1  H2  EPW O   H1  H2  EPW O   H1  H2  EPW O   H1  H2  EPW O   H1  
H2  EPW O   H1  H2  EPW O   H1  H2  EPW O   H1  H2  EPW O   H1  H2  EPW O   H1  
H2  EPW O   H1  H2  EPW O   H1  H2  EPW O   H1  H2  EPW O   H1  H2  EPW O   H1  
H2  EPW O   H1  H2  EPW O   H1  H2  EPW O   H1  H2  EPW O   H1  H2  EPW O   H1  
H2  EPW O   H1  H2  EPW O   H1  H2  EPW O   H1  H2  EPW O   H1  H2  EPW O   H1  
H2  EPW O   H1  H2  EPW O   H1  H2  EPW O   H1  H2  EPW O   H1  H2  EPW O   H1  
H2  EPW O   H1  H2  EPW O   H1  H2  EPW O   H1  H2  EPW O   H1  H2  EPW O   H1  
H2  EPW O   H1  H2  EPW O   H1  H2  EPW O   H1  H2  EPW O   H1  H2  EPW O   H1  
H2  EPW O   H1  H2  EPW O   H1  H2  EPW O   H1  H2  EPW O   H1  H2  EPW O   H1  
H2  EPW O   H1  H2  EPW O   H1  H2  EPW O   H1  H2  EPW O   H1  H2  EPW O   H1  
H2  EPW O   H1  H2  EPW O   H1  H2  EPW O   H1  H2  EPW O   H1  H2  EPW O   H1  
H2  EPW O   H1  H2  EPW O   H1  H2  EPW O   H1  H2  EPW O   H1  H2  EPW O   H1  
H2  EPW O   H1  H2  EPW O   H1  H2  EPW O   H1  H2  EPW O   H1  H2  EPW O   H1  
H2  EPW O   H1  H2  EPW O   H1  H2  EPW O   H1  H2  EPW O   H1  H2  EPW O   H1  
H2  EPW O   H1  H2  EPW O   H1  H2  EPW O   H1  H2  EPW O   H1  H2  EPW O   H1  
H2  EPW O   H1  H2  EPW O   H1  H2  EPW O   H1  H2  EPW O   H1  H2  EPW O   H1  
H2  EPW O   H1  H2  EPW O   H1  H2  EPW O   H1  H2  EPW O   H1  H2  EPW O   H1  
H2  EPW O   H1  H2  EPW O   H1  H2  EPW O   H1  H2  EPW O   H1  H2  EPW O   H1  
H2  EPW O   H1  H2  EPW O   H1  H2  EPW O   H1  H2  EPW O   H1  H2  EPW O   H1  
H2  EPW O   H1  H2  EPW O   H1  H2  EPW O   H1  H2  EPW O   H1  H2  EPW O   H1  
H2  EPW O   H1  H2  EPW O   H1  H2  EPW O   H1  H2  EPW O   H1  H2  EPW O   H1  
H2  EPW O   H1  H2  EPW O   H1  H2  EPW O   H1  H2  EPW O   H1  H2  EPW O   H1  
H2  EPW O   H1  H2  EPW O   H1  H2  EPW O   H1  H2  EPW O   H1  H2  EPW O   H1  
H2  EPW O   H1  H2  EPW O   H1  H2  EPW O   H1  H2  EPW O   H1  H2  EPW O   H1  
H2  EPW O   H1  H2  EPW O   H1  H2  EPW O   H1  H2  EPW O   H1  H2  EPW O   H1  
H2  EPW O   H1  H2  EPW O   H1  H2  EPW O   H1  H2  EPW O   H1  H2  EPW O   H1  
H2  EPW O   H1  H2  EPW O   H1  H2  EPW O   H1  H2  EPW O   H1  H2  EPW O   H1  
H2  EPW O   H1  H2  EPW O   H1  H2  EPW O   H1  H2  EPW O   H1  H2  EPW O   H1  
H2  EPW O   H1  H2  EPW O   H1  H2  EPW O   H1  H2  EPW O   H1  H2  EPW O   H1  
H2  EPW O   H1  H2  EPW O   H1  H2  EPW O   H1  H2  EPW O   H1  H2  EPW O   H1  
H2  EPW O   H1  H2  EPW O   H1  H2  EPW O   H1  H2  EPW O   H1  H2  EPW O   H1  
H2  EPW O   H1  H2  EPW O   H1  H2  EPW O   H1  H2  EPW O   H1  H2  EPW O   H1  
H2  EPW O   H1  H2  EPW O   H1  H2  EPW O   H1  H2  EPW O   H1  H2  EPW O   H1  
H2  EPW O   H1  H2  EPW O   H1  H2  EPW O   H1  H2  EPW O   H1  H2  EPW O   H1  
H2  EPW O   H1  H2  EPW O   H1  H2  EPW O   H1  H2  EPW O   H1  H2  EPW O   H1  
H2  EPW O   H1  H2  EPW O   H1  H2  EPW O   H1  H2  EPW O   H1  H2  EPW O   H1  
H2  EPW O   H1  H2  EPW O   H1  H2  EPW O   H1  H2  EPW O   H1  H2  EPW O   H1  
H2  EPW O   H1  H2  EPW O   H1  H2  EPW O   H1  H2  EPW O   H1  H2  EPW O   H1  
H2  EPW O   H1  H2  EPW O   H1  H2  EPW O   H1  H2  EPW O   H1  H2  EPW O   H1  
H2  EPW O   H1  H2  EPW O   H1  H2  EPW O   H1  H2  EPW O   H1  H2  EPW O   H1  
H2  EPW O   H1  H2  EPW O   H1  H2  EPW O   H1  H2  EPW O   H1  H2  EPW O   H1  
H2  EPW O   H1  H2  EPW O   H1  H2  EPW O   H1  H2  EPW O   H1  H2  EPW O   H1  
H2  EPW O   H1  H2  EPW O   H1  H2  EPW O   H1  H2  EPW O   H1  H2  EPW O   H1  
H2  EPW O   H1  H2  EPW O   H1  H2  EPW O   H1  H2  EPW O   H1  H2  EPW O   H1  
H2  EPW O   H1  H2  EPW O   H1  H2  EPW O   H1  H2  EPW O   H1  H2  EPW O   H1  
H2  EPW O   H1  H2  EPW O   H1  H2  EPW O   H1  H2  EPW O   H1  H2  EPW O   H1  
H2  EPW O   H1  H2  EPW O   H1  H2  EPW O   H1  H2  EPW O   H1  H2  EPW O   H1  
H2  EPW O   H1  H2  EPW O   H1  H2  EPW O   H1  H2  EPW O   H1  H2  EPW O   H1  
H2  EPW O   H1  H2  EPW O   H1  H2  EPW O   H1  H2  EPW O   H1  H2  EPW O   H1  
H2  EPW O   H1  H2  EPW O   H1  H2  EPW O   H1  H2  EPW O   H1  H2  EPW O   H1  
H2  EPW O   H1  H2  EPW O   H1  H2  EPW O   H1  H2  EPW O   H1  H2  EPW O   H1  
H2  EPW O   H1  H2  EPW O   H1  H2  EPW O   H1  H2  EPW O   H1  H2  EPW O   H1  
H2  EPW O   H1  H2  EPW O   H1  H2  EPW O   H1  H2  EPW O   H1  H2  EPW O   H1  
H2  EPW O   H1  H2  EPW O   H1  H2  EPW O   H1  H2  EPW O   H1  H2  EPW O   H1  
H2  EPW O   H1  H2  EPW O   H1  H2  EPW O   H1  H2  EPW O   H1  H2  EPW O   H1  
H2  EPW O   H1  H2  EPW O   H1  H2  EPW O   H1  H2  EPW O   H1  H2  EPW O   H1  
H2  EPW O   H1  H2  EPW O   H1  H2  EPW O   H1  H2  EPW O   H1  H2  EPW O   H1  
H2  EPW O   H1  H2  EPW O   H1  H2  EPW O   H1  H2  EPW O   H1  H2  EPW O   H1  
H2  EPW O   H1  H2  EPW O   H1  H2  EPW O   H1  H2  EPW O   H1  H2  EPW O   H1  
H2  EPW O   H1  H2  EPW O   H1  H2  EPW O   H1  H2  EPW O   H1  H2  EPW O   H1  
H2  EPW O   H1  H2  EPW O   H1  H2  EPW O   H1  H2  EPW O   H1  H2  EPW O   H1  
H2  EPW O   H1  H2  EPW O   H1  H2  EPW O   H1  H2  EPW O   H1  H2  EPW O   H1  
H2  EPW O   H1  H2  EPW O   H1  H2  EPW O   H1  H2  EPW O   H1  H2  EPW O   H1  
H2  EPW O   H1  H2  EPW O   H1  H2  EPW O   H1  H2  EPW O   H1  H2  EPW O   H1  
H2  EPW O   H1  H2  EPW O   H1  H2  EPW O   H1  H2  EPW O   H1  H2  EPW O   H1  
H2  EPW O   H1  H2  EPW O   H1  H2  EPW O   H1  H2  EPW O   H1  H2  EPW O   H1  
H2  EPW O   H1  H2  EPW O   H1  H2  EPW O   H1  H2  EPW O   H1  H2  EPW O   H1  
H2  EPW O   H1  H2  EPW O   H1  H2  EPW O   H1  H2  EPW O   H1  H2  EPW O   H1  
H2  EPW O   H1  H2  EPW O   H1  H2  EPW O   H1  H2  EPW O   H1  H2  EPW O   H1  
H2  EPW O   H1  H2  EPW O   H1  H2  EPW O   H1  H2  EPW O   H1  H2  EPW O   H1  
H2  EPW O   H1  H2  EPW O   H1  H2  EPW O   H1  H2  EPW O   H1  H2  EPW O   H1  
H2  EPW O   H1  H2  EPW O   H1  H2  EPW O   H1  H2  EPW O   H1  H2  EPW O   H1  
H2  EPW O   H1  H2  EPW O   H1  H2  EPW O   H1  H2  EPW O   H1  H2  EPW O   H1  
H2  EPW O   H1  H2  EPW O   H1  H2  EPW O   H1  H2  EPW O   H1  H2  EPW O   H1  
H2  EPW O   H1  H2  EPW O   H1  H2  EPW O   H1  H2  EPW O   H1  H2  EPW O   H1  
H2  EPW O   H1  H2  EPW O   H1  H2  EPW O   H1  H2  EPW O   H1  H2  EPW O   H1  
H2  EPW O   H1  H2  EPW O   H1  H2  EPW O   H1  H2  EPW O   H1  H2  EPW O   H1  
H2  EPW O   H1  H2  EPW O   H1  H2  EPW O   H1  H2  EPW O   H1  H2  EPW O   H1  
H2  EPW O   H1  H2  EPW O   H1  H2  EPW O   H1  H2  EPW O   H1  H2  EPW O   H1  
H2  EPW O   H1  H2  EPW O   H1  H2  EPW O   H1  H2  EPW O   H1  H2  EPW O   H1  
H2  EPW O   H1  H2  EPW O   H1  H2  EPW O   H1  H2  EPW O   H1  H2  EPW O   H1  
H2  EPW O   H1  H2  EPW O   H1  H2  EPW O   H1  H2  EPW O   H1  H2  EPW O   H1  
H2  EPW O   H1  H2  EPW O   H1  H2  EPW O   H1  H2  EPW O   H1  H2  EPW O   H1  
H2  EPW O   H1  H2  EPW O   H1  H2  EPW O   H1  H2  EPW O   H1  H2  EPW O   H1  
H2  EPW O   H1  H2  EPW O   H1  H2  EPW O   H1  H2  EPW O   H1  H2  EPW O   H1  
H2  EPW O   H1  H2  EPW O   H1  H2  EPW O   H1  H2  EPW O   H1  H2  EPW O   H1  
H2  EPW O   H1  H2  EPW O   H1  H2  EPW O   H1  H2  EPW O   H1  H2  EPW O   H1  
H2  EPW O   H1  H2  EPW O   H1  H2  EPW O   H1  H2  EPW O   H1  H2  EPW O   H1  
H2  EPW O   H1  H2  EPW O   H1  H2  EPW O   H1  H2  EPW O   H1  H2  EPW O   H1  
H2  EPW O   H1  H2  EPW O   H1  H2  EPW O   H1  H2  EPW O   H1  H2  EPW O   H1  
H2  EPW O   H1  H2  EPW O   H1  H2  EPW O   H1  H2  EPW O   H1  H2  EPW O   H1  
H2  EPW O   H1  H2  EPW O   H1  H2  EPW O   H1  H2  EPW O   H1  H2  EPW O   H1  
H2  EPW O   H1  H2  EPW O   H1  H2  EPW O   H1  H2  EPW O   H1  H2  EPW O   H1  
H2  EPW O   H1  H2  EPW O   H1  H2  EPW O   H1  H2  EPW O   H1  H2  EPW O   H1  
H2  EPW O   H1  H2  EPW O   H1  H2  EPW O   H1  H2  EPW O   H1  H2  EPW O   H1  
H2  EPW O   H1  H2  EPW O   H1  H2  EPW O   H1  H2  EPW O   H1  H2  EPW O   H1  
H2  EPW O   H1  H2  EPW O   H1  H2  EPW O   H1  H2  EPW O   H1  H2  EPW O   H1  
H2  EPW O   H1  H2  EPW O   H1  H2  EPW O   H1  H2  EPW O   H1  H2  EPW O   H1  
H2  EPW O   H1  H2  EPW O   H1  H2  EPW O   H1  H2  EPW O   H1  H2  EPW O   H1  
H2  EPW O   H1  H2  EPW O   H1  H2  EPW O   H1  H2  EPW O   H1  H2  EPW O   H1  
H2  EPW O   H1  H2  EPW O   H1  H2  EPW O   H1  H2  EPW O   H1  H2  EPW O   H1  
H2  EPW O   H1  H2  EPW O   H1  H2  EPW O   H1  H2  EPW O   H1  H2  EPW O   H1  
H2  EPW O   H1  H2  EPW O   H1  H2  EPW O   H1  H2  EPW O   H1  H2  EPW O   H1  
H2  EPW O   H1  H2  EPW O   H1  H2  EPW O   H1  H2  EPW O   H1  H2  EPW O   H1  
H2  EPW O   H1  H2  EPW O   H1  H2  EPW O   H1  H2  EPW O   H1  H2  EPW O   H1  
H2  EPW O   H1  H2  EPW O   H1  H2  EPW O   H1  H2  EPW O   H1  H2  EPW O   H1  
H2  EPW O   H1  H2  EPW O   H1  H2  EPW O   H1  H2  EPW O   H1  H2  EPW O   H1  
H2  EPW O   H1  H2  EPW O   H1  H2  EPW O   H1  H2  EPW O   H1  H2  EPW O   H1  
H2  EPW O   H1  H2  EPW O   H1  H2  EPW O   H1  H2  EPW O   H1  H2  EPW O   H1  
H2  EPW O   H1  H2  EPW O   H1  H2  EPW O   H1  H2  EPW O   H1  H2  EPW O   H1  
H2  EPW O   H1  H2  EPW O   H1  H2  EPW O   H1  H2  EPW O   H1  H2  EPW O   H1  
H2  EPW O   H1  H2  EPW O   H1  H2  EPW O   H1  H2  EPW O   H1  H2  EPW O   H1  
H2  EPW O   H1  H2  EPW O   H1  H2  EPW O   H1  H2  EPW O   H1  H2  EPW O   H1  
H2  EPW O   H1  H2  EPW O   H1  H2  EPW O   H1  H2  EPW O   H1  H2  EPW O   H1  
H2  EPW O   H1  H2  EPW O   H1  H2  EPW O   H1  H2  EPW O   H1  H2  EPW O   H1  
H2  EPW O   H1  H2  EPW O   H1  H2  EPW O   H1  H2  EPW O   H1  H2  EPW O   H1  
H2  EPW O   H1  H2  EPW O   H1  H2  EPW O   H1  H2  EPW O   H1  H2  EPW O   H1  
H2  EPW O   H1  H2  EPW O   H1  H2  EPW O   H1  H2  EPW O   H1  H2  EPW O   H1  
H2  EPW O   H1  H2  EPW O   H1  H2  EPW O   H1  H2  EPW O   H1  H2  EPW O   H1  
H2  EPW O   H1  H2  EPW O   H1  H2  EPW O   H1  H2  EPW O   H1  H2  EPW O   H1  
H2  EPW O   H1  H2  EPW O   H1  H2  EPW O   H1  H2  EPW O   H1  H2  EPW O   H1  
H2  EPW O   H1  H2  EPW O   H1  H2  EPW O   H1  H2  EPW O   H1  H2  EPW O   H1  
H2  EPW O   H1  H2  EPW O   H1  H2  EPW O   H1  H2  EPW O   H1  H2  EPW O   H1  
H2  EPW O   H1  H2  EPW O   H1  H2  EPW O   H1  H2  EPW O   H1  H2  EPW O   H1  
H2  EPW O   H1  H2  EPW O   H1  H2  EPW O   H1  H2  EPW O   H1  H2  EPW O   H1  
H2  EPW O   H1  H2  EPW O   H1  H2  EPW O   H1  H2  EPW O   H1  H2  EPW O   H1  
H2  EPW O   H1  H2  EPW O   H1  H2  EPW O   H1  H2  EPW O   H1  H2  EPW O   H1  
H2  EPW O   H1  H2  EPW O   H1  H2  EPW O   H1  H2  EPW O   H1  H2  EPW O   H1  
H2  EPW O   H1  H2  EPW O   H1  H2  EPW O   H1  H2  EPW O   H1  H2  EPW O   H1  
H2  EPW O   H1  H2  EPW O   H1  H2  EPW O   H1  H2  EPW O   H1  H2  EPW O   H1  
H2  EPW O   H1  H2  EPW O   H1  H2  EPW O   H1  H2  EPW O   H1  H2  EPW O   H1  
H2  EPW O   H1  H2  EPW O   H1  H2  EPW O   H1  H2  EPW O   H1  H2  EPW O   H1  
H2  EPW O   H1  H2  EPW O   H1  H2  EPW O   H1  H2  EPW O   H1  H2  EPW O   H1  
H2  EPW O   H1  H2  EPW O   H1  H2  EPW O   H1  H2  EPW O   H1  H2  EPW O   H1  
H2  EPW O   H1  H2  EPW O   H1  H2  EPW O   H1  H2  EPW O   H1  H2  EPW O   H1  
H2  EPW O   H1  H2  EPW O   H1  H2  EPW O   H1  H2  EPW O   H1  H2  EPW O   H1  
H2  EPW O   H1  H2  EPW O   H1  H2  EPW O   H1  H2  EPW O   H1  H2  EPW O   H1  
H2  EPW O   H1  H2  EPW O   H1  H2  EPW O   H1  H2  EPW O   H1  H2  EPW O   H1  
H2  EPW O   H1  H2  EPW O   H1  H2  EPW O   H1  H2  EPW O   H1  H2  EPW O   H1  
H2  EPW O   H1  H2  EPW O   H1  H2  EPW O   H1  H2  EPW O   H1  H2  EPW O   H1  
H2  EPW O   H1  H2  EPW O   H1  H2  EPW O   H1  H2  EPW O   H1  H2  EPW O   H1  
H2  EPW O   H1  H2  EPW O   H1  H2  EPW O   H1  H2  EPW O   H1  H2  EPW O   H1  
H2  EPW O   H1  H2  EPW O   H1  H2  EPW O   H1  H2  EPW O   H1  H2  EPW O   H1  
H2  EPW O   H1  H2  EPW O   H1  H2  EPW O   H1  H2  EPW O   H1  H2  EPW O   H1  
H2  EPW O   H1  H2  EPW O   H1  H2  EPW O   H1  H2  EPW O   H1  H2  EPW O   H1  
H2  EPW O   H1  H2  EPW O   H1  H2  EPW O   H1  H2  EPW O   H1  H2  EPW O   H1  
H2  EPW O   H1  H2  EPW O   H1  H2  EPW O   H1  H2  EPW O   H1  H2  EPW O   H1  
H2  EPW O   H1  H2  EPW O   H1  H2  EPW O   H1  H2  EPW O   H1  H2  EPW O   H1  
H2  EPW O   H1  H2  EPW O   H1  H2  EPW O   H1  H2  EPW O   H1  H2  EPW O   H1  
H2  EPW O   H1  H2  EPW O   H1  H2  EPW O   H1  H2  EPW O   H1  H2  EPW O   H1  
H2  EPW O   H1  H2  EPW O   H1  H2  EPW O   H1  H2  EPW O   H1  H2  EPW O   H1  
H2  EPW O   H1  H2  EPW O   H1  H2  EPW O   H1  H2  EPW O   H1  H2  EPW O   H1  
H2  EPW O   H1  H2  EPW O   H1  H2  EPW O   H1  H2  EPW O   H1  H2  EPW O   H1  
H2  EPW O   H1  H2  EPW O   H1  H2  EPW O   H1  H2  EPW O   H1  H2  EPW O   H1  
H2  EPW O   H1  H2  EPW O   H1  H2  EPW O   H1  H2  EPW O   H1  H2  EPW O   H1  
H2  EPW O   H1  H2  EPW O   H1  H2  EPW O   H1  H2  EPW O   H1  H2  EPW O   H1  
H2  EPW O   H1  H2  EPW O   H1  H2  EPW O   H1  H2  EPW O   H1  H2  EPW O   H1  
H2  EPW O   H1  H2  EPW O   H1  H2  EPW O   H1  H2  EPW O   H1  H2  EPW O   H1  
H2  EPW O   H1  H2  EPW O   H1  H2  EPW O   H1  H2  EPW O   H1  H2  EPW O   H1  
H2  EPW O   H1  H2  EPW O   H1  H2  EPW O   H1  H2  EPW O   H1  H2  EPW O   H1  
H2  EPW O   H1  H2  EPW O   H1  H2  EPW O   H1  H2  EPW O   H1  H2  EPW O   H1  
H2  EPW O   H1  H2  EPW O   H1  H2  EPW O   H1  H2  EPW O   H1  H2  EPW O   H1  
H2  EPW O   H1  H2  EPW O   H1  H2  EPW O   H1  H2  EPW O   H1  H2  EPW O   H1  
H2  EPW O   H1  H2  EPW O   H1  H2  EPW O   H1  H2  EPW O   H1  H2  EPW O   H1  
H2  EPW O   H1  H2  EPW O   H1  H2  EPW O   H1  H2  EPW O   H1  H2  EPW O   H1  
H2  EPW O   H1  H2  EPW O   H1  H2  EPW O   H1  H2  EPW O   H1  H2  EPW O   H1  
H2  EPW O   H1  H2  EPW O   H1  H2  EPW O   H1  H2  EPW O   H1  H2  EPW O   H1  
H2  EPW O   H1  H2  EPW O   H1  H2  EPW O   H1  H2  EPW O   H1  H2  EPW O   H1  
H2  EPW O   H1  H2  EPW O   H1  H2  EPW O   H1  H2  EPW O   H1  H2  EPW O   H1  
H2  EPW O   H1  H2  EPW O   H1  H2  EPW O   H1  H2  EPW O   H1  H2  EPW O   H1  
H2  EPW O   H1  H2  EPW O   H1  H2  EPW O   H1  H2  EPW O   H1  H2  EPW O   H1  
H2  EPW O   H1  H2  EPW O   H1  H2  EPW O   H1  H2  EPW O   H1  H2  EPW O   H1  
H2  EPW O   H1  H2  EPW O   H1  H2  EPW O   H1  H2  EPW O   H1  H2  EPW O   H1  
H2  EPW O   H1  H2  EPW O   H1  H2  EPW O   H1  H2  EPW O   H1  H2  EPW O   H1  
H2  EPW O   H1  H2  EPW O   H1  H2  EPW O   H1  H2  EPW O   H1  H2  EPW O   H1  
H2  EPW O   H1  H2  EPW O   H1  H2  EPW O   H1  H2  EPW O   H1  H2  EPW O   H1  
H2  EPW O   H1  H2  EPW O   H1  H2  EPW O   H1  H2  EPW O   H1  H2  EPW O   H1  
H2  EPW O   H1  H2  EPW O   H1  H2  EPW O   H1  H2  EPW O   H1  H2  EPW O   H1  
H2  EPW O   H1  H2  EPW O   H1  H2  EPW O   H1  H2  EPW O   H1  H2  EPW O   H1  
H2  EPW O   H1  H2  EPW O   H1  H2  EPW O   H1  H2  EPW O   H1  H2  EPW O   H1  
H2  EPW O   H1  H2  EPW O   H1  H2  EPW O   H1  H2  EPW O   H1  H2  EPW O   H1  
H2  EPW O   H1  H2  EPW O   H1  H2  EPW O   H1  H2  EPW O   H1  H2  EPW O   H1  
H2  EPW O   H1  H2  EPW O   H1  H2  EPW O   H1  H2  EPW O   H1  H2  EPW O   H1  
H2  EPW O   H1  H2  EPW O   H1  H2  EPW O   H1  H2  EPW O   H1  H2  EPW O   H1  
H2  EPW O   H1  H2  EPW O   H1  H2  EPW O   H1  H2  EPW O   H1  H2  EPW O   H1  
H2  EPW O   H1  H2  EPW O   H1  H2  EPW O   H1  H2  EPW O   H1  H2  EPW O   H1  
H2  EPW O   H1  H2  EPW O   H1  H2  EPW O   H1  H2  EPW O   H1  H2  EPW O   H1  
H2  EPW O   H1  H2  EPW O   H1  H2  EPW O   H1  H2  EPW O   H1  H2  EPW O   H1  
H2  EPW O   H1  H2  EPW O   H1  H2  EPW O   H1  H2  EPW O   H1  H2  EPW O   H1  
H2  EPW O   H1  H2  EPW O   H1  H2  EPW O   H1  H2  EPW O   H1  H2  EPW O   H1  
H2  EPW O   H1  H2  EPW O   H1  H2  EPW O   H1  H2  EPW O   H1  H2  EPW O   H1  
H2  EPW O   H1  H2  EPW O   H1  H2  EPW O   H1  H2  EPW O   H1  H2  EPW O   H1  
H2  EPW O   H1  H2  EPW O   H1  H2  EPW O   H1  H2  EPW O   H1  H2  EPW O   H1  
H2  EPW O   H1  H2  EPW O   H1  H2  EPW O   H1  H2  EPW O   H1  H2  EPW O   H1  
H2  EPW O   H1  H2  EPW O   H1  H2  EPW O   H1  H2  EPW O   H1  H2  EPW O   H1  
H2  EPW O   H1  H2  EPW O   H1  H2  EPW O   H1  H2  EPW O   H1  H2  EPW O   H1  
H2  EPW O   H1  H2  EPW O   H1  H2  EPW O   H1  H2  EPW O   H1  H2  EPW O   H1  
H2  EPW O   H1  H2  EPW O   H1  H2  EPW O   H1  H2  EPW O   H1  H2  EPW O   H1  
H2  EPW O   H1  H2  EPW O   H1  H2  EPW O   H1  H2  EPW O   H1  H2  EPW O   H1  
H2  EPW O   H1  H2  EPW O   H1  H2  EPW O   H1  H2  EPW O   H1  H2  EPW O   H1  
H2  EPW O   H1  H2  EPW O   H1  H2  EPW O   H1  H2  EPW O   H1  H2  EPW O   H1  
H2  EPW O   H1  H2  EPW O   H1  H2  EPW O   H1  H2  EPW O   H1  H2  EPW O   H1  
H2  EPW O   H1  H2  EPW O   H1  H2  EPW O   H1  H2  EPW O   H1  H2  EPW O   H1  
H2  EPW O   H1  H2  EPW O   H1  H2  EPW O   H1  H2  EPW O   H1  H2  EPW O   H1  
H2  EPW O   H1  H2  EPW O   H1  H2  EPW O   H1  H2  EPW O   H1  H2  EPW O   H1  
H2  EPW O   H1  H2  EPW O   H1  H2  EPW O   H1  H2  EPW O   H1  H2  EPW O   H1  
H2  EPW O   H1  H2  EPW O   H1  H2  EPW O   H1  H2  EPW O   H1  H2  EPW O   H1  
H2  EPW O   H1  H2  EPW O   H1  H2  EPW O   H1  H2  EPW O   H1  H2  EPW O   H1  
H2  EPW O   H1  H2  EPW O   H1  H2  EPW O   H1  H2  EPW O   H1  H2  EPW O   H1  
H2  EPW O   H1  H2  EPW O   H1  H2  EPW O   H1  H2  EPW O   H1  H2  EPW O   H1  
H2  EPW O   H1  H2  EPW O   H1  H2  EPW O   H1  H2  EPW O   H1  H2  EPW O   H1  
H2  EPW O   H1  H2  EPW O   H1  H2  EPW O   H1  H2  EPW O   H1  H2  EPW O   H1  
H2  EPW O   H1  H2  EPW O   H1  H2  EPW O   H1  H2  EPW O   H1  H2  EPW O   H1  
H2  EPW O   H1  H2  EPW O   H1  H2  EPW O   H1  H2  EPW O   H1  H2  EPW O   H1  
H2  EPW O   H1  H2  EPW O   H1  H2  EPW O   H1  H2  EPW O   H1  H2  EPW O   H1  
H2  EPW O   H1  H2  EPW O   H1  H2  EPW O   H1  H2  EPW O   H1  H2  EPW O   H1  
H2  EPW O   H1  H2  EPW O   H1  H2  EPW O   H1  H2  EPW O   H1  H2  EPW O   H1  
H2  EPW O   H1  H2  EPW O   H1  H2  EPW O   H1  H2  EPW O   H1  H2  EPW O   H1  
H2  EPW O   H1  H2  EPW O   H1  H2  EPW O   H1  H2  EPW O   H1  H2  EPW O   H1  
H2  EPW O   H1  H2  EPW O   H1  H2  EPW O   H1  H2  EPW O   H1  H2  EPW O   H1  
H2  EPW O   H1  H2  EPW O   H1  H2  EPW O   H1  H2  EPW O   H1  H2  EPW O   H1  
H2  EPW O   H1  H2  EPW O   H1  H2  EPW O   H1  H2  EPW O   H1  H2  EPW O   H1  
H2  EPW O   H1  H2  EPW O   H1  H2  EPW O   H1  H2  EPW O   H1  H2  EPW O   H1  
H2  EPW O   H1  H2  EPW O   H1  H2  EPW O   H1  H2  EPW O   H1  H2  EPW O   H1  
H2  EPW O   H1  H2  EPW O   H1  H2  EPW O   H1  H2  EPW O   H1  H2  EPW O   H1  
H2  EPW O   H1  H2  EPW O   H1  H2  EPW O   H1  H2  EPW O   H1  H2  EPW O   H1  
H2  EPW O   H1  H2  EPW O   H1  H2  EPW O   H1  H2  EPW O   H1  H2  EPW O   H1  
H2  EPW O   H1  H2  EPW O   H1  H2  EPW O   H1  H2  EPW O   H1  H2  EPW O   H1  
H2  EPW O   H1  H2  EPW O   H1  H2  EPW O   H1  H2  EPW O   H1  H2  EPW O   H1  
H2  EPW O   H1  H2  EPW O   H1  H2  EPW O   H1  H2  EPW O   H1  H2  EPW O   H1  
H2  EPW O   H1  H2  EPW O   H1  H2  EPW O   H1  H2  EPW O   H1  H2  EPW O   H1  
H2  EPW O   H1  H2  EPW O   H1  H2  EPW O   H1  H2  EPW O   H1  H2  EPW O   H1  
H2  EPW O   H1  H2  EPW O   H1  H2  EPW O   H1  H2  EPW O   H1  H2  EPW O   H1  
H2  EPW O   H1  H2  EPW O   H1  H2  EPW O   H1  H2  EPW O   H1  H2  EPW O   H1  
H2  EPW O   H1  H2  EPW O   H1  H2  EPW O   H1  H2  EPW O   H1  H2  EPW O   H1  
H2  EPW O   H1  H2  EPW O   H1  H2  EPW O   H1  H2  EPW O   H1  H2  EPW O   H1  
H2  EPW O   H1  H2  EPW O   H1  H2  EPW O   H1  H2  EPW O   H1  H2  EPW O   H1  
H2  EPW O   H1  H2  EPW O   H1  H2  EPW O   H1  H2  EPW O   H1  H2  EPW O   H1  
H2  EPW O   H1  H2  EPW O   H1  H2  EPW O   H1  H2  EPW O   H1  H2  EPW O   H1  
H2  EPW O   H1  H2  EPW O   H1  H2  EPW O   H1  H2  EPW O   H1  H2  EPW O   H1  
H2  EPW O   H1  H2  EPW O   H1  H2  EPW O   H1  H2  EPW O   H1  H2  EPW O   H1  
H2  EPW O   H1  H2  EPW O   H1  H2  EPW O   H1  H2  EPW O   H1  H2  EPW O   H1  
H2  EPW O   H1  H2  EPW O   H1  H2  EPW O   H1  H2  EPW O   H1  H2  EPW O   H1  
H2  EPW O   H1  H2  EPW O   H1  H2  EPW O   H1  H2  EPW O   H1  H2  EPW O   H1  
H2  EPW O   H1  H2  EPW O   H1  H2  EPW O   H1  H2  EPW O   H1  H2  EPW O   H1  
H2  EPW O   H1  H2  EPW O   H1  H2  EPW O   H1  H2  EPW O   H1  H2  EPW O   H1  
H2  EPW O   H1  H2  EPW O   H1  H2  EPW O   H1  H2  EPW O   H1  H2  EPW O   H1  
H2  EPW O   H1  H2  EPW O   H1  H2  EPW O   H1  H2  EPW O   H1  H2  EPW O   H1  
H2  EPW O   H1  H2  EPW O   H1  H2  EPW O   H1  H2  EPW O   H1  H2  EPW O   H1  
H2  EPW O   H1  H2  EPW O   H1  H2  EPW O   H1  H2  EPW O   H1  H2  EPW O   H1  
H2  EPW O   H1  H2  EPW O   H1  H2  EPW O   H1  H2  EPW O   H1  H2  EPW O   H1  
H2  EPW O   H1  H2  EPW O   H1  H2  EPW O   H1  H2  EPW O   H1  H2  EPW O   H1  
H2  EPW O   H1  H2  EPW O   H1  H2  EPW O   H1  H2  EPW O   H1  H2  EPW O   H1  
H2  EPW O   H1  H2  EPW O   H1  H2  EPW O   H1  H2  EPW O   H1  H2  EPW O   H1  
H2  EPW O   H1  H2  EPW O   H1  H2  EPW O   H1  H2  EPW O   H1  H2  EPW O   H1  
H2  EPW O   H1  H2  EPW O   H1  H2  EPW O   H1  H2  EPW O   H1  H2  EPW O   H1  
H2  EPW O   H1  H2  EPW O   H1  H2  EPW O   H1  H2  EPW O   H1  H2  EPW O   H1  
H2  EPW O   H1  H2  EPW O   H1  H2  EPW O   H1  H2  EPW O   H1  H2  EPW O   H1  
H2  EPW O   H1  H2  EPW O   H1  H2  EPW O   H1  H2  EPW O   H1  H2  EPW O   H1  
H2  EPW O   H1  H2  EPW O   H1  H2  EPW O   H1  H2  EPW O   H1  H2  EPW O   H1  
H2  EPW O   H1  H2  EPW O   H1  H2  EPW O   H1  H2  EPW O   H1  H2  EPW O   H1  
H2  EPW O   H1  H2  EPW O   H1  H2  EPW O   H1  H2  EPW O   H1  H2  EPW O   H1  
H2  EPW O   H1  H2  EPW O   H1  H2  EPW O   H1  H2  EPW O   H1  H2  EPW O   H1  
H2  EPW O   H1  H2  EPW O   H1  H2  EPW O   H1  H2  EPW O   H1  H2  EPW O   H1  
H2  EPW O   H1  H2  EPW O   H1  H2  EPW O   H1  H2  EPW O   H1  H2  EPW O   H1  
H2  EPW O   H1  H2  EPW O   H1  H2  EPW O   H1  H2  EPW O   H1  H2  EPW O   H1  
H2  EPW O   H1  H2  EPW O   H1  H2  EPW O   H1  H2  EPW O   H1  H2  EPW O   H1  
H2  EPW O   H1  H2  EPW O   H1  H2  EPW O   H1  H2  EPW O   H1  H2  EPW O   H1  
H2  EPW O   H1  H2  EPW O   H1  H2  EPW O   H1  H2  EPW O   H1  H2  EPW O   H1  
H2  EPW O   H1  H2  EPW O   H1  H2  EPW O   H1  H2  EPW O   H1  H2  EPW O   H1  
H2  EPW O   H1  H2  EPW O   H1  H2  EPW O   H1  H2  EPW O   H1  H2  EPW O   H1  
H2  EPW O   H1  H2  EPW O   H1  H2  EPW O   H1  H2  EPW O   H1  H2  EPW O   H1  
H2  EPW O   H1  H2  EPW O   H1  H2  EPW O   H1  H2  EPW O   H1  H2  EPW O   H1  
H2  EPW O   H1  H2  EPW O   H1  H2  EPW O   H1  H2  EPW O   H1  H2  EPW O   H1  
H2  EPW O   H1  H2  EPW O   H1  H2  EPW O   H1  H2  EPW O   H1  H2  EPW O   H1  
H2  EPW O   H1  H2  EPW O   H1  H2  EPW O   H1  H2  EPW O   H1  H2  EPW O   H1  
H2  EPW O   H1  H2  EPW O   H1  H2  EPW O   H1  H2  EPW O   H1  H2  EPW O   H1  
H2  EPW O   H1  H2  EPW O   H1  H2  EPW O   H1  H2  EPW O   H1  H2  EPW O   H1  
H2  EPW O   H1  H2  EPW O   H1  H2  EPW O   H1  H2  EPW O   H1  H2  EPW O   H1  
H2  EPW O   H1  H2  EPW O   H1  H2  EPW O   H1  H2  EPW O   H1  H2  EPW O   H1  
H2  EPW O   H1  H2  EPW O   H1  H2  EPW O   H1  H2  EPW O   H1  H2  EPW O   H1  
H2  EPW O   H1  H2  EPW O   H1  H2  EPW O   H1  H2  EPW O   H1  H2  EPW O   H1  
H2  EPW O   H1  H2  EPW O   H1  H2  EPW O   H1  H2  EPW O   H1  H2  EPW O   H1  
H2  EPW O   H1  H2  EPW O   H1  H2  EPW O   H1  H2  EPW O   H1  H2  EPW O   H1  
H2  EPW O   H1  H2  EPW O   H1  H2  EPW O   H1  H2  EPW O   H1  H2  EPW O   H1  
H2  EPW O   H1  H2  EPW O   H1  H2  EPW O   H1  H2  EPW O   H1  H2  EPW O   H1  
H2  EPW O   H1  H2  EPW O   H1  H2  EPW O   H1  H2  EPW O   H1  H2  EPW O   H1  
H2  EPW O   H1  H2  EPW O   H1  H2  EPW O   H1  H2  EPW O   H1  H2  EPW O   H1  
H2  EPW O   H1  H2  EPW O   H1  H2  EPW O   H1  H2  EPW O   H1  H2  EPW O   H1  
H2  EPW O   H1  H2  EPW O   H1  H2  EPW O   H1  H2  EPW O   H1  H2  EPW O   H1  
H2  EPW O   H1  H2  EPW O   H1  H2  EPW O   H1  H2  EPW O   H1  H2  EPW O   H1  
H2  EPW O   H1  H2  EPW O   H1  H2  EPW O   H1  H2  EPW O   H1  H2  EPW O   H1  
H2  EPW O   H1  H2  EPW O   H1  H2  EPW O   H1  H2  EPW O   H1  H2  EPW O   H1  
H2  EPW O   H1  H2  EPW O   H1  H2  EPW O   H1  H2  EPW O   H1  H2  EPW O   H1  
H2  EPW O   H1  H2  EPW O   H1  H2  EPW O   H1  H2  EPW O   H1  H2  EPW O   H1  
H2  EPW O   H1  H2  EPW O   H1  H2  EPW O   H1  H2  EPW O   H1  H2  EPW O   H1  
H2  EPW O   H1  H2  EPW O   H1  H2  EPW O   H1  H2  EPW O   H1  H2  EPW O   H1  
H2  EPW O   H1  H2  EPW O   H1  H2  EPW O   H1  H2  EPW O   H1  H2  EPW O   H1  
H2  EPW O   H1  H2  EPW O   H1  H2  EPW O   H1  H2  EPW O   H1  H2  EPW O   H1  
H2  EPW O   H1  H2  EPW O   H1  H2  EPW O   H1  H2  EPW O   H1  H2  EPW O   H1  
H2  EPW O   H1  H2  EPW O   H1  H2  EPW O   H1  H2  EPW O   H1  H2  EPW O   H1  
H2  EPW O   H1  H2  EPW O   H1  H2  EPW O   H1  H2  EPW O   H1  H2  EPW O   H1  
H2  EPW O   H1  H2  EPW O   H1  H2  EPW O   H1  H2  EPW O   H1  H2  EPW O   H1  
H2  EPW O   H1  H2  EPW O   H1  H2  EPW O   H1  H2  EPW O   H1  H2  EPW O   H1  
H2  EPW O   H1  H2  EPW O   H1  H2  EPW O   H1  H2  EPW O   H1  H2  EPW O   H1  
H2  EPW O   H1  H2  EPW O   H1  H2  EPW O   H1  H2  EPW O   H1  H2  EPW O   H1  
H2  EPW O   H1  H2  EPW O   H1  H2  EPW O   H1  H2  EPW O   H1  H2  EPW O   H1  
H2  EPW O   H1  H2  EPW O   H1  H2  EPW O   H1  H2  EPW O   H1  H2  EPW O   H1  
H2  EPW O   H1  H2  EPW O   H1  H2  EPW O   H1  H2  EPW O   H1  H2  EPW O   H1  
H2  EPW O   H1  H2  EPW O   H1  H2  EPW O   H1  H2  EPW O   H1  H2  EPW O   H1  
H2  EPW O   H1  H2  EPW O   H1  H2  EPW O   H1  H2  EPW O   H1  H2  EPW O   H1  
H2  EPW O   H1  H2  EPW O   H1  H2  EPW O   H1  H2  EPW O   H1  H2  EPW O   H1  
H2  EPW O   H1  H2  EPW O   H1  H2  EPW O   H1  H2  EPW O   H1  H2  EPW O   H1  
H2  EPW O   H1  H2  EPW O   H1  H2  EPW O   H1  H2  EPW O   H1  H2  EPW O   H1  
H2  EPW O   H1  H2  EPW O   H1  H2  EPW O   H1  H2  EPW O   H1  H2  EPW O   H1  
H2  EPW O   H1  H2  EPW O   H1  H2  EPW O   H1  H2  EPW O   H1  H2  EPW O   H1  
H2  EPW O   H1  H2  EPW O   H1  H2  EPW O   H1  H2  EPW O   H1  H2  EPW O   H1  
H2  EPW O   H1  H2  EPW O   H1  H2  EPW O   H1  H2  EPW O   H1  H2  EPW O   H1  
H2  EPW O   H1  H2  EPW O   H1  H2  EPW O   H1  H2  EPW O   H1  H2  EPW O   H1  
H2  EPW O   H1  H2  EPW O   H1  H2  EPW O   H1  H2  EPW O   H1  H2  EPW O   H1  
H2  EPW O   H1  H2  EPW O   H1  H2  EPW O   H1  H2  EPW O   H1  H2  EPW O   H1  
H2  EPW O   H1  H2  EPW O   H1  H2  EPW O   H1  H2  EPW O   H1  H2  EPW O   H1  
H2  EPW O   H1  H2  EPW O   H1  H2  EPW O   H1  H2  EPW O   H1  H2  EPW O   H1  
H2  EPW O   H1  H2  EPW O   H1  H2  EPW O   H1  H2  EPW O   H1  H2  EPW O   H1  
H2  EPW O   H1  H2  EPW O   H1  H2  EPW O   H1  H2  EPW O   H1  H2  EPW O   H1  
H2  EPW O   H1  H2  EPW O   H1  H2  EPW O   H1  H2  EPW O   H1  H2  EPW O   H1  
H2  EPW O   H1  H2  EPW O   H1  H2  EPW O   H1  H2  EPW O   H1  H2  EPW O   H1  
H2  EPW O   H1  H2  EPW O   H1  H2  EPW O   H1  H2  EPW O   H1  H2  EPW O   H1  
H2  EPW O   H1  H2  EPW O   H1  H2  EPW O   H1  H2  EPW O   H1  H2  EPW O   H1  
H2  EPW O   H1  H2  EPW O   H1  H2  EPW O   H1  H2  EPW O   H1  H2  EPW O   H1  
H2  EPW O   H1  H2  EPW O   H1  H2  EPW O   H1  H2  EPW O   H1  H2  EPW O   H1  
H2  EPW O   H1  H2  EPW O   H1  H2  EPW O   H1  H2  EPW O   H1  H2  EPW O   H1  
H2  EPW O   H1  H2  EPW O   H1  H2  EPW O   H1  H2  EPW O   H1  H2  EPW O   H1  
H2  EPW O   H1  H2  EPW O   H1  H2  EPW O   H1  H2  EPW O   H1  H2  EPW O   H1  
H2  EPW O   H1  H2  EPW O   H1  H2  EPW O   H1  H2  EPW O   H1  H2  EPW O   H1  
H2  EPW O   H1  H2  EPW O   H1  H2  EPW O   H1  H2  EPW O   H1  H2  EPW O   H1  
H2  EPW O   H1  H2  EPW O   H1  H2  EPW O   H1  H2  EPW O   H1  H2  EPW O   H1  
H2  EPW O   H1  H2  EPW O   H1  H2  EPW O   H1  H2  EPW O   H1  H2  EPW O   H1  
H2  EPW O   H1  H2  EPW O   H1  H2  EPW O   H1  H2  EPW O   H1  H2  EPW O   H1  
H2  EPW O   H1  H2  EPW O   H1  H2  EPW O   H1  H2  EPW O   H1  H2  EPW O   H1  
H2  EPW O   H1  H2  EPW O   H1  H2  EPW O   H1  H2  EPW O   H1  H2  EPW O   H1  
H2  EPW O   H1  H2  EPW O   H1  H2  EPW O   H1  H2  EPW O   H1  H2  EPW O   H1  
H2  EPW O   H1  H2  EPW O   H1  H2  EPW O   H1  H2  EPW O   H1  H2  EPW O   H1  
H2  EPW O   H1  H2  EPW O   H1  H2  EPW O   H1  H2  EPW O   H1  H2  EPW O   H1  
H2  EPW O   H1  H2  EPW O   H1  H2  EPW O   H1  H2  EPW O   H1  H2  EPW O   H1  
H2  EPW O   H1  H2  EPW O   H1  H2  EPW O   H1  H2  EPW O   H1  H2  EPW O   H1  
H2  EPW O   H1  H2  EPW 
%FLAG CHARGE                                                                    
%FORMAT(5E16.8)                                                                 
  7.82647785E+00 -1.13397373E+01  1.01680434E+00  1.23729417E+00  1.23729417E+00
  1.94067495E+00  2.13929802E+00 -6.46527204E+00  3.48045930E-01  3.65539338E+00
  8.96537160E-01  2.50374402E+00  2.98845720E+00 -1.04031111E+01  3.17796912E+00
  8.69203710E+00 -1.01990213E+01 -8.72301501E+00  6.23931552E+00  1.39528151E+01
 -1.76246086E+01  7.95221172E+00  7.95221172E+00 -1.15219603E+01  2.22676506E+00
  3.68454906E+00  1.12067145E+00  1.22089410E+00  1.77120756E+00 -1.11866700E+01
  7.62785478E+00 -9.55941858E+00  2.12508463E+01 -1.41405048E+01 -1.41405048E+01
 -9.09110547E+00  1.01680434E+00  1.23729417E+00  1.23729417E+00  1.94067495E+00
  2.13929802E+00 -6.46527204E+00  3.48045930E-01  3.65539338E+00  8.96537160E-01
  2.50374402E+00  2.98845720E+00 -1.04031111E+01  3.17796912E+00  8.69203710E+00
 -1.01990213E+01 -8.72301501E+00  6.23931552E+00  1.39528151E+01 -1.76246086E+01
  7.95221172E+00  7.95221172E+00 -1.15219603E+01  2.22676506E+00  3.68454906E+00
  1.12067145E+00  1.22089410E+00  1.77120756E+00 -1.11866700E+01  7.62785478E+00
 -9.55941858E+00  2.12508463E+01 -1.41405048E+01 -1.41405048E+01 -9.09110547E+00
  1.01680434E+00  1.23729417E+00  1.23729417E+00  1.94067495E+00  2.13929802E+00
 -6.46527204E+00  7.17958620E-01  3.65721561E+00 -4.57379730E-01  3.65539338E+00
  2.82992319E+00 -1.10664028E+01  9.38448450E-01  1.27720101E+01 -1.64346924E+01
  7.49847645E+00  7.49847645E+00 -1.38762815E+01  1.07056013E+01  8.61914790E-01
 -1.27501433E+01  5.56326819E+00  3.68454906E+00  1.12067145E+00  1.22089410E+00
  1.77120756E+00 -1.11866700E+01  7.62785478E+00 -9.55941858E+00  2.12508463E+01
 -1.41405048E+01 -1.41405048E+01 -9.09110547E+00  1.01680434E+00  1.23729417E+00
  1.23729417E+00  1.94067495E+00  2.13929802E+00 -6.46527204E+00  1.22818302E+00
  3.32374752E+00  7.61692140E-01 -2.05183098E+00  3.98703924E+00 -6.62380605E+00
  3.30005853E+00  1.08459130E+01 -1.04978670E+01 -6.46709427E+00  5.74731342E+00
  8.54079201E+00 -9.98035371E+00  3.68454906E+00  1.12067145E+00  1.22089410E+00
  1.77120756E+00 -1.11866700E+01  7.62785478E+00 -9.55941858E+00  2.12508463E+01
 -1.41405048E+01 -1.41405048E+01 -9.09110547E+00  1.01680434E+00  1.23729417E+00
  1.23729417E+00  1.94067495E+00  2.13929802E+00 -6.46527204E+00  1.20267180E-01
  3.69730467E+00 -8.81959320E-01  9.65781900E-02  3.56792634E+00 -9.50292945E+00
  3.51325944E+00  1.49149526E+01 -1.73658519E+01  7.71532182E+00  7.71532182E+00
 -1.38197923E+01  1.37359697E+01 -1.13925820E+01  3.68454906E+00  1.12067145E+00
  1.22089410E+00  1.77120756E+00 -1.11866700E+01  7.62785478E+00 -9.55941858E+00
  2.12508463E+01 -1.41405048E+01 -1.41405048E+01 -9.09110547E+00  1.01680434E+00
  1.23729417E+00  1.23729417E+00  1.94067495E+00  2.13929802E+00 -6.46527204E+00
  7.17958620E-01  3.65721561E+00 -4.57379730E-01  3.65539338E+00  2.82992319E+00
 -1.10664028E+01  9.38448450E-01  1.27720101E+01 -1.64346924E+01  7.49847645E+00
  7.49847645E+00 -1.38762815E+01  1.07056013E+01  8.61914790E-01 -1.27501433E+01
  5.56326819E+00  3.68454906E+00  1.12067145E+00  1.22089410E+00  1.77120756E+00
 -1.11866700E+01  7.62785478E+00 -9.55941858E+00  2.12508463E+01 -1.41405048E+01
 -1.41405048E+01 -9.09110547E+00  1.01680434E+00  1.23729417E+00  1.23729417E+00
  1.94067495E+00  2.13929802E+00 -6.46527204E+00  1.22818302E+00  3.32374752E+00
  7.61692140E-01 -2.05183098E+00  3.98703924E+00 -6.62380605E+00  3.30005853E+00
  1.08459130E+01 -1.04978670E+01 -6.46709427E+00  5.74731342E+00  8.54079201E+00
 -9.98035371E+00  3.68454906E+00  1.12067145E+00  1.22089410E+00  1.77120756E+00
 -1.11866700E+01  7.62785478E+00 -9.55941858E+00  2.12508463E+01 -1.41405048E+01
 -1.41405048E+01 -9.09110547E+00  1.01680434E+00  1.23729417E+00  1.23729417E+00
  1.94067495E+00  2.13929802E+00 -6.46527204E+00  7.17958620E-01  3.65721561E+00
 -4.57379730E-01  3.65539338E+00  2.82992319E+00 -1.10664028E+01  9.38448450E-01
  1.27720101E+01 -1.64346924E+01  7.49847645E+00  7.49847645E+00 -1.38762815E+01
  1.07056013E+01  8.61914790E-01 -1.27501433E+01  5.56326819E+00  3.68454906E+00
  1.12067145E+00  1.22089410E+00  1.77120756E+00 -1.11866700E+01  7.62785478E+00
 -9.55941858E+00  2.12508463E+01 -1.41405048E+01 -1.41405048E+01 -9.09110547E+00
  1.01680434E+00  1.23729417E+00  1.23729417E+00  1.94067495E+00  2.13929802E+00
 -6.46527204E+00  1.22818302E+00  3.32374752E+00  7.61692140E-01 -2.05183098E+00
  3.98703924E+00 -6.62380605E+00  3.30005853E+00  1.08459130E+01 -1.04978670E+01
 -6.46709427E+00  5.74731342E+00  8.54079201E+00 -9.98035371E+00  3.68454906E+00
  1.12067145E+00  1.22089410E+00  1.77120756E+00 -1.11866700E+01  7.62785478E+00
 -9.55941858E+00  2.12508463E+01 -1.41405048E+01 -1.41405048E+01 -9.09110547E+00
  1.01680434E+00  1.23729417E+00  1.23729417E+00  1.94067495E+00  2.13929802E+00
 -6.46527204E+00  7.17958620E-01  3.65721561E+00 -4.57379730E-01  3.65539338E+00
  2.82992319E+00 -1.10664028E+01  9.38448450E-01  1.27720101E+01 -1.64346924E+01
  7.49847645E+00  7.49847645E+00 -1.38762815E+01  1.07056013E+01  8.61914790E-01
 -1.27501433E+01  5.56326819E+00  3.68454906E+00  1.12067145E+00  1.22089410E+00
  1.77120756E+00 -1.11866700E+01  7.62785478E+00 -9.55941858E+00  2.12508463E+01
 -1.41405048E+01 -1.41405048E+01 -9.09110547E+00  1.01680434E+00  1.23729417E+00
  1.23729417E+00  1.94067495E+00  2.13929802E+00 -6.46527204E+00  7.17958620E-01
  3.65721561E+00 -4.57379730E-01  3.65539338E+00  2.82992319E+00 -1.10664028E+01
  9.38448450E-01  1.27720101E+01 -1.64346924E+01  7.49847645E+00  7.49847645E+00
 -1.38762815E+01  1.07056013E+01  8.61914790E-01 -1.27501433E+01  5.56326819E+00
  3.68454906E+00  1.12067145E+00  1.22089410E+00  1.77120756E+00 -1.11866700E+01
  7.62785478E+00 -9.55941858E+00  2.12508463E+01 -1.41405048E+01 -1.41405048E+01
 -9.09110547E+00  1.01680434E+00  1.23729417E+00  1.23729417E+00  1.94067495E+00
  2.13929802E+00 -6.46527204E+00  1.22818302E+00  3.32374752E+00  7.61692140E-01
 -2.05183098E+00  3.98703924E+00 -6.62380605E+00  3.30005853E+00  1.08459130E+01
 -1.04978670E+01 -6.46709427E+00  5.74731342E+00  8.54079201E+00 -9.98035371E+00
  3.68454906E+00  1.12067145E+00  1.22089410E+00  1.77120756E+00 -1.11866700E+01
  7.62785478E+00 -9.55941858E+00  2.12508463E+01 -1.41405048E+01 -1.41405048E+01
 -9.09110547E+00  1.01680434E+00  1.23729417E+00  1.23729417E+00  1.94067495E+00
  2.13929802E+00 -6.46527204E+00  1.20267180E-01  3.69730467E+00 -8.81959320E-01
  9.65781900E-02  3.56792634E+00 -9.50292945E+00  3.51325944E+00  1.49149526E+01
 -1.73658519E+01  7.71532182E+00  7.71532182E+00 -1.38197923E+01  1.37359697E+01
 -1.13925820E+01  3.68454906E+00  1.12067145E+00  1.22089410E+00  1.77120756E+00
 -1.11866700E+01  7.62785478E+00 -9.55941858E+00  2.12508463E+01 -1.41405048E+01
 -1.41405048E+01 -9.09110547E+00  1.01680434E+00  1.23729417E+00  1.23729417E+00
  1.94067495E+00  2.13929802E+00 -6.46527204E+00  3.48045930E-01  3.65539338E+00
  8.96537160E-01  2.50374402E+00  2.98845720E+00 -1.04031111E+01  3.17796912E+00
  8.69203710E+00 -1.01990213E+01 -8.72301501E+00  6.23931552E+00  1.39528151E+01
 -1.76246086E+01  7.95221172E+00  7.95221172E+00 -1.15219603E+01  2.22676506E+00
  3.68454906E+00  1.12067145E+00  1.22089410E+00  1.77120756E+00 -1.11866700E+01
  7.62785478E+00 -9.55941858E+00  2.12508463E+01 -1.41405048E+01 -1.41405048E+01
 -9.09110547E+00  1.01680434E+00  1.23729417E+00  1.23729417E+00  1.94067495E+00
  2.13929802E+00 -6.46527204E+00  1.20267180E-01  3.69730467E+00 -8.81959320E-01
  9.65781900E-02  3.56792634E+00 -9.50292945E+00  3.51325944E+00  1.49149526E+01
 -1.73658519E+01  7.71532182E+00  7.71532182E+00 -1.38197923E+01  1.37359697E+01
 -1.13925820E+01  3.68454906E+00  1.12067145E+00  1.22089410E+00  1.77120756E+00
 -1.11866700E+01  7.62785478E+00 -9.55941858E+00  2.12508463E+01 -1.41405048E+01
 -1.41405048E+01 -9.09110547E+00  1.01680434E+00  1.23729417E+00  1.23729417E+00
  1.94067495E+00  2.13929802E+00 -6.46527204E+00  3.48045930E-01  3.65539338E+00
  8.96537160E-01  2.50374402E+00  2.98845720E+00 -1.04031111E+01  3.17796912E+00
  8.69203710E+00 -1.01990213E+01 -8.72301501E+00  6.23931552E+00  1.39528151E+01
 -1.76246086E+01  7.95221172E+00  7.95221172E+00 -1.15219603E+01  2.22676506E+00
  3.68454906E+00  1.12067145E+00  1.22089410E+00  1.77120756E+00 -1.11866700E+01
  7.62785478E+00 -9.55941858E+00  2.12508463E+01 -1.41405048E+01 -1.41405048E+01
 -9.09110547E+00  1.01680434E+00  1.23729417E+00  1.23729417E+00  1.94067495E+00
  2.13929802E+00 -6.46527204E+00  1.22818302E+00  3.32374752E+00  7.61692140E-01
 -2.05183098E+00  3.98703924E+00 -6.62380605E+00  3.30005853E+00  1.08459130E+01
 -1.04978670E+01 -6.46709427E+00  5.74731342E+00  8.54079201E+00 -9.98035371E+00
  3.68454906E+00  1.12067145E+00  1.22089410E+00  1.77120756E+00 -1.11866700E+01
  7.62785478E+00 -9.55941858E+00  2.12508463E+01 -1.41405048E+01 -1.41405048E+01
 -9.09110547E+00  1.01680434E+00  1.23729417E+00  1.23729417E+00  1.94067495E+00
  2.13929802E+00 -6.46527204E+00  3.48045930E-01  3.65539338E+00  8.96537160E-01
  2.50374402E+00  2.98845720E+00 -1.04031111E+01  3.17796912E+00  8.69203710E+00
 -1.01990213E+01 -8.72301501E+00  6.23931552E+00  1.39528151E+01 -1.76246086E+01
  7.95221172E+00  7.95221172E+00 -1.15219603E+01  2.22676506E+00  3.68454906E+00
  1.12067145E+00  1.22089410E+00  1.77120756E+00 -1.11866700E+01  7.62785478E+00
 -9.55941858E+00  2.12508463E+01 -1.41405048E+01 -1.41405048E+01 -9.09110547E+00
  1.01680434E+00  1.23729417E+00  1.23729417E+00  1.94067495E+00  2.13929802E+00
 -6.46527204E+00  3.48045930E-01  3.65539338E+00  8.96537160E-01  2.50374402E+00
  2.98845720E+00 -1.04031111E+01  3.17796912E+00  8.69203710E+00 -1.01990213E+01
 -8.72301501E+00  6.23931552E+00  1.39528151E+01 -1.76246086E+01  7.95221172E+00
  7.95221172E+00 -1.15219603E+01  2.22676506E+00  3.68454906E+00  1.12067145E+00
  1.22089410E+00  1.77120756E+00 -1.11866700E+01  7.62785478E+00 -9.55941858E+00
  2.12508463E+01 -1.41405048E+01 -1.41405048E+01 -9.09110547E+00  1.01680434E+00
  1.23729417E+00  1.23729417E+00  1.94067495E+00  2.13929802E+00 -6.46527204E+00
  7.17958620E-01  3.65721561E+00 -4.57379730E-01  3.65539338E+00  2.82992319E+00
 -1.10664028E+01  9.38448450E-01  1.27720101E+01 -1.64346924E+01  7.49847645E+00
  7.49847645E+00 -1.38762815E+01  1.07056013E+01  8.61914790E-01 -1.27501433E+01
  5.56326819E+00  3.68454906E+00  1.12067145E+00  1.22089410E+00  1.77120756E+00
 -1.11866700E+01  7.62785478E+00 -9.55941858E+00  2.12508463E+01 -1.41405048E+01
 -1.41405048E+01 -9.09110547E+00  1.01680434E+00  1.23729417E+00  1.23729417E+00
  1.94067495E+00  2.13929802E+00 -6.46527204E+00  1.22818302E+00  3.32374752E+00
  7.61692140E-01 -2.05183098E+00  3.98703924E+00 -6.62380605E+00  3.30005853E+00
  1.08459130E+01 -1.04978670E+01 -6.46709427E+00  5.74731342E+00  8.54079201E+00
 -9.98035371E+00  3.68454906E+00  1.12067145E+00  1.22089410E+00  1.77120756E+00
 -1.11866700E+01  7.62785478E+00 -9.55941858E+00  2.12508463E+01 -1.41405048E+01
 -1.41405048E+01 -9.09110547E+00  1.01680434E+00  1.23729417E+00  1.23729417E+00
  1.94067495E+00  2.13929802E+00 -6.46527204E+00  7.17958620E-01  3.65721561E+00
 -4.57379730E-01  3.65539338E+00  2.82992319E+00 -1.10664028E+01  9.38448450E-01
  1.27720101E+01 -1.64346924E+01  7.49847645E+00  7.49847645E+00 -1.38762815E+01
  1.07056013E+01  8.61914790E-01 -1.27501433E+01  5.56326819E+00  3.68454906E+00
  1.12067145E+00  1.22089410E+00  1.77120756E+00 -1.11866700E+01  7.62785478E+00
 -9.55941858E+00  2.12508463E+01 -1.41405048E+01 -1.41405048E+01 -9.09110547E+00
  1.01680434E+00  1.23729417E+00  1.23729417E+00  1.94067495E+00  2.13929802E+00
 -6.46527204E+00  1.22818302E+00  3.32374752E+00  7.61692140E-01 -2.05183098E+00
  3.98703924E+00 -6.62380605E+00  3.30005853E+00  1.08459130E+01 -1.04978670E+01
 -6.46709427E+00  5.74731342E+00  8.54079201E+00 -9.98035371E+00  3.68454906E+00
  1.12067145E+00  1.22089410E+00  1.77120756E+00 -1.11866700E+01  7.62785478E+00
 -9.55941858E+00  2.12508463E+01 -1.41405048E+01 -1.41405048E+01 -9.09110547E+00
  1.01680434E+00  1.23729417E+00  1.23729417E+00  1.94067495E+00  2.13929802E+00
 -6.46527204E+00  3.48045930E-01  3.65539338E+00  8.96537160E-01  2.50374402E+00
  2.98845720E+00 -1.04031111E+01  3.17796912E+00  8.69203710E+00 -1.01990213E+01
 -8.72301501E+00  6.23931552E+00  1.39528151E+01 -1.76246086E+01  7.95221172E+00
  7.95221172E+00 -1.15219603E+01  2.22676506E+00  3.68454906E+00  1.12067145E+00
  1.22089410E+00  1.77120756E+00 -1.11866700E+01  7.62785478E+00 -9.55941858E+00
  2.12508463E+01 -1.41405048E+01 -1.41405048E+01 -9.09110547E+00  1.01680434E+00
  1.23729417E+00  1.23729417E+00  1.94067495E+00  2.13929802E+00 -6.46527204E+00
  3.48045930E-01  3.65539338E+00  8.96537160E-01  2.50374402E+00  2.98845720E+00
 -1.04031111E+01  3.17796912E+00  8.69203710E+00 -1.01990213E+01 -8.72301501E+00
  6.23931552E+00  1.39528151E+01 -1.76246086E+01  7.95221172E+00  7.95221172E+00
 -1.15219603E+01  2.22676506E+00  3.68454906E+00  1.12067145E+00  1.22089410E+00
  1.77120756E+00 -1.11866700E+01  7.62785478E+00 -9.55941858E+00  2.12508463E+01
 -1.41405048E+01 -1.41405048E+01 -9.09110547E+00  1.01680434E+00  1.23729417E+00
  1.23729417E+00  1.94067495E+00  2.13929802E+00 -6.46527204E+00  1.20267180E-01
  3.69730467E+00 -8.81959320E-01  9.65781900E-02  3.56792634E+00 -9.50292945E+00
  3.51325944E+00  1.49149526E+01 -1.73658519E+01  7.71532182E+00  7.71532182E+00
 -1.38197923E+01  1.37359697E+01 -1.13925820E+01  3.68454906E+00  1.12067145E+00
  1.22089410E+00  1.77120756E+00 -1.11866700E+01  7.62785478E+00 -9.55941858E+00
  2.12508463E+01 -1.41405048E+01 -1.41405048E+01 -9.09110547E+00  1.01680434E+00
  1.23729417E+00  1.23729417E+00  1.94067495E+00  2.13929802E+00 -6.46527204E+00
  7.17958620E-01  3.65721561E+00 -4.57379730E-01  3.65539338E+00  2.82992319E+00
 -1.10664028E+01  9.38448450E-01  1.27720101E+01 -1.64346924E+01  7.49847645E+00
  7.49847645E+00 -1.38762815E+01  1.07056013E+01  8.61914790E-01 -1.27501433E+01
  5.56326819E+00  3.68454906E+00  1.12067145E+00  1.22089410E+00  1.77120756E+00
 -1.11866700E+01  7.62785478E+00 -9.55941858E+00  2.12508463E+01 -1.41405048E+01
 -1.41405048E+01 -9.09110547E+00  1.01680434E+00  1.23729417E+00  1.23729417E+00
  1.94067495E+00  2.13929802E+00 -6.46527204E+00  1.20267180E-01  3.69730467E+00
 -8.81959320E-01  9.65781900E-02  3.56792634E+00 -9.50292945E+00  3.51325944E+00
  1.49149526E+01 -1.73658519E+01  7.71532182E+00  7.71532182E+00 -1.38197923E+01
  1.37359697E+01 -1.13925820E+01  3.68454906E+00  1.12067145E+00  1.22089410E+00
  1.77120756E+00 -1.11866700E+01  7.62785478E+00 -9.55941858E+00  2.12508463E+01
 -1.41405048E+01 -1.41405048E+01 -9.09110547E+00  1.01680434E+00  1.23729417E+00
  1.23729417E+00  1.94067495E+00  2.13929802E+00 -6.46527204E+00  3.48045930E-01
  3.65539338E+00  8.96537160E-01  2.50374402E+00  2.98845720E+00 -1.04031111E+01
  3.17796912E+00  8.69203710E+00 -1.01990213E+01 -8.72301501E+00  6.23931552E+00
  1.39528151E+01 -1.76246086E+01  7.95221172E+00  7.95221172E+00 -1.15219603E+01
  2.22676506E+00  3.68454906E+00  1.12067145E+00  1.22089410E+00  1.77120756E+00
 -1.11866700E+01  7.62785478E+00 -9.55941858E+00  2.12508463E+01 -1.41405048E+01
 -1.41405048E+01 -9.09110547E+00  1.01680434E+00  1.23729417E+00  1.23729417E+00
  1.94067495E+00  2.13929802E+00 -6.46527204E+00  1.20267180E-01  3.69730467E+00
 -8.81959320E-01  9.65781900E-02  3.56792634E+00 -9.50292945E+00  3.51325944E+00
  1.49149526E+01 -1.73658519E+01  7.71532182E+00  7.71532182E+00 -1.38197923E+01
  1.37359697E+01 -1.13925820E+01  3.68454906E+00  1.12067145E+00  1.22089410E+00
  1.77120756E+00 -1.11866700E+01  7.62785478E+00 -9.55941858E+00  2.12508463E+01
 -1.41405048E+01 -1.41405048E+01 -9.09110547E+00  1.01680434E+00  1.23729417E+00
  1.23729417E+00  1.94067495E+00  2.13929802E+00 -6.46527204E+00  7.17958620E-01
  3.65721561E+00 -4.57379730E-01  3.65539338E+00  2.82992319E+00 -1.10664028E+01
  9.38448450E-01  1.27720101E+01 -1.64346924E+01  7.49847645E+00  7.49847645E+00
 -1.38762815E+01  1.07056013E+01  8.61914790E-01 -1.27501433E+01  5.56326819E+00
  3.68454906E+00  1.12067145E+00  1.22089410E+00  1.77120756E+00 -1.11866700E+01
  7.62785478E+00 -9.55941858E+00  2.12508463E+01 -1.41405048E+01 -1.41405048E+01
 -9.09110547E+00  1.01680434E+00  1.23729417E+00  1.23729417E+00  1.94067495E+00
  2.13929802E+00 -6.46527204E+00  7.17958620E-01  3.65721561E+00 -4.57379730E-01
  3.65539338E+00  2.82992319E+00 -1.10664028E+01  9.38448450E-01  1.27720101E+01
 -1.64346924E+01  7.49847645E+00  7.49847645E+00 -1.38762815E+01  1.07056013E+01
  8.61914790E-01 -1.27501433E+01  5.56326819E+00  3.68454906E+00  1.12067145E+00
  1.22089410E+00  1.77120756E+00 -1.11866700E+01  7.62785478E+00 -9.55941858E+00
  2.12508463E+01 -1.41405048E+01 -1.41405048E+01 -9.09110547E+00  1.01680434E+00
  1.23729417E+00  1.23729417E+00  1.94067495E+00  2.13929802E+00 -6.46527204E+00
  3.48045930E-01  3.65539338E+00  8.96537160E-01  2.50374402E+00  2.98845720E+00
 -1.04031111E+01  3.17796912E+00  8.69203710E+00 -1.01990213E+01 -8.72301501E+00
  6.23931552E+00  1.39528151E+01 -1.76246086E+01  7.95221172E+00  7.95221172E+00
 -1.15219603E+01  2.22676506E+00  3.68454906E+00  1.12067145E+00  1.22089410E+00
  1.77120756E+00 -1.11866700E+01  7.62785478E+00 -9.55941858E+00  2.12508463E+01
 -1.41405048E+01 -1.41405048E+01 -9.09110547E+00  1.01680434E+00  1.23729417E+00
  1.23729417E+00  1.94067495E+00  2.13929802E+00 -6.46527204E+00  1.22818302E+00
  3.32374752E+00  7.61692140E-01 -2.05183098E+00  3.98703924E+00 -6.62380605E+00
  3.30005853E+00  1.08459130E+01 -1.04978670E+01 -6.46709427E+00  5.74731342E+00
  8.54079201E+00 -9.98035371E+00  3.68454906E+00  1.12067145E+00  1.22089410E+00
  1.77120756E+00 -1.11866700E+01  7.62785478E+00 -9.55941858E+00  2.12508463E+01
 -1.41405048E+01 -1.41405048E+01 -9.09110547E+00  1.01680434E+00  1.23729417E+00
  1.23729417E+00  1.94067495E+00  2.13929802E+00 -6.46527204E+00  1.22818302E+00
  3.32374752E+00  7.61692140E-01 -2.05183098E+00  3.98703924E+00 -6.62380605E+00
  3.30005853E+00  1.08459130E+01 -1.04978670E+01 -6.46709427E+00  5.74731342E+00
  8.54079201E+00 -9.98035371E+00  3.68454906E+00  1.12067145E+00  1.22089410E+00
  1.77120756E+00 -1.11866700E+01  7.62785478E+00 -9.55941858E+00  2.12508463E+01
 -1.41405048E+01 -1.41405048E+01 -9.09110547E+00  1.01680434E+00  1.23729417E+00
  1.23729417E+00  1.94067495E+00  2.13929802E+00 -6.46527204E+00  1.22818302E+00
  3.32374752E+00  7.61692140E-01 -2.05183098E+00  3.98703924E+00 -6.62380605E+00
  3.30005853E+00  1.08459130E+01 -1.04978670E+01 -6.46709427E+00  5.74731342E+00
  8.54079201E+00 -9.98035371E+00  3.68454906E+00  1.12067145E+00  1.22089410E+00
  1.77120756E+00 -1.11866700E+01  7.62785478E+00 -9.55941858E+00  2.12508463E+01
 -1.41405048E+01 -1.41405048E+01 -9.09110547E+00  1.01680434E+00  1.23729417E+00
  1.23729417E+00  1.94067495E+00  2.13929802E+00 -6.46527204E+00  1.20267180E-01
  3.69730467E+00 -8.81959320E-01  9.65781900E-02  3.56792634E+00 -9.50292945E+00
  3.51325944E+00  1.49149526E+01 -1.73658519E+01  7.71532182E+00  7.71532182E+00
 -1.38197923E+01  1.37359697E+01 -1.13925820E+01  3.68454906E+00  1.12067145E+00
  1.22089410E+00  1.77120756E+00 -1.11866700E+01  7.62785478E+00 -9.55941858E+00
  2.12508463E+01 -1.41405048E+01 -1.41405048E+01 -9.09110547E+00  1.01680434E+00
  1.23729417E+00  1.23729417E+00  1.94067495E+00  2.13929802E+00 -6.46527204E+00
  1.22818302E+00  3.32374752E+00  7.61692140E-01 -2.05183098E+00  3.98703924E+00
 -6.62380605E+00  3.30005853E+00  1.08459130E+01 -1.04978670E+01 -6.46709427E+00
  5.74731342E+00  8.54079201E+00 -9.98035371E+00  3.68454906E+00  1.12067145E+00
  1.22089410E+00  1.77120756E+00 -1.11866700E+01  7.62785478E+00 -9.55941858E+00
  2.12508463E+01 -1.41405048E+01 -1.41405048E+01 -9.09110547E+00  1.01680434E+00
  1.23729417E+00  1.23729417E+00  1.94067495E+00  2.13929802E+00 -6.46527204E+00
  7.17958620E-01  3.65721561E+00 -4.57379730E-01  3.65539338E+00  2.82992319E+00
 -1.10664028E+01  9.38448450E-01  1.27720101E+01 -1.64346924E+01  7.49847645E+00
  7.49847645E+00 -1.38762815E+01  1.07056013E+01  8.61914790E-01 -1.27501433E+01
  5.56326819E+00  3.68454906E+00  1.12067145E+00  1.22089410E+00  1.77120756E+00
 -1.11866700E+01  7.62785478E+00 -9.55941858E+00  2.12508463E+01 -1.41405048E+01
 -1.41405048E+01 -9.09110547E+00  1.01680434E+00  1.23729417E+00  1.23729417E+00
  1.94067495E+00  2.13929802E+00 -6.46527204E+00  1.20267180E-01  3.69730467E+00
 -8.81959320E-01  9.65781900E-02  3.56792634E+00 -9.50292945E+00  3.51325944E+00
  1.49149526E+01 -1.73658519E+01  7.71532182E+00  7.71532182E+00 -1.38197923E+01
  1.37359697E+01 -1.13925820E+01  3.68454906E+00  1.12067145E+00  1.22089410E+00
  1.77120756E+00 -1.11866700E+01  7.62785478E+00 -9.55941858E+00  2.12508463E+01
 -1.41405048E+01 -1.41405048E+01 -9.09110547E+00  1.01680434E+00  1.23729417E+00
  1.23729417E+00  1.94067495E+00  2.13929802E+00 -6.46527204E+00  1.20267180E-01
  3.69730467E+00 -8.81959320E-01  9.65781900E-02  3.56792634E+00 -9.50292945E+00
  3.51325944E+00  1.49149526E+01 -1.73658519E+01  7.71532182E+00  7.71532182E+00
 -1.38197923E+01  1.37359697E+01 -1.13925820E+01  3.68454906E+00  1.12067145E+00
  1.22089410E+00  1.77120756E+00 -1.11866700E+01  7.62785478E+00 -9.55941858E+00
  2.12508463E+01 -1.41405048E+01 -1.41405048E+01 -9.09110547E+00  1.01680434E+00
  1.23729417E+00  1.23729417E+00  1.94067495E+00  2.13929802E+00 -6.46527204E+00
  3.48045930E-01  3.65539338E+00  8.96537160E-01  2.50374402E+00  2.98845720E+00
 -1.04031111E+01  3.17796912E+00  8.69203710E+00 -1.01990213E+01 -8.72301501E+00
  6.23931552E+00  1.39528151E+01 -1.76246086E+01  7.95221172E+00  7.95221172E+00
 -1.15219603E+01  2.22676506E+00  3.68454906E+00  1.12067145E+00  1.22089410E+00
  1.77120756E+00 -1.11866700E+01  7.62785478E+00 -9.55941858E+00  2.12508463E+01
 -1.41405048E+01 -1.41405048E+01 -9.09110547E+00  1.01680434E+00  1.23729417E+00
  1.23729417E+00  1.94067495E+00  2.13929802E+00 -6.46527204E+00  3.48045930E-01
  3.65539338E+00  8.96537160E-01  2.50374402E+00  2.98845720E+00 -1.04031111E+01
  3.17796912E+00  8.69203710E+00 -1.01990213E+01 -8.72301501E+00  6.23931552E+00
  1.39528151E+01 -1.76246086E+01  7.95221172E+00  7.95221172E+00 -1.15219603E+01
  2.22676506E+00  3.68454906E+00  1.12067145E+00  1.22089410E+00  1.77120756E+00
 -1.11866700E+01  7.62785478E+00 -9.55941858E+00  2.12508463E+01 -1.41405048E+01
 -1.41405048E+01 -9.09110547E+00  1.01680434E+00  1.23729417E+00  1.23729417E+00
  1.94067495E+00  2.13929802E+00 -6.46527204E+00  3.48045930E-01  3.65539338E+00
  8.96537160E-01  2.50374402E+00  2.98845720E+00 -1.04031111E+01  3.17796912E+00
  8.69203710E+00 -1.01990213E+01 -8.72301501E+00  6.23931552E+00  1.39528151E+01
 -1.76246086E+01  7.95221172E+00  7.95221172E+00 -1.15219603E+01  2.22676506E+00
  3.68454906E+00  1.12067145E+00  1.22089410E+00  1.77120756E+00 -1.11866700E+01
  7.62785478E+00 -9.55941858E+00  2.12508463E+01 -1.41405048E+01 -1.41405048E+01
 -9.09110547E+00  1.01680434E+00  1.23729417E+00  1.23729417E+00  1.94067495E+00
  2.13929802E+00 -6.46527204E+00  1.20267180E-01  3.69730467E+00 -8.81959320E-01
  9.65781900E-02  3.56792634E+00 -9.50292945E+00  3.51325944E+00  1.49149526E+01
 -1.73658519E+01  7.71532182E+00  7.71532182E+00 -1.38197923E+01  1.37359697E+01
 -1.13925820E+01  3.68454906E+00  1.12067145E+00  1.22089410E+00  1.77120756E+00
 -1.11866700E+01  7.62785478E+00 -9.55941858E+00  2.12508463E+01 -1.41405048E+01
 -1.41405048E+01 -9.09110547E+00  1.01680434E+00  1.23729417E+00  1.23729417E+00
  1.94067495E+00  2.13929802E+00 -6.46527204E+00  7.17958620E-01  3.65721561E+00
 -4.57379730E-01  3.65539338E+00  2.82992319E+00 -1.10664028E+01  9.38448450E-01
  1.27720101E+01 -1.64346924E+01  7.49847645E+00  7.49847645E+00 -1.38762815E+01
  1.07056013E+01  8.61914790E-01 -1.27501433E+01  5.56326819E+00  3.68454906E+00
  1.12067145E+00  1.22089410E+00  1.77120756E+00 -1.11866700E+01  7.62785478E+00
 -9.55941858E+00  2.12508463E+01 -1.41405048E+01 -1.41405048E+01 -9.09110547E+00
  1.01680434E+00  1.23729417E+00  1.23729417E+00  1.94067495E+00  2.13929802E+00
 -6.46527204E+00  1.20267180E-01  3.69730467E+00 -8.81959320E-01  9.65781900E-02
  3.56792634E+00 -9.50292945E+00  3.51325944E+00  1.49149526E+01 -1.73658519E+01
  7.71532182E+00  7.71532182E+00 -1.38197923E+01  1.37359697E+01 -1.13925820E+01
  3.68454906E+00  1.12067145E+00  1.22089410E+00  1.77120756E+00 -1.11866700E+01
  7.62785478E+00 -9.55941858E+00  2.12508463E+01 -1.41405048E+01 -1.41405048E+01
 -9.09110547E+00  1.01680434E+00  1.23729417E+00  1.23729417E+00  1.94067495E+00
  2.13929802E+00 -6.46527204E+00  1.20267180E-01  3.69730467E+00 -8.81959320E-01
  9.65781900E-02  3.56792634E+00 -9.50292945E+00  3.51325944E+00  1.49149526E+01
 -1.73658519E+01  7.71532182E+00  7.71532182E+00 -1.38197923E+01  1.37359697E+01
 -1.13925820E+01  3.68454906E+00  1.12067145E+00  1.22089410E+00  1.77120756E+00
 -1.11866700E+01  7.62785478E+00 -9.55941858E+00  2.12508463E+01 -1.41405048E+01
 -1.41405048E+01 -9.09110547E+00  1.01680434E+00  1.23729417E+00  1.23729417E+00
  1.94067495E+00  2.13929802E+00 -6.46527204E+00  3.48045930E-01  3.65539338E+00
  8.96537160E-01  2.50374402E+00  2.98845720E+00 -1.04031111E+01  3.17796912E+00
  8.69203710E+00 -1.01990213E+01 -8.72301501E+00  6.23931552E+00  1.39528151E+01
 -1.76246086E+01  7.95221172E+00  7.95221172E+00 -1.15219603E+01  2.22676506E+00
  3.68454906E+00  1.12067145E+00  1.22089410E+00  1.77120756E+00 -1.11866700E+01
  7.62785478E+00 -9.55941858E+00  2.12508463E+01 -1.41405048E+01 -1.41405048E+01
 -9.09110547E+00  1.01680434E+00  1.23729417E+00  1.23729417E+00  1.94067495E+00
  2.13929802E+00 -6.46527204E+00  1.22818302E+00  3.32374752E+00  7.61692140E-01
 -2.05183098E+00  3.98703924E+00 -6.62380605E+00  3.30005853E+00  1.08459130E+01
 -1.04978670E+01 -6.46709427E+00  5.74731342E+00  8.54079201E+00 -9.98035371E+00
  3.68454906E+00  1.12067145E+00  1.22089410E+00  1.77120756E+00 -1.11866700E+01
  7.62785478E+00 -9.55941858E+00  2.12508463E+01 -1.41405048E+01 -1.41405048E+01
 -9.09110547E+00  1.01680434E+00  1.23729417E+00  1.23729417E+00  1.94067495E+00
  2.13929802E+00 -6.46527204E+00  7.17958620E-01  3.65721561E+00 -4.57379730E-01
  3.65539338E+00  2.82992319E+00 -1.10664028E+01  9.38448450E-01  1.27720101E+01
 -1.64346924E+01  7.49847645E+00  7.49847645E+00 -1.38762815E+01  1.07056013E+01
  8.61914790E-01 -1.27501433E+01  5.56326819E+00  3.68454906E+00  1.12067145E+00
  1.22089410E+00  1.77120756E+00 -1.11866700E+01  7.62785478E+00 -9.55941858E+00
  2.12508463E+01 -1.41405048E+01 -1.41405048E+01 -9.09110547E+00  1.01680434E+00
  1.23729417E+00  1.23729417E+00  1.94067495E+00  2.13929802E+00 -6.46527204E+00
  7.17958620E-01  3.65721561E+00 -4.57379730E-01  3.65539338E+00  2.82992319E+00
 -1.10664028E+01  9.38448450E-01  1.27720101E+01 -1.64346924E+01  7.49847645E+00
  7.49847645E+00 -1.38762815E+01  1.07056013E+01  8.61914790E-01 -1.27501433E+01
  5.56326819E+00  3.68454906E+00  1.12067145E+00  1.22089410E+00  1.77120756E+00
 -1.11866700E+01  7.62785478E+00 -9.55941858E+00  2.12508463E+01 -1.41405048E+01
 -1.41405048E+01 -9.09110547E+00  1.01680434E+00  1.23729417E+00  1.23729417E+00
  1.94067495E+00  2.13929802E+00 -6.46527204E+00  7.17958620E-01  3.65721561E+00
 -4.57379730E-01  3.65539338E+00  2.82992319E+00 -1.10664028E+01  9.38448450E-01
  1.27720101E+01 -1.64346924E+01  7.49847645E+00  7.49847645E+00 -1.38762815E+01
  1.07056013E+01  8.61914790E-01 -1.27501433E+01  5.56326819E+00  3.68454906E+00
  1.12067145E+00  1.22089410E+00  1.77120756E+00 -1.11866700E+01  7.62785478E+00
 -9.55941858E+00  2.12508463E+01 -1.41405048E+01 -1.41405048E+01 -9.09110547E+00
  1.01680434E+00  1.23729417E+00  1.23729417E+00  1.94067495E+00  2.13929802E+00
 -6.46527204E+00  1.22818302E+00  3.32374752E+00  7.61692140E-01 -2.05183098E+00
  3.98703924E+00 -6.62380605E+00  3.30005853E+00  1.08459130E+01 -1.04978670E+01
 -6.46709427E+00  5.74731342E+00  8.54079201E+00 -9.98035371E+00  3.68454906E+00
  1.12067145E+00  1.22089410E+00  1.77120756E+00 -1.11866700E+01  7.62785478E+00
 -9.55941858E+00  2.12508463E+01 -1.41405048E+01 -1.41405048E+01 -9.09110547E+00
  1.01680434E+00  1.23729417E+00  1.23729417E+00  1.94067495E+00  2.13929802E+00
 -6.46527204E+00  3.48045930E-01  3.65539338E+00  8.96537160E-01  2.50374402E+00
  2.98845720E+00 -1.04031111E+01  3.17796912E+00  8.69203710E+00 -1.01990213E+01
 -8.72301501E+00  6.23931552E+00  1.39528151E+01 -1.76246086E+01  7.95221172E+00
  7.95221172E+00 -1.15219603E+01  2.22676506E+00  3.68454906E+00  1.12067145E+00
  1.22089410E+00  1.77120756E+00 -1.11866700E+01  7.62785478E+00 -9.55941858E+00
  2.12508463E+01 -1.41405048E+01 -1.41405048E+01 -9.09110547E+00  1.01680434E+00
  1.23729417E+00  1.23729417E+00  1.94067495E+00  2.13929802E+00 -6.46527204E+00
  1.22818302E+00  3.32374752E+00  7.61692140E-01 -2.05183098E+00  3.98703924E+00
 -6.62380605E+00  3.30005853E+00  1.08459130E+01 -1.04978670E+01 -6.46709427E+00
  5.74731342E+00  8.54079201E+00 -9.98035371E+00  3.68454906E+00  1.12067145E+00
  1.22089410E+00  1.77120756E+00 -1.11866700E+01  7.62785478E+00 -9.55941858E+00
  2.12508463E+01 -1.41405048E+01 -1.41405048E+01 -9.09110547E+00  1.01680434E+00
  1.23729417E+00  1.23729417E+00  1.94067495E+00  2.13929802E+00 -6.46527204E+00
  1.20267180E-01  3.69730467E+00 -8.81959320E-01  9.65781900E-02  3.56792634E+00
 -9.50292945E+00  3.51325944E+00  1.49149526E+01 -1.73658519E+01  7.71532182E+00
  7.71532182E+00 -1.38197923E+01  1.37359697E+01 -1.13925820E+01  3.68454906E+00
  1.12067145E+00  1.22089410E+00  1.77120756E+00 -1.11866700E+01  7.62785478E+00
 -9.55941858E+00  2.12508463E+01 -1.41405048E+01 -1.41405048E+01 -9.09110547E+00
  1.01680434E+00  1.23729417E+00  1.23729417E+00  1.94067495E+00  2.13929802E+00
 -6.46527204E+00  1.20267180E-01  3.69730467E+00 -8.81959320E-01  9.65781900E-02
  3.56792634E+00 -9.50292945E+00  3.51325944E+00  1.49149526E+01 -1.73658519E+01
  7.71532182E+00  7.71532182E+00 -1.38197923E+01  1.37359697E+01 -1.13925820E+01
  3.68454906E+00  1.12067145E+00  1.22089410E+00  1.77120756E+00 -1.11866700E+01
  7.62785478E+00 -9.55941858E+00  2.12508463E+01 -1.41405048E+01 -1.41405048E+01
 -9.09110547E+00  1.01680434E+00  1.23729417E+00  1.23729417E+00  1.94067495E+00
  2.13929802E+00 -6.46527204E+00  3.48045930E-01  3.65539338E+00  8.96537160E-01
  2.50374402E+00  2.98845720E+00 -1.04031111E+01  3.17796912E+00  8.69203710E+00
 -1.01990213E+01 -8.72301501E+00  6.23931552E+00  1.39528151E+01 -1.76246086E+01
  7.95221172E+00  7.95221172E+00 -1.15219603E+01  2.22676506E+00  3.68454906E+00
  1.12067145E+00  1.22089410E+00  1.77120756E+00 -1.11866700E+01  7.62785478E+00
 -9.55941858E+00  2.12508463E+01 -1.41405048E+01 -1.41405048E+01 -9.09110547E+00
  1.01680434E+00  1.23729417E+00  1.23729417E+00  1.94067495E+00  2.13929802E+00
 -6.46527204E+00  7.17958620E-01  3.65721561E+00 -4.57379730E-01  3.65539338E+00
  2.82992319E+00 -1.10664028E+01  9.38448450E-01  1.27720101E+01 -1.64346924E+01
  7.49847645E+00  7.49847645E+00 -1.38762815E+01  1.07056013E+01  8.61914790E-01
 -1.27501433E+01  5.56326819E+00  3.68454906E+00  1.12067145E+00  1.22089410E+00
  1.77120756E+00 -1.11866700E+01  7.62785478E+00 -9.55941858E+00  2.12508463E+01
 -1.41405048E+01 -1.41405048E+01 -9.09110547E+00  1.01680434E+00  1.23729417E+00
  1.23729417E+00  1.94067495E+00  2.13929802E+00 -6.46527204E+00  1.20267180E-01
  3.69730467E+00 -8.81959320E-01  9.65781900E-02  3.56792634E+00 -9.50292945E+00
  3.51325944E+00  1.49149526E+01 -1.73658519E+01  7.71532182E+00  7.71532182E+00
 -1.38197923E+01  1.37359697E+01 -1.13925820E+01  3.68454906E+00  1.12067145E+00
  1.22089410E+00  1.77120756E+00 -1.11866700E+01  7.62785478E+00 -9.55941858E+00
  2.12508463E+01 -1.41405048E+01 -1.41405048E+01 -9.09110547E+00  1.01680434E+00
  1.23729417E+00  1.23729417E+00  1.94067495E+00  2.13929802E+00 -6.46527204E+00
  1.22818302E+00  3.32374752E+00  7.61692140E-01 -2.05183098E+00  3.98703924E+00
 -6.62380605E+00  3.30005853E+00  1.08459130E+01 -1.04978670E+01 -6.46709427E+00
  5.74731342E+00  8.54079201E+00 -9.98035371E+00  3.68454906E+00  1.12067145E+00
  1.22089410E+00  1.77120756E+00 -1.11866700E+01  7.62785478E+00 -9.55941858E+00
  2.12508463E+01 -1.41405048E+01 -1.41405048E+01 -9.09110547E+00  1.01680434E+00
  1.23729417E+00  1.23729417E+00  1.94067495E+00  2.13929802E+00 -6.46527204E+00
  7.17958620E-01  3.65721561E+00 -4.57379730E-01  3.65539338E+00  2.82992319E+00
 -1.10664028E+01  9.38448450E-01  1.27720101E+01 -1.64346924E+01  7.49847645E+00
  7.49847645E+00 -1.38762815E+01  1.07056013E+01  8.61914790E-01 -1.27501433E+01
  5.56326819E+00  3.68454906E+00  1.12067145E+00  1.22089410E+00  1.77120756E+00
 -1.11866700E+01  7.62785478E+00 -9.55941858E+00  2.12508463E+01 -1.41405048E+01
 -1.41405048E+01 -9.09110547E+00  1.01680434E+00  1.23729417E+00  1.23729417E+00
  1.94067495E+00  2.13929802E+00 -6.46527204E+00  1.22818302E+00  3.32374752E+00
  7.61692140E-01 -2.05183098E+00  3.98703924E+00 -6.62380605E+00  3.30005853E+00
  1.08459130E+01 -1.04978670E+01 -6.46709427E+00  5.74731342E+00  8.54079201E+00
 -9.98035371E+00  3.68454906E+00  1.12067145E+00  1.22089410E+00  1.77120756E+00
 -1.11866700E+01  7.62785478E+00 -9.55941858E+00  2.12508463E+01 -1.41405048E+01
 -1.41405048E+01 -9.09110547E+00  1.01680434E+00  1.23729417E+00  1.23729417E+00
  1.94067495E+00  2.13929802E+00 -6.46527204E+00  3.48045930E-01  3.65539338E+00
  8.96537160E-01  2.50374402E+00  2.98845720E+00 -1.04031111E+01  3.17796912E+00
  8.69203710E+00 -1.01990213E+01 -8.72301501E+00  6.23931552E+00  1.39528151E+01
 -1.76246086E+01  7.95221172E+00  7.95221172E+00 -1.15219603E+01  2.22676506E+00
  3.68454906E+00  1.12067145E+00  1.22089410E+00  1.77120756E+00 -1.11866700E+01
  7.62785478E+00 -9.55941858E+00  2.12508463E+01 -1.41405048E+01 -1.41405048E+01
 -9.09110547E+00  1.01680434E+00  1.23729417E+00  1.23729417E+00  1.94067495E+00
  2.13929802E+00 -6.46527204E+00  3.48045930E-01  3.65539338E+00  8.96537160E-01
  2.50374402E+00  2.98845720E+00 -1.04031111E+01  3.17796912E+00  8.69203710E+00
 -1.01990213E+01 -8.72301501E+00  6.23931552E+00  1.39528151E+01 -1.76246086E+01
  7.95221172E+00  7.95221172E+00 -1.15219603E+01  2.22676506E+00  3.68454906E+00
  1.12067145E+00  1.22089410E+00  1.77120756E+00 -1.11866700E+01  7.62785478E+00
 -9.55941858E+00  2.12508463E+01 -1.41405048E+01 -1.41405048E+01 -9.09110547E+00
  1.01680434E+00  1.23729417E+00  1.23729417E+00  1.94067495E+00  2.13929802E+00
 -6.46527204E+00  1.22818302E+00  3.32374752E+00  7.61692140E-01 -2.05183098E+00
  3.98703924E+00 -6.62380605E+00  3.30005853E+00  1.08459130E+01 -1.04978670E+01
 -6.46709427E+00  5.74731342E+00  8.54079201E+00 -9.98035371E+00  3.68454906E+00
  1.12067145E+00  1.22089410E+00  1.77120756E+00 -1.11866700E+01  7.62785478E+00
 -9.55941858E+00  2.12508463E+01 -1.41405048E+01 -1.41405048E+01 -9.09110547E+00
  1.01680434E+00  1.23729417E+00  1.23729417E+00  1.94067495E+00  2.13929802E+00
 -6.46527204E+00  1.20267180E-01  3.69730467E+00 -8.81959320E-01  9.65781900E-02
  3.56792634E+00 -9.50292945E+00  3.51325944E+00  1.49149526E+01 -1.73658519E+01
  7.71532182E+00  7.71532182E+00 -1.38197923E+01  1.37359697E+01 -1.13925820E+01
  3.68454906E+00  1.12067145E+00  1.22089410E+00  1.77120756E+00 -1.11866700E+01
  7.62785478E+00 -1.19192064E+01  7.97407848E+00  1.82223000E+01  1.82223000E+01
  1.82223000E+01  1.82223000E+01  1.82223000E+01  1.82223000E+01  1.82223000E+01
  1.82223000E+01  1.82223000E+01  1.82223000E+01  1.82223000E+01  1.82223000E+01
  1.82223000E+01  1.82223000E+01  1.82223000E+01  1.82223000E+01  1.82223000E+01
  1.82223000E+01  1.82223000E+01  1.82223000E+01  1.82223000E+01  1.82223000E+01
  1.82223000E+01  1.82223000E+01  1.82223000E+01  1.82223000E+01  1.82223000E+01
  1.82223000E+01  1.82223000E+01  1.82223000E+01  1.82223000E+01  1.82223000E+01
  1.82223000E+01  1.82223000E+01  1.82223000E+01  1.82223000E+01  1.82223000E+01
  1.82223000E+01  1.82223000E+01  1.82223000E+01  1.82223000E+01  1.82223000E+01
  1.82223000E+01  1.82223000E+01  1.82223000E+01  1.82223000E+01  1.82223000E+01
  1.82223000E+01  1.82223000E+01  1.82223000E+01  1.82223000E+01  1.82223000E+01
  1.82223000E+01  1.82223000E+01  1.82223000E+01  1.82223000E+01  1.82223000E+01
  1.82223000E+01  1.82223000E+01  1.82223000E+01  1.82223000E+01  1.82223000E+01
  1.82223000E+01  1.82223000E+01  1.82223000E+01  1.82223000E+01  1.82223000E+01
  1.82223000E+01 -1.82223000E+01  1.82223000E+01 -1.82223000E+01  1.82223000E+01
 -1.82223000E+01  1.82223000E+01 -1.82223000E+01  1.82223000E+01 -1.82223000E+01
  1.82223000E+01 -1.82223000E+01  1.82223000E+01 -1.82223000E+01  1.82223000E+01
 -1.82223000E+01  1.82223000E+01 -1.82223000E+01  1.82223000E+01 -1.82223000E+01
  1.82223000E+01 -1.82223000E+01  1.82223000E+01 -1.82223000E+01  1.82223000E+01
 -1.82223000E+01  1.82223000E+01 -1.82223000E+01  1.82223000E+01 -1.82223000E+01
  1.82223000E+01 -1.82223000E+01  1.82223000E+01 -1.82223000E+01  1.82223000E+01
 -1.82223000E+01  1.82223000E+01 -1.82223000E+01  1.82223000E+01 -1.82223000E+01
  1.82223000E+01 -1.82223000E+01  1.82223000E+01 -1.82223000E+01  1.82223000E+01
 -1.82223000E+01  1.82223000E+01 -1.82223000E+01  1.82223000E+01 -1.82223000E+01
  1.82223000E+01 -1.82223000E+01  1.82223000E+01 -1.82223000E+01  1.82223000E+01
 -1.82223000E+01  1.82223000E+01 -1.82223000E+01  1.82223000E+01 -1.82223000E+01
  1.82223000E+01 -1.82223000E+01  1.82223000E+01 -1.82223000E+01 -1.01971991E+01
  6.73131762E+00 -5.09859954E+00  5.34277836E+00  9.33163983E+00 -3.37841442E+00
 -3.01032396E+00 -3.01214619E+00 -1.08204017E+01  7.44016509E+00  5.95140318E+00
 -1.05926230E+01  2.23040952E+00 -7.21785303E+00  5.91860304E+00  3.66814899E+00
  6.71309532E+00  0.00000000E+00  9.55249411E+00  9.55249411E+00 -1.91049882E+01
  0.00000000E+00  9.55249411E+00  9.55249411E+00 -1.91049882E+01  0.00000000E+00
  9.55249411E+00  9.55249411E+00 -1.91049882E+01  0.00000000E+00  9.55249411E+00
  9.55249411E+00 -1.91049882E+01  0.00000000E+00  9.55249411E+00  9.55249411E+00
 -1.91049882E+01  0.00000000E+00  9.55249411E+00  9.55249411E+00 -1.91049882E+01
  0.00000000E+00  9.55249411E+00  9.55249411E+00 -1.91049882E+01  0.00000000E+00
  9.55249411E+00  9.55249411E+00 -1.91049882E+01  0.00000000E+00  9.55249411E+00
  9.55249411E+00 -1.91049882E+01  0.00000000E+00  9.55249411E+00  9.55249411E+00
 -1.91049882E+01  0.00000000E+00  9.55249411E+00  9.55249411E+00 -1.91049882E+01
  0.00000000E+00  9.55249411E+00  9.55249411E+00 -1.91049882E+01  0.00000000E+00
  9.55249411E+00  9.55249411E+00 -1.91049882E+01  0.00000000E+00  9.55249411E+00
  9.55249411E+00 -1.91049882E+01  0.00000000E+00  9.55249411E+00  9.55249411E+00
 -1.91049882E+01  0.00000000E+00  9.55249411E+00  9.55249411E+00 -1.91049882E+01
  0.00000000E+00  9.55249411E+00  9.55249411E+00 -1.91049882E+01  0.00000000E+00
  9.55249411E+00  9.55249411E+00 -1.91049882E+01  0.00000000E+00  9.55249411E+00
  9.55249411E+00 -1.91049882E+01  0.00000000E+00  9.55249411E+00  9.55249411E+00
 -1.91049882E+01  0.00000000E+00  9.55249411E+00  9.55249411E+00 -1.91049882E+01
  0.00000000E+00  9.55249411E+00  9.55249411E+00 -1.91049882E+01  0.00000000E+00
  9.55249411E+00  9.55249411E+00 -1.91049882E+01  0.00000000E+00  9.55249411E+00
  9.55249411E+00 -1.91049882E+01  0.00000000E+00  9.55249411E+00  9.55249411E+00
 -1.91049882E+01  0.00000000E+00  9.55249411E+00  9.55249411E+00 -1.91049882E+01
  0.00000000E+00  9.55249411E+00  9.55249411E+00 -1.91049882E+01  0.00000000E+00
  9.55249411E+00  9.55249411E+00 -1.91049882E+01  0.00000000E+00  9.55249411E+00
  9.55249411E+00 -1.91049882E+01  0.00000000E+00  9.55249411E+00  9.55249411E+00
 -1.91049882E+01  0.00000000E+00  9.55249411E+00  9.55249411E+00 -1.91049882E+01
  0.00000000E+00  9.55249411E+00  9.55249411E+00 -1.91049882E+01  0.00000000E+00
  9.55249411E+00  9.55249411E+00 -1.91049882E+01  0.00000000E+00  9.55249411E+00
  9.55249411E+00 -1.91049882E+01  0.00000000E+00  9.55249411E+00  9.55249411E+00
 -1.91049882E+01  0.00000000E+00  9.55249411E+00  9.55249411E+00 -1.91049882E+01
  0.00000000E+00  9.55249411E+00  9.55249411E+00 -1.91049882E+01  0.00000000E+00
  9.55249411E+00  9.55249411E+00 -1.91049882E+01  0.00000000E+00  9.55249411E+00
  9.55249411E+00 -1.91049882E+01  0.00000000E+00  9.55249411E+00  9.55249411E+00
 -1.91049882E+01  0.00000000E+00  9.55249411E+00  9.55249411E+00 -1.91049882E+01
  0.00000000E+00  9.55249411E+00  9.55249411E+00 -1.91049882E+01  0.00000000E+00
  9.55249411E+00  9.55249411E+00 -1.91049882E+01  0.00000000E+00  9.55249411E+00
  9.55249411E+00 -1.91049882E+01  0.00000000E+00  9.55249411E+00  9.55249411E+00
 -1.91049882E+01  0.00000000E+00  9.55249411E+00  9.55249411E+00 -1.91049882E+01
  0.00000000E+00  9.55249411E+00  9.55249411E+00 -1.91049882E+01  0.00000000E+00
  9.55249411E+00  9.55249411E+00 -1.91049882E+01  0.00000000E+00  9.55249411E+00
  9.55249411E+00 -1.91049882E+01  0.00000000E+00  9.55249411E+00  9.55249411E+00
 -1.91049882E+01  0.00000000E+00  9.55249411E+00  9.55249411E+00 -1.91049882E+01
  0.00000000E+00  9.55249411E+00  9.55249411E+00 -1.91049882E+01  0.00000000E+00
  9.55249411E+00  9.55249411E+00 -1.91049882E+01  0.00000000E+00  9.55249411E+00
  9.55249411E+00 -1.91049882E+01  0.00000000E+00  9.55249411E+00  9.55249411E+00
 -1.91049882E+01  0.00000000E+00  9.55249411E+00  9.55249411E+00 -1.91049882E+01
  0.00000000E+00  9.55249411E+00  9.55249411E+00 -1.91049882E+01  0.00000000E+00
  9.55249411E+00  9.55249411E+00 -1.91049882E+01  0.00000000E+00  9.55249411E+00
  9.55249411E+00 -1.91049882E+01  0.00000000E+00  9.55249411E+00  9.55249411E+00
 -1.91049882E+01  0.00000000E+00  9.55249411E+00  9.55249411E+00 -1.91049882E+01
  0.00000000E+00  9.55249411E+00  9.55249411E+00 -1.91049882E+01  0.00000000E+00
  9.55249411E+00  9.55249411E+00 -1.91049882E+01  0.00000000E+00  9.55249411E+00
  9.55249411E+00 -1.91049882E+01  0.00000000E+00  9.55249411E+00  9.55249411E+00
 -1.91049882E+01  0.00000000E+00  9.55249411E+00  9.55249411E+00 -1.91049882E+01
  0.00000000E+00  9.55249411E+00  9.55249411E+00 -1.91049882E+01  0.00000000E+00
  9.55249411E+00  9.55249411E+00 -1.91049882E+01  0.00000000E+00  9.55249411E+00
  9.55249411E+00 -1.91049882E+01  0.00000000E+00  9.55249411E+00  9.55249411E+00
 -1.91049882E+01  0.00000000E+00  9.55249411E+00  9.55249411E+00 -1.91049882E+01
  0.00000000E+00  9.55249411E+00  9.55249411E+00 -1.91049882E+01  0.00000000E+00
  9.55249411E+00  9.55249411E+00 -1.91049882E+01  0.00000000E+00  9.55249411E+00
  9.55249411E+00 -1.91049882E+01  0.00000000E+00  9.55249411E+00  9.55249411E+00
 -1.91049882E+01  0.00000000E+00  9.55249411E+00  9.55249411E+00 -1.91049882E+01
  0.00000000E+00  9.55249411E+00  9.55249411E+00 -1.91049882E+01  0.00000000E+00
  9.55249411E+00  9.55249411E+00 -1.91049882E+01  0.00000000E+00  9.55249411E+00
  9.55249411E+00 -1.91049882E+01  0.00000000E+00  9.55249411E+00  9.55249411E+00
 -1.91049882E+01  0.00000000E+00  9.55249411E+00  9.55249411E+00 -1.91049882E+01
  0.00000000E+00  9.55249411E+00  9.55249411E+00 -1.91049882E+01  0.00000000E+00
  9.55249411E+00  9.55249411E+00 -1.91049882E+01  0.00000000E+00  9.55249411E+00
  9.55249411E+00 -1.91049882E+01  0.00000000E+00  9.55249411E+00  9.55249411E+00
 -1.91049882E+01  0.00000000E+00  9.55249411E+00  9.55249411E+00 -1.91049882E+01
  0.00000000E+00  9.55249411E+00  9.55249411E+00 -1.91049882E+01  0.00000000E+00
  9.55249411E+00  9.55249411E+00 -1.91049882E+01  0.00000000E+00  9.55249411E+00
  9.55249411E+00 -1.91049882E+01  0.00000000E+00  9.55249411E+00  9.55249411E+00
 -1.91049882E+01  0.00000000E+00  9.55249411E+00  9.55249411E+00 -1.91049882E+01
  0.00000000E+00  9.55249411E+00  9.55249411E+00 -1.91049882E+01  0.00000000E+00
  9.55249411E+00  9.55249411E+00 -1.91049882E+01  0.00000000E+00  9.55249411E+00
  9.55249411E+00 -1.91049882E+01  0.00000000E+00  9.55249411E+00  9.55249411E+00
 -1.91049882E+01  0.00000000E+00  9.55249411E+00  9.55249411E+00 -1.91049882E+01
  0.00000000E+00  9.55249411E+00  9.55249411E+00 -1.91049882E+01  0.00000000E+00
  9.55249411E+00  9.55249411E+00 -1.91049882E+01  0.00000000E+00  9.55249411E+00
  9.55249411E+00 -1.91049882E+01  0.00000000E+00  9.55249411E+00  9.55249411E+00
 -1.91049882E+01  0.00000000E+00  9.55249411E+00  9.55249411E+00 -1.91049882E+01
  0.00000000E+00  9.55249411E+00  9.55249411E+00 -1.91049882E+01  0.00000000E+00
  9.55249411E+00  9.55249411E+00 -1.91049882E+01  0.00000000E+00  9.55249411E+00
  9.55249411E+00 -1.91049882E+01  0.00000000E+00  9.55249411E+00  9.55249411E+00
 -1.91049882E+01  0.00000000E+00  9.55249411E+00  9.55249411E+00 -1.91049882E+01
  0.00000000E+00  9.55249411E+00  9.55249411E+00 -1.91049882E+01  0.00000000E+00
  9.55249411E+00  9.55249411E+00 -1.91049882E+01  0.00000000E+00  9.55249411E+00
  9.55249411E+00 -1.91049882E+01  0.00000000E+00  9.55249411E+00  9.55249411E+00
 -1.91049882E+01  0.00000000E+00  9.55249411E+00  9.55249411E+00 -1.91049882E+01
  0.00000000E+00  9.55249411E+00  9.55249411E+00 -1.91049882E+01  0.00000000E+00
  9.55249411E+00  9.55249411E+00 -1.91049882E+01  0.00000000E+00  9.55249411E+00
  9.55249411E+00 -1.91049882E+01  0.00000000E+00  9.55249411E+00  9.55249411E+00
 -1.91049882E+01  0.00000000E+00  9.55249411E+00  9.55249411E+00 -1.91049882E+01
  0.00000000E+00  9.55249411E+00  9.55249411E+00 -1.91049882E+01  0.00000000E+00
  9.55249411E+00  9.55249411E+00 -1.91049882E+01  0.00000000E+00  9.55249411E+00
  9.55249411E+00 -1.91049882E+01  0.00000000E+00  9.55249411E+00  9.55249411E+00
 -1.91049882E+01  0.00000000E+00  9.55249411E+00  9.55249411E+00 -1.91049882E+01
  0.00000000E+00  9.55249411E+00  9.55249411E+00 -1.91049882E+01  0.00000000E+00
  9.55249411E+00  9.55249411E+00 -1.91049882E+01  0.00000000E+00  9.55249411E+00
  9.55249411E+00 -1.91049882E+01  0.00000000E+00  9.55249411E+00  9.55249411E+00
 -1.91049882E+01  0.00000000E+00  9.55249411E+00  9.55249411E+00 -1.91049882E+01
  0.00000000E+00  9.55249411E+00  9.55249411E+00 -1.91049882E+01  0.00000000E+00
  9.55249411E+00  9.55249411E+00 -1.91049882E+01  0.00000000E+00  9.55249411E+00
  9.55249411E+00 -1.91049882E+01  0.00000000E+00  9.55249411E+00  9.55249411E+00
 -1.91049882E+01  0.00000000E+00  9.55249411E+00  9.55249411E+00 -1.91049882E+01
  0.00000000E+00  9.55249411E+00  9.55249411E+00 -1.91049882E+01  0.00000000E+00
  9.55249411E+00  9.55249411E+00 -1.91049882E+01  0.00000000E+00  9.55249411E+00
  9.55249411E+00 -1.91049882E+01  0.00000000E+00  9.55249411E+00  9.55249411E+00
 -1.91049882E+01  0.00000000E+00  9.55249411E+00  9.55249411E+00 -1.91049882E+01
  0.00000000E+00  9.55249411E+00  9.55249411E+00 -1.91049882E+01  0.00000000E+00
  9.55249411E+00  9.55249411E+00 -1.91049882E+01  0.00000000E+00  9.55249411E+00
  9.55249411E+00 -1.91049882E+01  0.00000000E+00  9.55249411E+00  9.55249411E+00
 -1.91049882E+01  0.00000000E+00  9.55249411E+00  9.55249411E+00 -1.91049882E+01
  0.00000000E+00  9.55249411E+00  9.55249411E+00 -1.91049882E+01  0.00000000E+00
  9.55249411E+00  9.55249411E+00 -1.91049882E+01  0.00000000E+00  9.55249411E+00
  9.55249411E+00 -1.91049882E+01  0.00000000E+00  9.55249411E+00  9.55249411E+00
 -1.91049882E+01  0.00000000E+00  9.55249411E+00  9.55249411E+00 -1.91049882E+01
  0.00000000E+00  9.55249411E+00  9.55249411E+00 -1.91049882E+01  0.00000000E+00
  9.55249411E+00  9.55249411E+00 -1.91049882E+01  0.00000000E+00  9.55249411E+00
  9.55249411E+00 -1.91049882E+01  0.00000000E+00  9.55249411E+00  9.55249411E+00
 -1.91049882E+01  0.00000000E+00  9.55249411E+00  9.55249411E+00 -1.91049882E+01
  0.00000000E+00  9.55249411E+00  9.55249411E+00 -1.91049882E+01  0.00000000E+00
  9.55249411E+00  9.55249411E+00 -1.91049882E+01  0.00000000E+00  9.55249411E+00
  9.55249411E+00 -1.91049882E+01  0.00000000E+00  9.55249411E+00  9.55249411E+00
 -1.91049882E+01  0.00000000E+00  9.55249411E+00  9.55249411E+00 -1.91049882E+01
  0.00000000E+00  9.55249411E+00  9.55249411E+00 -1.91049882E+01  0.00000000E+00
  9.55249411E+00  9.55249411E+00 -1.91049882E+01  0.00000000E+00  9.55249411E+00
  9.55249411E+00 -1.91049882E+01  0.00000000E+00  9.55249411E+00  9.55249411E+00
 -1.91049882E+01  0.00000000E+00  9.55249411E+00  9.55249411E+00 -1.91049882E+01
  0.00000000E+00  9.55249411E+00  9.55249411E+00 -1.91049882E+01  0.00000000E+00
  9.55249411E+00  9.55249411E+00 -1.91049882E+01  0.00000000E+00  9.55249411E+00
  9.55249411E+00 -1.91049882E+01  0.00000000E+00  9.55249411E+00  9.55249411E+00
 -1.91049882E+01  0.00000000E+00  9.55249411E+00  9.55249411E+00 -1.91049882E+01
  0.00000000E+00  9.55249411E+00  9.55249411E+00 -1.91049882E+01  0.00000000E+00
  9.55249411E+00  9.55249411E+00 -1.91049882E+01  0.00000000E+00  9.55249411E+00
  9.55249411E+00 -1.91049882E+01  0.00000000E+00  9.55249411E+00  9.55249411E+00
 -1.91049882E+01  0.00000000E+00  9.55249411E+00  9.55249411E+00 -1.91049882E+01
  0.00000000E+00  9.55249411E+00  9.55249411E+00 -1.91049882E+01  0.00000000E+00
  9.55249411E+00  9.55249411E+00 -1.91049882E+01  0.00000000E+00  9.55249411E+00
  9.55249411E+00 -1.91049882E+01  0.00000000E+00  9.55249411E+00  9.55249411E+00
 -1.91049882E+01  0.00000000E+00  9.55249411E+00  9.55249411E+00 -1.91049882E+01
  0.00000000E+00  9.55249411E+00  9.55249411E+00 -1.91049882E+01  0.00000000E+00
  9.55249411E+00  9.55249411E+00 -1.91049882E+01  0.00000000E+00  9.55249411E+00
  9.55249411E+00 -1.91049882E+01  0.00000000E+00  9.55249411E+00  9.55249411E+00
 -1.91049882E+01  0.00000000E+00  9.55249411E+00  9.55249411E+00 -1.91049882E+01
  0.00000000E+00  9.55249411E+00  9.55249411E+00 -1.91049882E+01  0.00000000E+00
  9.55249411E+00  9.55249411E+00 -1.91049882E+01  0.00000000E+00  9.55249411E+00
  9.55249411E+00 -1.91049882E+01  0.00000000E+00  9.55249411E+00  9.55249411E+00
 -1.91049882E+01  0.00000000E+00  9.55249411E+00  9.55249411E+00 -1.91049882E+01
  0.00000000E+00  9.55249411E+00  9.55249411E+00 -1.91049882E+01  0.00000000E+00
  9.55249411E+00  9.55249411E+00 -1.91049882E+01  0.00000000E+00  9.55249411E+00
  9.55249411E+00 -1.91049882E+01  0.00000000E+00  9.55249411E+00  9.55249411E+00
 -1.91049882E+01  0.00000000E+00  9.55249411E+00  9.55249411E+00 -1.91049882E+01
  0.00000000E+00  9.55249411E+00  9.55249411E+00 -1.91049882E+01  0.00000000E+00
  9.55249411E+00  9.55249411E+00 -1.91049882E+01  0.00000000E+00  9.55249411E+00
  9.55249411E+00 -1.91049882E+01  0.00000000E+00  9.55249411E+00  9.55249411E+00
 -1.91049882E+01  0.00000000E+00  9.55249411E+00  9.55249411E+00 -1.91049882E+01
  0.00000000E+00  9.55249411E+00  9.55249411E+00 -1.91049882E+01  0.00000000E+00
  9.55249411E+00  9.55249411E+00 -1.91049882E+01  0.00000000E+00  9.55249411E+00
  9.55249411E+00 -1.91049882E+01  0.00000000E+00  9.55249411E+00  9.55249411E+00
 -1.91049882E+01  0.00000000E+00  9.55249411E+00  9.55249411E+00 -1.91049882E+01
  0.00000000E+00  9.55249411E+00  9.55249411E+00 -1.91049882E+01  0.00000000E+00
  9.55249411E+00  9.55249411E+00 -1.91049882E+01  0.00000000E+00  9.55249411E+00
  9.55249411E+00 -1.91049882E+01  0.00000000E+00  9.55249411E+00  9.55249411E+00
 -1.91049882E+01  0.00000000E+00  9.55249411E+00  9.55249411E+00 -1.91049882E+01
  0.00000000E+00  9.55249411E+00  9.55249411E+00 -1.91049882E+01  0.00000000E+00
  9.55249411E+00  9.55249411E+00 -1.91049882E+01  0.00000000E+00  9.55249411E+00
  9.55249411E+00 -1.91049882E+01  0.00000000E+00  9.55249411E+00  9.55249411E+00
 -1.91049882E+01  0.00000000E+00  9.55249411E+00  9.55249411E+00 -1.91049882E+01
  0.00000000E+00  9.55249411E+00  9.55249411E+00 -1.91049882E+01  0.00000000E+00
  9.55249411E+00  9.55249411E+00 -1.91049882E+01  0.00000000E+00  9.55249411E+00
  9.55249411E+00 -1.91049882E+01  0.00000000E+00  9.55249411E+00  9.55249411E+00
 -1.91049882E+01  0.00000000E+00  9.55249411E+00  9.55249411E+00 -1.91049882E+01
  0.00000000E+00  9.55249411E+00  9.55249411E+00 -1.91049882E+01  0.00000000E+00
  9.55249411E+00  9.55249411E+00 -1.91049882E+01  0.00000000E+00  9.55249411E+00
  9.55249411E+00 -1.91049882E+01  0.00000000E+00  9.55249411E+00  9.55249411E+00
 -1.91049882E+01  0.00000000E+00  9.55249411E+00  9.55249411E+00 -1.91049882E+01
  0.00000000E+00  9.55249411E+00  9.55249411E+00 -1.91049882E+01  0.00000000E+00
  9.55249411E+00  9.55249411E+00 -1.91049882E+01  0.00000000E+00  9.55249411E+00
  9.55249411E+00 -1.91049882E+01  0.00000000E+00  9.55249411E+00  9.55249411E+00
 -1.91049882E+01  0.00000000E+00  9.55249411E+00  9.55249411E+00 -1.91049882E+01
  0.00000000E+00  9.55249411E+00  9.55249411E+00 -1.91049882E+01  0.00000000E+00
  9.55249411E+00  9.55249411E+00 -1.91049882E+01  0.00000000E+00  9.55249411E+00
  9.55249411E+00 -1.91049882E+01  0.00000000E+00  9.55249411E+00  9.55249411E+00
 -1.91049882E+01  0.00000000E+00  9.55249411E+00  9.55249411E+00 -1.91049882E+01
  0.00000000E+00  9.55249411E+00  9.55249411E+00 -1.91049882E+01  0.00000000E+00
  9.55249411E+00  9.55249411E+00 -1.91049882E+01  0.00000000E+00  9.55249411E+00
  9.55249411E+00 -1.91049882E+01  0.00000000E+00  9.55249411E+00  9.55249411E+00
 -1.91049882E+01  0.00000000E+00  9.55249411E+00  9.55249411E+00 -1.91049882E+01
  0.00000000E+00  9.55249411E+00  9.55249411E+00 -1.91049882E+01  0.00000000E+00
  9.55249411E+00  9.55249411E+00 -1.91049882E+01  0.00000000E+00  9.55249411E+00
  9.55249411E+00 -1.91049882E+01  0.00000000E+00  9.55249411E+00  9.55249411E+00
 -1.91049882E+01  0.00000000E+00  9.55249411E+00  9.55249411E+00 -1.91049882E+01
  0.00000000E+00  9.55249411E+00  9.55249411E+00 -1.91049882E+01  0.00000000E+00
  9.55249411E+00  9.55249411E+00 -1.91049882E+01  0.00000000E+00  9.55249411E+00
  9.55249411E+00 -1.91049882E+01  0.00000000E+00  9.55249411E+00  9.55249411E+00
 -1.91049882E+01  0.00000000E+00  9.55249411E+00  9.55249411E+00 -1.91049882E+01
  0.00000000E+00  9.55249411E+00  9.55249411E+00 -1.91049882E+01  0.00000000E+00
  9.55249411E+00  9.55249411E+00 -1.91049882E+01  0.00000000E+00  9.55249411E+00
  9.55249411E+00 -1.91049882E+01  0.00000000E+00  9.55249411E+00  9.55249411E+00
 -1.91049882E+01  0.00000000E+00  9.55249411E+00  9.55249411E+00 -1.91049882E+01
  0.00000000E+00  9.55249411E+00  9.55249411E+00 -1.91049882E+01  0.00000000E+00
  9.55249411E+00  9.55249411E+00 -1.91049882E+01  0.00000000E+00  9.55249411E+00
  9.55249411E+00 -1.91049882E+01  0.00000000E+00  9.55249411E+00  9.55249411E+00
 -1.91049882E+01  0.00000000E+00  9.55249411E+00  9.55249411E+00 -1.91049882E+01
  0.00000000E+00  9.55249411E+00  9.55249411E+00 -1.91049882E+01  0.00000000E+00
  9.55249411E+00  9.55249411E+00 -1.91049882E+01  0.00000000E+00  9.55249411E+00
  9.55249411E+00 -1.91049882E+01  0.00000000E+00  9.55249411E+00  9.55249411E+00
 -1.91049882E+01  0.00000000E+00  9.55249411E+00  9.55249411E+00 -1.91049882E+01
  0.00000000E+00  9.55249411E+00  9.55249411E+00 -1.91049882E+01  0.00000000E+00
  9.55249411E+00  9.55249411E+00 -1.91049882E+01  0.00000000E+00  9.55249411E+00
  9.55249411E+00 -1.91049882E+01  0.00000000E+00  9.55249411E+00  9.55249411E+00
 -1.91049882E+01  0.00000000E+00  9.55249411E+00  9.55249411E+00 -1.91049882E+01
  0.00000000E+00  9.55249411E+00  9.55249411E+00 -1.91049882E+01  0.00000000E+00
  9.55249411E+00  9.55249411E+00 -1.91049882E+01  0.00000000E+00  9.55249411E+00
  9.55249411E+00 -1.91049882E+01  0.00000000E+00  9.55249411E+00  9.55249411E+00
 -1.91049882E+01  0.00000000E+00  9.55249411E+00  9.55249411E+00 -1.91049882E+01
  0.00000000E+00  9.55249411E+00  9.55249411E+00 -1.91049882E+01  0.00000000E+00
  9.55249411E+00  9.55249411E+00 -1.91049882E+01  0.00000000E+00  9.55249411E+00
  9.55249411E+00 -1.91049882E+01  0.00000000E+00  9.55249411E+00  9.55249411E+00
 -1.91049882E+01  0.00000000E+00  9.55249411E+00  9.55249411E+00 -1.91049882E+01
  0.00000000E+00  9.55249411E+00  9.55249411E+00 -1.91049882E+01  0.00000000E+00
  9.55249411E+00  9.55249411E+00 -1.91049882E+01  0.00000000E+00  9.55249411E+00
  9.55249411E+00 -1.91049882E+01  0.00000000E+00  9.55249411E+00  9.55249411E+00
 -1.91049882E+01  0.00000000E+00  9.55249411E+00  9.55249411E+00 -1.91049882E+01
  0.00000000E+00  9.55249411E+00  9.55249411E+00 -1.91049882E+01  0.00000000E+00
  9.55249411E+00  9.55249411E+00 -1.91049882E+01  0.00000000E+00  9.55249411E+00
  9.55249411E+00 -1.91049882E+01  0.00000000E+00  9.55249411E+00  9.55249411E+00
 -1.91049882E+01  0.00000000E+00  9.55249411E+00  9.55249411E+00 -1.91049882E+01
  0.00000000E+00  9.55249411E+00  9.55249411E+00 -1.91049882E+01  0.00000000E+00
  9.55249411E+00  9.55249411E+00 -1.91049882E+01  0.00000000E+00  9.55249411E+00
  9.55249411E+00 -1.91049882E+01  0.00000000E+00  9.55249411E+00  9.55249411E+00
 -1.91049882E+01  0.00000000E+00  9.55249411E+00  9.55249411E+00 -1.91049882E+01
  0.00000000E+00  9.55249411E+00  9.55249411E+00 -1.91049882E+01  0.00000000E+00
  9.55249411E+00  9.55249411E+00 -1.91049882E+01  0.00000000E+00  9.55249411E+00
  9.55249411E+00 -1.91049882E+01  0.00000000E+00  9.55249411E+00  9.55249411E+00
 -1.91049882E+01  0.00000000E+00  9.55249411E+00  9.55249411E+00 -1.91049882E+01
  0.00000000E+00  9.55249411E+00  9.55249411E+00 -1.91049882E+01  0.00000000E+00
  9.55249411E+00  9.55249411E+00 -1.91049882E+01  0.00000000E+00  9.55249411E+00
  9.55249411E+00 -1.91049882E+01  0.00000000E+00  9.55249411E+00  9.55249411E+00
 -1.91049882E+01  0.00000000E+00  9.55249411E+00  9.55249411E+00 -1.91049882E+01
  0.00000000E+00  9.55249411E+00  9.55249411E+00 -1.91049882E+01  0.00000000E+00
  9.55249411E+00  9.55249411E+00 -1.91049882E+01  0.00000000E+00  9.55249411E+00
  9.55249411E+00 -1.91049882E+01  0.00000000E+00  9.55249411E+00  9.55249411E+00
 -1.91049882E+01  0.00000000E+00  9.55249411E+00  9.55249411E+00 -1.91049882E+01
  0.00000000E+00  9.55249411E+00  9.55249411E+00 -1.91049882E+01  0.00000000E+00
  9.55249411E+00  9.55249411E+00 -1.91049882E+01  0.00000000E+00  9.55249411E+00
  9.55249411E+00 -1.91049882E+01  0.00000000E+00  9.55249411E+00  9.55249411E+00
 -1.91049882E+01  0.00000000E+00  9.55249411E+00  9.55249411E+00 -1.91049882E+01
  0.00000000E+00  9.55249411E+00  9.55249411E+00 -1.91049882E+01  0.00000000E+00
  9.55249411E+00  9.55249411E+00 -1.91049882E+01  0.00000000E+00  9.55249411E+00
  9.55249411E+00 -1.91049882E+01  0.00000000E+00  9.55249411E+00  9.55249411E+00
 -1.91049882E+01  0.00000000E+00  9.55249411E+00  9.55249411E+00 -1.91049882E+01
  0.00000000E+00  9.55249411E+00  9.55249411E+00 -1.91049882E+01  0.00000000E+00
  9.55249411E+00  9.55249411E+00 -1.91049882E+01  0.00000000E+00  9.55249411E+00
  9.55249411E+00 -1.91049882E+01  0.00000000E+00  9.55249411E+00  9.55249411E+00
 -1.91049882E+01  0.00000000E+00  9.55249411E+00  9.55249411E+00 -1.91049882E+01
  0.00000000E+00  9.55249411E+00  9.55249411E+00 -1.91049882E+01  0.00000000E+00
  9.55249411E+00  9.55249411E+00 -1.91049882E+01  0.00000000E+00  9.55249411E+00
  9.55249411E+00 -1.91049882E+01  0.00000000E+00  9.55249411E+00  9.55249411E+00
 -1.91049882E+01  0.00000000E+00  9.55249411E+00  9.55249411E+00 -1.91049882E+01
  0.00000000E+00  9.55249411E+00  9.55249411E+00 -1.91049882E+01  0.00000000E+00
  9.55249411E+00  9.55249411E+00 -1.91049882E+01  0.00000000E+00  9.55249411E+00
  9.55249411E+00 -1.91049882E+01  0.00000000E+00  9.55249411E+00  9.55249411E+00
 -1.91049882E+01  0.00000000E+00  9.55249411E+00  9.55249411E+00 -1.91049882E+01
  0.00000000E+00  9.55249411E+00  9.55249411E+00 -1.91049882E+01  0.00000000E+00
  9.55249411E+00  9.55249411E+00 -1.91049882E+01  0.00000000E+00  9.55249411E+00
  9.55249411E+00 -1.91049882E+01  0.00000000E+00  9.55249411E+00  9.55249411E+00
 -1.91049882E+01  0.00000000E+00  9.55249411E+00  9.55249411E+00 -1.91049882E+01
  0.00000000E+00  9.55249411E+00  9.55249411E+00 -1.91049882E+01  0.00000000E+00
  9.55249411E+00  9.55249411E+00 -1.91049882E+01  0.00000000E+00  9.55249411E+00
  9.55249411E+00 -1.91049882E+01  0.00000000E+00  9.55249411E+00  9.55249411E+00
 -1.91049882E+01  0.00000000E+00  9.55249411E+00  9.55249411E+00 -1.91049882E+01
  0.00000000E+00  9.55249411E+00  9.55249411E+00 -1.91049882E+01  0.00000000E+00
  9.55249411E+00  9.55249411E+00 -1.91049882E+01  0.00000000E+00  9.55249411E+00
  9.55249411E+00 -1.91049882E+01  0.00000000E+00  9.55249411E+00  9.55249411E+00
 -1.91049882E+01  0.00000000E+00  9.55249411E+00  9.55249411E+00 -1.91049882E+01
  0.00000000E+00  9.55249411E+00  9.55249411E+00 -1.91049882E+01  0.00000000E+00
  9.55249411E+00  9.55249411E+00 -1.91049882E+01  0.00000000E+00  9.55249411E+00
  9.55249411E+00 -1.91049882E+01  0.00000000E+00  9.55249411E+00  9.55249411E+00
 -1.91049882E+01  0.00000000E+00  9.55249411E+00  9.55249411E+00 -1.91049882E+01
  0.00000000E+00  9.55249411E+00  9.55249411E+00 -1.91049882E+01  0.00000000E+00
  9.55249411E+00  9.55249411E+00 -1.91049882E+01  0.00000000E+00  9.55249411E+00
  9.55249411E+00 -1.91049882E+01  0.00000000E+00  9.55249411E+00  9.55249411E+00
 -1.91049882E+01  0.00000000E+00  9.55249411E+00  9.55249411E+00 -1.91049882E+01
  0.00000000E+00  9.55249411E+00  9.55249411E+00 -1.91049882E+01  0.00000000E+00
  9.55249411E+00  9.55249411E+00 -1.91049882E+01  0.00000000E+00  9.55249411E+00
  9.55249411E+00 -1.91049882E+01  0.00000000E+00  9.55249411E+00  9.55249411E+00
 -1.91049882E+01  0.00000000E+00  9.55249411E+00  9.55249411E+00 -1.91049882E+01
  0.00000000E+00  9.55249411E+00  9.55249411E+00 -1.91049882E+01  0.00000000E+00
  9.55249411E+00  9.55249411E+00 -1.91049882E+01  0.00000000E+00  9.55249411E+00
  9.55249411E+00 -1.91049882E+01  0.00000000E+00  9.55249411E+00  9.55249411E+00
 -1.91049882E+01  0.00000000E+00  9.55249411E+00  9.55249411E+00 -1.91049882E+01
  0.00000000E+00  9.55249411E+00  9.55249411E+00 -1.91049882E+01  0.00000000E+00
  9.55249411E+00  9.55249411E+00 -1.91049882E+01  0.00000000E+00  9.55249411E+00
  9.55249411E+00 -1.91049882E+01  0.00000000E+00  9.55249411E+00  9.55249411E+00
 -1.91049882E+01  0.00000000E+00  9.55249411E+00  9.55249411E+00 -1.91049882E+01
  0.00000000E+00  9.55249411E+00  9.55249411E+00 -1.91049882E+01  0.00000000E+00
  9.55249411E+00  9.55249411E+00 -1.91049882E+01  0.00000000E+00  9.55249411E+00
  9.55249411E+00 -1.91049882E+01  0.00000000E+00  9.55249411E+00  9.55249411E+00
 -1.91049882E+01  0.00000000E+00  9.55249411E+00  9.55249411E+00 -1.91049882E+01
  0.00000000E+00  9.55249411E+00  9.55249411E+00 -1.91049882E+01  0.00000000E+00
  9.55249411E+00  9.55249411E+00 -1.91049882E+01  0.00000000E+00  9.55249411E+00
  9.55249411E+00 -1.91049882E+01  0.00000000E+00  9.55249411E+00  9.55249411E+00
 -1.91049882E+01  0.00000000E+00  9.55249411E+00  9.55249411E+00 -1.91049882E+01
  0.00000000E+00  9.55249411E+00  9.55249411E+00 -1.91049882E+01  0.00000000E+00
  9.55249411E+00  9.55249411E+00 -1.91049882E+01  0.00000000E+00  9.55249411E+00
  9.55249411E+00 -1.91049882E+01  0.00000000E+00  9.55249411E+00  9.55249411E+00
 -1.91049882E+01  0.00000000E+00  9.55249411E+00  9.55249411E+00 -1.91049882E+01
  0.00000000E+00  9.55249411E+00  9.55249411E+00 -1.91049882E+01  0.00000000E+00
  9.55249411E+00  9.55249411E+00 -1.91049882E+01  0.00000000E+00  9.55249411E+00
  9.55249411E+00 -1.91049882E+01  0.00000000E+00  9.55249411E+00  9.55249411E+00
 -1.91049882E+01  0.00000000E+00  9.55249411E+00  9.55249411E+00 -1.91049882E+01
  0.00000000E+00  9.55249411E+00  9.55249411E+00 -1.91049882E+01  0.00000000E+00
  9.55249411E+00  9.55249411E+00 -1.91049882E+01  0.00000000E+00  9.55249411E+00
  9.55249411E+00 -1.91049882E+01  0.00000000E+00  9.55249411E+00  9.55249411E+00
 -1.91049882E+01  0.00000000E+00  9.55249411E+00  9.55249411E+00 -1.91049882E+01
  0.00000000E+00  9.55249411E+00  9.55249411E+00 -1.91049882E+01  0.00000000E+00
  9.55249411E+00  9.55249411E+00 -1.91049882E+01  0.00000000E+00  9.55249411E+00
  9.55249411E+00 -1.91049882E+01  0.00000000E+00  9.55249411E+00  9.55249411E+00
 -1.91049882E+01  0.00000000E+00  9.55249411E+00  9.55249411E+00 -1.91049882E+01
  0.00000000E+00  9.55249411E+00  9.55249411E+00 -1.91049882E+01  0.00000000E+00
  9.55249411E+00  9.55249411E+00 -1.91049882E+01  0.00000000E+00  9.55249411E+00
  9.55249411E+00 -1.91049882E+01  0.00000000E+00  9.55249411E+00  9.55249411E+00
 -1.91049882E+01  0.00000000E+00  9.55249411E+00  9.55249411E+00 -1.91049882E+01
  0.00000000E+00  9.55249411E+00  9.55249411E+00 -1.91049882E+01  0.00000000E+00
  9.55249411E+00  9.55249411E+00 -1.91049882E+01  0.00000000E+00  9.55249411E+00
  9.55249411E+00 -1.91049882E+01  0.00000000E+00  9.55249411E+00  9.55249411E+00
 -1.91049882E+01  0.00000000E+00  9.55249411E+00  9.55249411E+00 -1.91049882E+01
  0.00000000E+00  9.55249411E+00  9.55249411E+00 -1.91049882E+01  0.00000000E+00
  9.55249411E+00  9.55249411E+00 -1.91049882E+01  0.00000000E+00  9.55249411E+00
  9.55249411E+00 -1.91049882E+01  0.00000000E+00  9.55249411E+00  9.55249411E+00
 -1.91049882E+01  0.00000000E+00  9.55249411E+00  9.55249411E+00 -1.91049882E+01
  0.00000000E+00  9.55249411E+00  9.55249411E+00 -1.91049882E+01  0.00000000E+00
  9.55249411E+00  9.55249411E+00 -1.91049882E+01  0.00000000E+00  9.55249411E+00
  9.55249411E+00 -1.91049882E+01  0.00000000E+00  9.55249411E+00  9.55249411E+00
 -1.91049882E+01  0.00000000E+00  9.55249411E+00  9.55249411E+00 -1.91049882E+01
  0.00000000E+00  9.55249411E+00  9.55249411E+00 -1.91049882E+01  0.00000000E+00
  9.55249411E+00  9.55249411E+00 -1.91049882E+01  0.00000000E+00  9.55249411E+00
  9.55249411E+00 -1.91049882E+01  0.00000000E+00  9.55249411E+00  9.55249411E+00
 -1.91049882E+01  0.00000000E+00  9.55249411E+00  9.55249411E+00 -1.91049882E+01
  0.00000000E+00  9.55249411E+00  9.55249411E+00 -1.91049882E+01  0.00000000E+00
  9.55249411E+00  9.55249411E+00 -1.91049882E+01  0.00000000E+00  9.55249411E+00
  9.55249411E+00 -1.91049882E+01  0.00000000E+00  9.55249411E+00  9.55249411E+00
 -1.91049882E+01  0.00000000E+00  9.55249411E+00  9.55249411E+00 -1.91049882E+01
  0.00000000E+00  9.55249411E+00  9.55249411E+00 -1.91049882E+01  0.00000000E+00
  9.55249411E+00  9.55249411E+00 -1.91049882E+01  0.00000000E+00  9.55249411E+00
  9.55249411E+00 -1.91049882E+01  0.00000000E+00  9.55249411E+00  9.55249411E+00
 -1.91049882E+01  0.00000000E+00  9.55249411E+00  9.55249411E+00 -1.91049882E+01
  0.00000000E+00  9.55249411E+00  9.55249411E+00 -1.91049882E+01  0.00000000E+00
  9.55249411E+00  9.55249411E+00 -1.91049882E+01  0.00000000E+00  9.55249411E+00
  9.55249411E+00 -1.91049882E+01  0.00000000E+00  9.55249411E+00  9.55249411E+00
 -1.91049882E+01  0.00000000E+00  9.55249411E+00  9.55249411E+00 -1.91049882E+01
  0.00000000E+00  9.55249411E+00  9.55249411E+00 -1.91049882E+01  0.00000000E+00
  9.55249411E+00  9.55249411E+00 -1.91049882E+01  0.00000000E+00  9.55249411E+00
  9.55249411E+00 -1.91049882E+01  0.00000000E+00  9.55249411E+00  9.55249411E+00
 -1.91049882E+01  0.00000000E+00  9.55249411E+00  9.55249411E+00 -1.91049882E+01
  0.00000000E+00  9.55249411E+00  9.55249411E+00 -1.91049882E+01  0.00000000E+00
  9.55249411E+00  9.55249411E+00 -1.91049882E+01  0.00000000E+00  9.55249411E+00
  9.55249411E+00 -1.91049882E+01  0.00000000E+00  9.55249411E+00  9.55249411E+00
 -1.91049882E+01  0.00000000E+00  9.55249411E+00  9.55249411E+00 -1.91049882E+01
  0.00000000E+00  9.55249411E+00  9.55249411E+00 -1.91049882E+01  0.00000000E+00
  9.55249411E+00  9.55249411E+00 -1.91049882E+01  0.00000000E+00  9.55249411E+00
  9.55249411E+00 -1.91049882E+01  0.00000000E+00  9.55249411E+00  9.55249411E+00
 -1.91049882E+01  0.00000000E+00  9.55249411E+00  9.55249411E+00 -1.91049882E+01
  0.00000000E+00  9.55249411E+00  9.55249411E+00 -1.91049882E+01  0.00000000E+00
  9.55249411E+00  9.55249411E+00 -1.91049882E+01  0.00000000E+00  9.55249411E+00
  9.55249411E+00 -1.91049882E+01  0.00000000E+00  9.55249411E+00  9.55249411E+00
 -1.91049882E+01  0.00000000E+00  9.55249411E+00  9.55249411E+00 -1.91049882E+01
  0.00000000E+00  9.55249411E+00  9.55249411E+00 -1.91049882E+01  0.00000000E+00
  9.55249411E+00  9.55249411E+00 -1.91049882E+01  0.00000000E+00  9.55249411E+00
  9.55249411E+00 -1.91049882E+01  0.00000000E+00  9.55249411E+00  9.55249411E+00
 -1.91049882E+01  0.00000000E+00  9.55249411E+00  9.55249411E+00 -1.91049882E+01
  0.00000000E+00  9.55249411E+00  9.55249411E+00 -1.91049882E+01  0.00000000E+00
  9.55249411E+00  9.55249411E+00 -1.91049882E+01  0.00000000E+00  9.55249411E+00
  9.55249411E+00 -1.91049882E+01  0.00000000E+00  9.55249411E+00  9.55249411E+00
 -1.91049882E+01  0.00000000E+00  9.55249411E+00  9.55249411E+00 -1.91049882E+01
  0.00000000E+00  9.55249411E+00  9.55249411E+00 -1.91049882E+01  0.00000000E+00
  9.55249411E+00  9.55249411E+00 -1.91049882E+01  0.00000000E+00  9.55249411E+00
  9.55249411E+00 -1.91049882E+01  0.00000000E+00  9.55249411E+00  9.55249411E+00
 -1.91049882E+01  0.00000000E+00  9.55249411E+00  9.55249411E+00 -1.91049882E+01
  0.00000000E+00  9.55249411E+00  9.55249411E+00 -1.91049882E+01  0.00000000E+00
  9.55249411E+00  9.55249411E+00 -1.91049882E+01  0.00000000E+00  9.55249411E+00
  9.55249411E+00 -1.91049882E+01  0.00000000E+00  9.55249411E+00  9.55249411E+00
 -1.91049882E+01  0.00000000E+00  9.55249411E+00  9.55249411E+00 -1.91049882E+01
  0.00000000E+00  9.55249411E+00  9.55249411E+00 -1.91049882E+01  0.00000000E+00
  9.55249411E+00  9.55249411E+00 -1.91049882E+01  0.00000000E+00  9.55249411E+00
  9.55249411E+00 -1.91049882E+01  0.00000000E+00  9.55249411E+00  9.55249411E+00
 -1.91049882E+01  0.00000000E+00  9.55249411E+00  9.55249411E+00 -1.91049882E+01
  0.00000000E+00  9.55249411E+00  9.55249411E+00 -1.91049882E+01  0.00000000E+00
  9.55249411E+00  9.55249411E+00 -1.91049882E+01  0.00000000E+00  9.55249411E+00
  9.55249411E+00 -1.91049882E+01  0.00000000E+00  9.55249411E+00  9.55249411E+00
 -1.91049882E+01  0.00000000E+00  9.55249411E+00  9.55249411E+00 -1.91049882E+01
  0.00000000E+00  9.55249411E+00  9.55249411E+00 -1.91049882E+01  0.00000000E+00
  9.55249411E+00  9.55249411E+00 -1.91049882E+01  0.00000000E+00  9.55249411E+00
  9.55249411E+00 -1.91049882E+01  0.00000000E+00  9.55249411E+00  9.55249411E+00
 -1.91049882E+01  0.00000000E+00  9.55249411E+00  9.55249411E+00 -1.91049882E+01
  0.00000000E+00  9.55249411E+00  9.55249411E+00 -1.91049882E+01  0.00000000E+00
  9.55249411E+00  9.55249411E+00 -1.91049882E+01  0.00000000E+00  9.55249411E+00
  9.55249411E+00 -1.91049882E+01  0.00000000E+00  9.55249411E+00  9.55249411E+00
 -1.91049882E+01  0.00000000E+00  9.55249411E+00  9.55249411E+00 -1.91049882E+01
  0.00000000E+00  9.55249411E+00  9.55249411E+00 -1.91049882E+01  0.00000000E+00
  9.55249411E+00  9.55249411E+00 -1.91049882E+01  0.00000000E+00  9.55249411E+00
  9.55249411E+00 -1.91049882E+01  0.00000000E+00  9.55249411E+00  9.55249411E+00
 -1.91049882E+01  0.00000000E+00  9.55249411E+00  9.55249411E+00 -1.91049882E+01
  0.00000000E+00  9.55249411E+00  9.55249411E+00 -1.91049882E+01  0.00000000E+00
  9.55249411E+00  9.55249411E+00 -1.91049882E+01  0.00000000E+00  9.55249411E+00
  9.55249411E+00 -1.91049882E+01  0.00000000E+00  9.55249411E+00  9.55249411E+00
 -1.91049882E+01  0.00000000E+00  9.55249411E+00  9.55249411E+00 -1.91049882E+01
  0.00000000E+00  9.55249411E+00  9.55249411E+00 -1.91049882E+01  0.00000000E+00
  9.55249411E+00  9.55249411E+00 -1.91049882E+01  0.00000000E+00  9.55249411E+00
  9.55249411E+00 -1.91049882E+01  0.00000000E+00  9.55249411E+00  9.55249411E+00
 -1.91049882E+01  0.00000000E+00  9.55249411E+00  9.55249411E+00 -1.91049882E+01
  0.00000000E+00  9.55249411E+00  9.55249411E+00 -1.91049882E+01  0.00000000E+00
  9.55249411E+00  9.55249411E+00 -1.91049882E+01  0.00000000E+00  9.55249411E+00
  9.55249411E+00 -1.91049882E+01  0.00000000E+00  9.55249411E+00  9.55249411E+00
 -1.91049882E+01  0.00000000E+00  9.55249411E+00  9.55249411E+00 -1.91049882E+01
  0.00000000E+00  9.55249411E+00  9.55249411E+00 -1.91049882E+01  0.00000000E+00
  9.55249411E+00  9.55249411E+00 -1.91049882E+01  0.00000000E+00  9.55249411E+00
  9.55249411E+00 -1.91049882E+01  0.00000000E+00  9.55249411E+00  9.55249411E+00
 -1.91049882E+01  0.00000000E+00  9.55249411E+00  9.55249411E+00 -1.91049882E+01
  0.00000000E+00  9.55249411E+00  9.55249411E+00 -1.91049882E+01  0.00000000E+00
  9.55249411E+00  9.55249411E+00 -1.91049882E+01  0.00000000E+00  9.55249411E+00
  9.55249411E+00 -1.91049882E+01  0.00000000E+00  9.55249411E+00  9.55249411E+00
 -1.91049882E+01  0.00000000E+00  9.55249411E+00  9.55249411E+00 -1.91049882E+01
  0.00000000E+00  9.55249411E+00  9.55249411E+00 -1.91049882E+01  0.00000000E+00
  9.55249411E+00  9.55249411E+00 -1.91049882E+01  0.00000000E+00  9.55249411E+00
  9.55249411E+00 -1.91049882E+01  0.00000000E+00  9.55249411E+00  9.55249411E+00
 -1.91049882E+01  0.00000000E+00  9.55249411E+00  9.55249411E+00 -1.91049882E+01
  0.00000000E+00  9.55249411E+00  9.55249411E+00 -1.91049882E+01  0.00000000E+00
  9.55249411E+00  9.55249411E+00 -1.91049882E+01  0.00000000E+00  9.55249411E+00
  9.55249411E+00 -1.91049882E+01  0.00000000E+00  9.55249411E+00  9.55249411E+00
 -1.91049882E+01  0.00000000E+00  9.55249411E+00  9.55249411E+00 -1.91049882E+01
  0.00000000E+00  9.55249411E+00  9.55249411E+00 -1.91049882E+01  0.00000000E+00
  9.55249411E+00  9.55249411E+00 -1.91049882E+01  0.00000000E+00  9.55249411E+00
  9.55249411E+00 -1.91049882E+01  0.00000000E+00  9.55249411E+00  9.55249411E+00
 -1.91049882E+01  0.00000000E+00  9.55249411E+00  9.55249411E+00 -1.91049882E+01
  0.00000000E+00  9.55249411E+00  9.55249411E+00 -1.91049882E+01  0.00000000E+00
  9.55249411E+00  9.55249411E+00 -1.91049882E+01  0.00000000E+00  9.55249411E+00
  9.55249411E+00 -1.91049882E+01  0.00000000E+00  9.55249411E+00  9.55249411E+00
 -1.91049882E+01  0.00000000E+00  9.55249411E+00  9.55249411E+00 -1.91049882E+01
  0.00000000E+00  9.55249411E+00  9.55249411E+00 -1.91049882E+01  0.00000000E+00
  9.55249411E+00  9.55249411E+00 -1.91049882E+01  0.00000000E+00  9.55249411E+00
  9.55249411E+00 -1.91049882E+01  0.00000000E+00  9.55249411E+00  9.55249411E+00
 -1.91049882E+01  0.00000000E+00  9.55249411E+00  9.55249411E+00 -1.91049882E+01
  0.00000000E+00  9.55249411E+00  9.55249411E+00 -1.91049882E+01  0.00000000E+00
  9.55249411E+00  9.55249411E+00 -1.91049882E+01  0.00000000E+00  9.55249411E+00
  9.55249411E+00 -1.91049882E+01  0.00000000E+00  9.55249411E+00  9.55249411E+00
 -1.91049882E+01  0.00000000E+00  9.55249411E+00  9.55249411E+00 -1.91049882E+01
  0.00000000E+00  9.55249411E+00  9.55249411E+00 -1.91049882E+01  0.00000000E+00
  9.55249411E+00  9.55249411E+00 -1.91049882E+01  0.00000000E+00  9.55249411E+00
  9.55249411E+00 -1.91049882E+01  0.00000000E+00  9.55249411E+00  9.55249411E+00
 -1.91049882E+01  0.00000000E+00  9.55249411E+00  9.55249411E+00 -1.91049882E+01
  0.00000000E+00  9.55249411E+00  9.55249411E+00 -1.91049882E+01  0.00000000E+00
  9.55249411E+00  9.55249411E+00 -1.91049882E+01  0.00000000E+00  9.55249411E+00
  9.55249411E+00 -1.91049882E+01  0.00000000E+00  9.55249411E+00  9.55249411E+00
 -1.91049882E+01  0.00000000E+00  9.55249411E+00  9.55249411E+00 -1.91049882E+01
  0.00000000E+00  9.55249411E+00  9.55249411E+00 -1.91049882E+01  0.00000000E+00
  9.55249411E+00  9.55249411E+00 -1.91049882E+01  0.00000000E+00  9.55249411E+00
  9.55249411E+00 -1.91049882E+01  0.00000000E+00  9.55249411E+00  9.55249411E+00
 -1.91049882E+01  0.00000000E+00  9.55249411E+00  9.55249411E+00 -1.91049882E+01
  0.00000000E+00  9.55249411E+00  9.55249411E+00 -1.91049882E+01  0.00000000E+00
  9.55249411E+00  9.55249411E+00 -1.91049882E+01  0.00000000E+00  9.55249411E+00
  9.55249411E+00 -1.91049882E+01  0.00000000E+00  9.55249411E+00  9.55249411E+00
 -1.91049882E+01  0.00000000E+00  9.55249411E+00  9.55249411E+00 -1.91049882E+01
  0.00000000E+00  9.55249411E+00  9.55249411E+00 -1.91049882E+01  0.00000000E+00
  9.55249411E+00  9.55249411E+00 -1.91049882E+01  0.00000000E+00  9.55249411E+00
  9.55249411E+00 -1.91049882E+01  0.00000000E+00  9.55249411E+00  9.55249411E+00
 -1.91049882E+01  0.00000000E+00  9.55249411E+00  9.55249411E+00 -1.91049882E+01
  0.00000000E+00  9.55249411E+00  9.55249411E+00 -1.91049882E+01  0.00000000E+00
  9.55249411E+00  9.55249411E+00 -1.91049882E+01  0.00000000E+00  9.55249411E+00
  9.55249411E+00 -1.91049882E+01  0.00000000E+00  9.55249411E+00  9.55249411E+00
 -1.91049882E+01  0.00000000E+00  9.55249411E+00  9.55249411E+00 -1.91049882E+01
  0.00000000E+00  9.55249411E+00  9.55249411E+00 -1.91049882E+01  0.00000000E+00
  9.55249411E+00  9.55249411E+00 -1.91049882E+01  0.00000000E+00  9.55249411E+00
  9.55249411E+00 -1.91049882E+01  0.00000000E+00  9.55249411E+00  9.55249411E+00
 -1.91049882E+01  0.00000000E+00  9.55249411E+00  9.55249411E+00 -1.91049882E+01
  0.00000000E+00  9.55249411E+00  9.55249411E+00 -1.91049882E+01  0.00000000E+00
  9.55249411E+00  9.55249411E+00 -1.91049882E+01  0.00000000E+00  9.55249411E+00
  9.55249411E+00 -1.91049882E+01  0.00000000E+00  9.55249411E+00  9.55249411E+00
 -1.91049882E+01  0.00000000E+00  9.55249411E+00  9.55249411E+00 -1.91049882E+01
  0.00000000E+00  9.55249411E+00  9.55249411E+00 -1.91049882E+01  0.00000000E+00
  9.55249411E+00  9.55249411E+00 -1.91049882E+01  0.00000000E+00  9.55249411E+00
  9.55249411E+00 -1.91049882E+01  0.00000000E+00  9.55249411E+00  9.55249411E+00
 -1.91049882E+01  0.00000000E+00  9.55249411E+00  9.55249411E+00 -1.91049882E+01
  0.00000000E+00  9.55249411E+00  9.55249411E+00 -1.91049882E+01  0.00000000E+00
  9.55249411E+00  9.55249411E+00 -1.91049882E+01  0.00000000E+00  9.55249411E+00
  9.55249411E+00 -1.91049882E+01  0.00000000E+00  9.55249411E+00  9.55249411E+00
 -1.91049882E+01  0.00000000E+00  9.55249411E+00  9.55249411E+00 -1.91049882E+01
  0.00000000E+00  9.55249411E+00  9.55249411E+00 -1.91049882E+01  0.00000000E+00
  9.55249411E+00  9.55249411E+00 -1.91049882E+01  0.00000000E+00  9.55249411E+00
  9.55249411E+00 -1.91049882E+01  0.00000000E+00  9.55249411E+00  9.55249411E+00
 -1.91049882E+01  0.00000000E+00  9.55249411E+00  9.55249411E+00 -1.91049882E+01
  0.00000000E+00  9.55249411E+00  9.55249411E+00 -1.91049882E+01  0.00000000E+00
  9.55249411E+00  9.55249411E+00 -1.91049882E+01  0.00000000E+00  9.55249411E+00
  9.55249411E+00 -1.91049882E+01  0.00000000E+00  9.55249411E+00  9.55249411E+00
 -1.91049882E+01  0.00000000E+00  9.55249411E+00  9.55249411E+00 -1.91049882E+01
  0.00000000E+00  9.55249411E+00  9.55249411E+00 -1.91049882E+01  0.00000000E+00
  9.55249411E+00  9.55249411E+00 -1.91049882E+01  0.00000000E+00  9.55249411E+00
  9.55249411E+00 -1.91049882E+01  0.00000000E+00  9.55249411E+00  9.55249411E+00
 -1.91049882E+01  0.00000000E+00  9.55249411E+00  9.55249411E+00 -1.91049882E+01
  0.00000000E+00  9.55249411E+00  9.55249411E+00 -1.91049882E+01  0.00000000E+00
  9.55249411E+00  9.55249411E+00 -1.91049882E+01  0.00000000E+00  9.55249411E+00
  9.55249411E+00 -1.91049882E+01  0.00000000E+00  9.55249411E+00  9.55249411E+00
 -1.91049882E+01  0.00000000E+00  9.55249411E+00  9.55249411E+00 -1.91049882E+01
  0.00000000E+00  9.55249411E+00  9.55249411E+00 -1.91049882E+01  0.00000000E+00
  9.55249411E+00  9.55249411E+00 -1.91049882E+01  0.00000000E+00  9.55249411E+00
  9.55249411E+00 -1.91049882E+01  0.00000000E+00  9.55249411E+00  9.55249411E+00
 -1.91049882E+01  0.00000000E+00  9.55249411E+00  9.55249411E+00 -1.91049882E+01
  0.00000000E+00  9.55249411E+00  9.55249411E+00 -1.91049882E+01  0.00000000E+00
  9.55249411E+00  9.55249411E+00 -1.91049882E+01  0.00000000E+00  9.55249411E+00
  9.55249411E+00 -1.91049882E+01  0.00000000E+00  9.55249411E+00  9.55249411E+00
 -1.91049882E+01  0.00000000E+00  9.55249411E+00  9.55249411E+00 -1.91049882E+01
  0.00000000E+00  9.55249411E+00  9.55249411E+00 -1.91049882E+01  0.00000000E+00
  9.55249411E+00  9.55249411E+00 -1.91049882E+01  0.00000000E+00  9.55249411E+00
  9.55249411E+00 -1.91049882E+01  0.00000000E+00  9.55249411E+00  9.55249411E+00
 -1.91049882E+01  0.00000000E+00  9.55249411E+00  9.55249411E+00 -1.91049882E+01
  0.00000000E+00  9.55249411E+00  9.55249411E+00 -1.91049882E+01  0.00000000E+00
  9.55249411E+00  9.55249411E+00 -1.91049882E+01  0.00000000E+00  9.55249411E+00
  9.55249411E+00 -1.91049882E+01  0.00000000E+00  9.55249411E+00  9.55249411E+00
 -1.91049882E+01  0.00000000E+00  9.55249411E+00  9.55249411E+00 -1.91049882E+01
  0.00000000E+00  9.55249411E+00  9.55249411E+00 -1.91049882E+01  0.00000000E+00
  9.55249411E+00  9.55249411E+00 -1.91049882E+01  0.00000000E+00  9.55249411E+00
  9.55249411E+00 -1.91049882E+01  0.00000000E+00  9.55249411E+00  9.55249411E+00
 -1.91049882E+01  0.00000000E+00  9.55249411E+00  9.55249411E+00 -1.91049882E+01
  0.00000000E+00  9.55249411E+00  9.55249411E+00 -1.91049882E+01  0.00000000E+00
  9.55249411E+00  9.55249411E+00 -1.91049882E+01  0.00000000E+00  9.55249411E+00
  9.55249411E+00 -1.91049882E+01  0.00000000E+00  9.55249411E+00  9.55249411E+00
 -1.91049882E+01  0.00000000E+00  9.55249411E+00  9.55249411E+00 -1.91049882E+01
  0.00000000E+00  9.55249411E+00  9.55249411E+00 -1.91049882E+01  0.00000000E+00
  9.55249411E+00  9.55249411E+00 -1.91049882E+01  0.00000000E+00  9.55249411E+00
  9.55249411E+00 -1.91049882E+01  0.00000000E+00  9.55249411E+00  9.55249411E+00
 -1.91049882E+01  0.00000000E+00  9.55249411E+00  9.55249411E+00 -1.91049882E+01
  0.00000000E+00  9.55249411E+00  9.55249411E+00 -1.91049882E+01  0.00000000E+00
  9.55249411E+00  9.55249411E+00 -1.91049882E+01  0.00000000E+00  9.55249411E+00
  9.55249411E+00 -1.91049882E+01  0.00000000E+00  9.55249411E+00  9.55249411E+00
 -1.91049882E+01  0.00000000E+00  9.55249411E+00  9.55249411E+00 -1.91049882E+01
  0.00000000E+00  9.55249411E+00  9.55249411E+00 -1.91049882E+01  0.00000000E+00
  9.55249411E+00  9.55249411E+00 -1.91049882E+01  0.00000000E+00  9.55249411E+00
  9.55249411E+00 -1.91049882E+01  0.00000000E+00  9.55249411E+00  9.55249411E+00
 -1.91049882E+01  0.00000000E+00  9.55249411E+00  9.55249411E+00 -1.91049882E+01
  0.00000000E+00  9.55249411E+00  9.55249411E+00 -1.91049882E+01  0.00000000E+00
  9.55249411E+00  9.55249411E+00 -1.91049882E+01  0.00000000E+00  9.55249411E+00
  9.55249411E+00 -1.91049882E+01  0.00000000E+00  9.55249411E+00  9.55249411E+00
 -1.91049882E+01  0.00000000E+00  9.55249411E+00  9.55249411E+00 -1.91049882E+01
  0.00000000E+00  9.55249411E+00  9.55249411E+00 -1.91049882E+01  0.00000000E+00
  9.55249411E+00  9.55249411E+00 -1.91049882E+01  0.00000000E+00  9.55249411E+00
  9.55249411E+00 -1.91049882E+01  0.00000000E+00  9.55249411E+00  9.55249411E+00
 -1.91049882E+01  0.00000000E+00  9.55249411E+00  9.55249411E+00 -1.91049882E+01
  0.00000000E+00  9.55249411E+00  9.55249411E+00 -1.91049882E+01  0.00000000E+00
  9.55249411E+00  9.55249411E+00 -1.91049882E+01  0.00000000E+00  9.55249411E+00
  9.55249411E+00 -1.91049882E+01  0.00000000E+00  9.55249411E+00  9.55249411E+00
 -1.91049882E+01  0.00000000E+00  9.55249411E+00  9.55249411E+00 -1.91049882E+01
  0.00000000E+00  9.55249411E+00  9.55249411E+00 -1.91049882E+01  0.00000000E+00
  9.55249411E+00  9.55249411E+00 -1.91049882E+01  0.00000000E+00  9.55249411E+00
  9.55249411E+00 -1.91049882E+01  0.00000000E+00  9.55249411E+00  9.55249411E+00
 -1.91049882E+01  0.00000000E+00  9.55249411E+00  9.55249411E+00 -1.91049882E+01
  0.00000000E+00  9.55249411E+00  9.55249411E+00 -1.91049882E+01  0.00000000E+00
  9.55249411E+00  9.55249411E+00 -1.91049882E+01  0.00000000E+00  9.55249411E+00
  9.55249411E+00 -1.91049882E+01  0.00000000E+00  9.55249411E+00  9.55249411E+00
 -1.91049882E+01  0.00000000E+00  9.55249411E+00  9.55249411E+00 -1.91049882E+01
  0.00000000E+00  9.55249411E+00  9.55249411E+00 -1.91049882E+01  0.00000000E+00
  9.55249411E+00  9.55249411E+00 -1.91049882E+01  0.00000000E+00  9.55249411E+00
  9.55249411E+00 -1.91049882E+01  0.00000000E+00  9.55249411E+00  9.55249411E+00
 -1.91049882E+01  0.00000000E+00  9.55249411E+00  9.55249411E+00 -1.91049882E+01
  0.00000000E+00  9.55249411E+00  9.55249411E+00 -1.91049882E+01  0.00000000E+00
  9.55249411E+00  9.55249411E+00 -1.91049882E+01  0.00000000E+00  9.55249411E+00
  9.55249411E+00 -1.91049882E+01  0.00000000E+00  9.55249411E+00  9.55249411E+00
 -1.91049882E+01  0.00000000E+00  9.55249411E+00  9.55249411E+00 -1.91049882E+01
  0.00000000E+00  9.55249411E+00  9.55249411E+00 -1.91049882E+01  0.00000000E+00
  9.55249411E+00  9.55249411E+00 -1.91049882E+01  0.00000000E+00  9.55249411E+00
  9.55249411E+00 -1.91049882E+01  0.00000000E+00  9.55249411E+00  9.55249411E+00
 -1.91049882E+01  0.00000000E+00  9.55249411E+00  9.55249411E+00 -1.91049882E+01
  0.00000000E+00  9.55249411E+00  9.55249411E+00 -1.91049882E+01  0.00000000E+00
  9.55249411E+00  9.55249411E+00 -1.91049882E+01  0.00000000E+00  9.55249411E+00
  9.55249411E+00 -1.91049882E+01  0.00000000E+00  9.55249411E+00  9.55249411E+00
 -1.91049882E+01  0.00000000E+00  9.55249411E+00  9.55249411E+00 -1.91049882E+01
  0.00000000E+00  9.55249411E+00  9.55249411E+00 -1.91049882E+01  0.00000000E+00
  9.55249411E+00  9.55249411E+00 -1.91049882E+01  0.00000000E+00  9.55249411E+00
  9.55249411E+00 -1.91049882E+01  0.00000000E+00  9.55249411E+00  9.55249411E+00
 -1.91049882E+01  0.00000000E+00  9.55249411E+00  9.55249411E+00 -1.91049882E+01
  0.00000000E+00  9.55249411E+00  9.55249411E+00 -1.91049882E+01  0.00000000E+00
  9.55249411E+00  9.55249411E+00 -1.91049882E+01  0.00000000E+00  9.55249411E+00
  9.55249411E+00 -1.91049882E+01  0.00000000E+00  9.55249411E+00  9.55249411E+00
 -1.91049882E+01  0.00000000E+00  9.55249411E+00  9.55249411E+00 -1.91049882E+01
  0.00000000E+00  9.55249411E+00  9.55249411E+00 -1.91049882E+01  0.00000000E+00
  9.55249411E+00  9.55249411E+00 -1.91049882E+01  0.00000000E+00  9.55249411E+00
  9.55249411E+00 -1.91049882E+01  0.00000000E+00  9.55249411E+00  9.55249411E+00
 -1.91049882E+01  0.00000000E+00  9.55249411E+00  9.55249411E+00 -1.91049882E+01
  0.00000000E+00  9.55249411E+00  9.55249411E+00 -1.91049882E+01  0.00000000E+00
  9.55249411E+00  9.55249411E+00 -1.91049882E+01  0.00000000E+00  9.55249411E+00
  9.55249411E+00 -1.91049882E+01  0.00000000E+00  9.55249411E+00  9.55249411E+00
 -1.91049882E+01  0.00000000E+00  9.55249411E+00  9.55249411E+00 -1.91049882E+01
  0.00000000E+00  9.55249411E+00  9.55249411E+00 -1.91049882E+01  0.00000000E+00
  9.55249411E+00  9.55249411E+00 -1.91049882E+01  0.00000000E+00  9.55249411E+00
  9.55249411E+00 -1.91049882E+01  0.00000000E+00  9.55249411E+00  9.55249411E+00
 -1.91049882E+01  0.00000000E+00  9.55249411E+00  9.55249411E+00 -1.91049882E+01
  0.00000000E+00  9.55249411E+00  9.55249411E+00 -1.91049882E+01  0.00000000E+00
  9.55249411E+00  9.55249411E+00 -1.91049882E+01  0.00000000E+00  9.55249411E+00
  9.55249411E+00 -1.91049882E+01  0.00000000E+00  9.55249411E+00  9.55249411E+00
 -1.91049882E+01  0.00000000E+00  9.55249411E+00  9.55249411E+00 -1.91049882E+01
  0.00000000E+00  9.55249411E+00  9.55249411E+00 -1.91049882E+01  0.00000000E+00
  9.55249411E+00  9.55249411E+00 -1.91049882E+01  0.00000000E+00  9.55249411E+00
  9.55249411E+00 -1.91049882E+01  0.00000000E+00  9.55249411E+00  9.55249411E+00
 -1.91049882E+01  0.00000000E+00  9.55249411E+00  9.55249411E+00 -1.91049882E+01
  0.00000000E+00  9.55249411E+00  9.55249411E+00 -1.91049882E+01  0.00000000E+00
  9.55249411E+00  9.55249411E+00 -1.91049882E+01  0.00000000E+00  9.55249411E+00
  9.55249411E+00 -1.91049882E+01  0.00000000E+00  9.55249411E+00  9.55249411E+00
 -1.91049882E+01  0.00000000E+00  9.55249411E+00  9.55249411E+00 -1.91049882E+01
  0.00000000E+00  9.55249411E+00  9.55249411E+00 -1.91049882E+01  0.00000000E+00
  9.55249411E+00  9.55249411E+00 -1.91049882E+01  0.00000000E+00  9.55249411E+00
  9.55249411E+00 -1.91049882E+01  0.00000000E+00  9.55249411E+00  9.55249411E+00
 -1.91049882E+01  0.00000000E+00  9.55249411E+00  9.55249411E+00 -1.91049882E+01
  0.00000000E+00  9.55249411E+00  9.55249411E+00 -1.91049882E+01  0.00000000E+00
  9.55249411E+00  9.55249411E+00 -1.91049882E+01  0.00000000E+00  9.55249411E+00
  9.55249411E+00 -1.91049882E+01  0.00000000E+00  9.55249411E+00  9.55249411E+00
 -1.91049882E+01  0.00000000E+00  9.55249411E+00  9.55249411E+00 -1.91049882E+01
  0.00000000E+00  9.55249411E+00  9.55249411E+00 -1.91049882E+01  0.00000000E+00
  9.55249411E+00  9.55249411E+00 -1.91049882E+01  0.00000000E+00  9.55249411E+00
  9.55249411E+00 -1.91049882E+01  0.00000000E+00  9.55249411E+00  9.55249411E+00
 -1.91049882E+01  0.00000000E+00  9.55249411E+00  9.55249411E+00 -1.91049882E+01
  0.00000000E+00  9.55249411E+00  9.55249411E+00 -1.91049882E+01  0.00000000E+00
  9.55249411E+00  9.55249411E+00 -1.91049882E+01  0.00000000E+00  9.55249411E+00
  9.55249411E+00 -1.91049882E+01  0.00000000E+00  9.55249411E+00  9.55249411E+00
 -1.91049882E+01  0.00000000E+00  9.55249411E+00  9.55249411E+00 -1.91049882E+01
  0.00000000E+00  9.55249411E+00  9.55249411E+00 -1.91049882E+01  0.00000000E+00
  9.55249411E+00  9.55249411E+00 -1.91049882E+01  0.00000000E+00  9.55249411E+00
  9.55249411E+00 -1.91049882E+01  0.00000000E+00  9.55249411E+00  9.55249411E+00
 -1.91049882E+01  0.00000000E+00  9.55249411E+00  9.55249411E+00 -1.91049882E+01
  0.00000000E+00  9.55249411E+00  9.55249411E+00 -1.91049882E+01  0.00000000E+00
  9.55249411E+00  9.55249411E+00 -1.91049882E+01  0.00000000E+00  9.55249411E+00
  9.55249411E+00 -1.91049882E+01  0.00000000E+00  9.55249411E+00  9.55249411E+00
 -1.91049882E+01  0.00000000E+00  9.55249411E+00  9.55249411E+00 -1.91049882E+01
  0.00000000E+00  9.55249411E+00  9.55249411E+00 -1.91049882E+01  0.00000000E+00
  9.55249411E+00  9.55249411E+00 -1.91049882E+01  0.00000000E+00  9.55249411E+00
  9.55249411E+00 -1.91049882E+01  0.00000000E+00  9.55249411E+00  9.55249411E+00
 -1.91049882E+01  0.00000000E+00  9.55249411E+00  9.55249411E+00 -1.91049882E+01
  0.00000000E+00  9.55249411E+00  9.55249411E+00 -1.91049882E+01  0.00000000E+00
  9.55249411E+00  9.55249411E+00 -1.91049882E+01  0.00000000E+00  9.55249411E+00
  9.55249411E+00 -1.91049882E+01  0.00000000E+00  9.55249411E+00  9.55249411E+00
 -1.91049882E+01  0.00000000E+00  9.55249411E+00  9.55249411E+00 -1.91049882E+01
  0.00000000E+00  9.55249411E+00  9.55249411E+00 -1.91049882E+01  0.00000000E+00
  9.55249411E+00  9.55249411E+00 -1.91049882E+01  0.00000000E+00  9.55249411E+00
  9.55249411E+00 -1.91049882E+01  0.00000000E+00  9.55249411E+00  9.55249411E+00
 -1.91049882E+01  0.00000000E+00  9.55249411E+00  9.55249411E+00 -1.91049882E+01
  0.00000000E+00  9.55249411E+00  9.55249411E+00 -1.91049882E+01  0.00000000E+00
  9.55249411E+00  9.55249411E+00 -1.91049882E+01  0.00000000E+00  9.55249411E+00
  9.55249411E+00 -1.91049882E+01  0.00000000E+00  9.55249411E+00  9.55249411E+00
 -1.91049882E+01  0.00000000E+00  9.55249411E+00  9.55249411E+00 -1.91049882E+01
  0.00000000E+00  9.55249411E+00  9.55249411E+00 -1.91049882E+01  0.00000000E+00
  9.55249411E+00  9.55249411E+00 -1.91049882E+01  0.00000000E+00  9.55249411E+00
  9.55249411E+00 -1.91049882E+01  0.00000000E+00  9.55249411E+00  9.55249411E+00
 -1.91049882E+01  0.00000000E+00  9.55249411E+00  9.55249411E+00 -1.91049882E+01
  0.00000000E+00  9.55249411E+00  9.55249411E+00 -1.91049882E+01  0.00000000E+00
  9.55249411E+00  9.55249411E+00 -1.91049882E+01  0.00000000E+00  9.55249411E+00
  9.55249411E+00 -1.91049882E+01  0.00000000E+00  9.55249411E+00  9.55249411E+00
 -1.91049882E+01  0.00000000E+00  9.55249411E+00  9.55249411E+00 -1.91049882E+01
  0.00000000E+00  9.55249411E+00  9.55249411E+00 -1.91049882E+01  0.00000000E+00
  9.55249411E+00  9.55249411E+00 -1.91049882E+01  0.00000000E+00  9.55249411E+00
  9.55249411E+00 -1.91049882E+01  0.00000000E+00  9.55249411E+00  9.55249411E+00
 -1.91049882E+01  0.00000000E+00  9.55249411E+00  9.55249411E+00 -1.91049882E+01
  0.00000000E+00  9.55249411E+00  9.55249411E+00 -1.91049882E+01  0.00000000E+00
  9.55249411E+00  9.55249411E+00 -1.91049882E+01  0.00000000E+00  9.55249411E+00
  9.55249411E+00 -1.91049882E+01  0.00000000E+00  9.55249411E+00  9.55249411E+00
 -1.91049882E+01  0.00000000E+00  9.55249411E+00  9.55249411E+00 -1.91049882E+01
  0.00000000E+00  9.55249411E+00  9.55249411E+00 -1.91049882E+01  0.00000000E+00
  9.55249411E+00  9.55249411E+00 -1.91049882E+01  0.00000000E+00  9.55249411E+00
  9.55249411E+00 -1.91049882E+01  0.00000000E+00  9.55249411E+00  9.55249411E+00
 -1.91049882E+01  0.00000000E+00  9.55249411E+00  9.55249411E+00 -1.91049882E+01
  0.00000000E+00  9.55249411E+00  9.55249411E+00 -1.91049882E+01  0.00000000E+00
  9.55249411E+00  9.55249411E+00 -1.91049882E+01  0.00000000E+00  9.55249411E+00
  9.55249411E+00 -1.91049882E+01  0.00000000E+00  9.55249411E+00  9.55249411E+00
 -1.91049882E+01  0.00000000E+00  9.55249411E+00  9.55249411E+00 -1.91049882E+01
  0.00000000E+00  9.55249411E+00  9.55249411E+00 -1.91049882E+01  0.00000000E+00
  9.55249411E+00  9.55249411E+00 -1.91049882E+01  0.00000000E+00  9.55249411E+00
  9.55249411E+00 -1.91049882E+01  0.00000000E+00  9.55249411E+00  9.55249411E+00
 -1.91049882E+01  0.00000000E+00  9.55249411E+00  9.55249411E+00 -1.91049882E+01
  0.00000000E+00  9.55249411E+00  9.55249411E+00 -1.91049882E+01  0.00000000E+00
  9.55249411E+00  9.55249411E+00 -1.91049882E+01  0.00000000E+00  9.55249411E+00
  9.55249411E+00 -1.91049882E+01  0.00000000E+00  9.55249411E+00  9.55249411E+00
 -1.91049882E+01  0.00000000E+00  9.55249411E+00  9.55249411E+00 -1.91049882E+01
  0.00000000E+00  9.55249411E+00  9.55249411E+00 -1.91049882E+01  0.00000000E+00
  9.55249411E+00  9.55249411E+00 -1.91049882E+01  0.00000000E+00  9.55249411E+00
  9.55249411E+00 -1.91049882E+01  0.00000000E+00  9.55249411E+00  9.55249411E+00
 -1.91049882E+01  0.00000000E+00  9.55249411E+00  9.55249411E+00 -1.91049882E+01
  0.00000000E+00  9.55249411E+00  9.55249411E+00 -1.91049882E+01  0.00000000E+00
  9.55249411E+00  9.55249411E+00 -1.91049882E+01  0.00000000E+00  9.55249411E+00
  9.55249411E+00 -1.91049882E+01  0.00000000E+00  9.55249411E+00  9.55249411E+00
 -1.91049882E+01  0.00000000E+00  9.55249411E+00  9.55249411E+00 -1.91049882E+01
  0.00000000E+00  9.55249411E+00  9.55249411E+00 -1.91049882E+01  0.00000000E+00
  9.55249411E+00  9.55249411E+00 -1.91049882E+01  0.00000000E+00  9.55249411E+00
  9.55249411E+00 -1.91049882E+01  0.00000000E+00  9.55249411E+00  9.55249411E+00
 -1.91049882E+01  0.00000000E+00  9.55249411E+00  9.55249411E+00 -1.91049882E+01
  0.00000000E+00  9.55249411E+00  9.55249411E+00 -1.91049882E+01  0.00000000E+00
  9.55249411E+00  9.55249411E+00 -1.91049882E+01  0.00000000E+00  9.55249411E+00
  9.55249411E+00 -1.91049882E+01  0.00000000E+00  9.55249411E+00  9.55249411E+00
 -1.91049882E+01  0.00000000E+00  9.55249411E+00  9.55249411E+00 -1.91049882E+01
  0.00000000E+00  9.55249411E+00  9.55249411E+00 -1.91049882E+01  0.00000000E+00
  9.55249411E+00  9.55249411E+00 -1.91049882E+01  0.00000000E+00  9.55249411E+00
  9.55249411E+00 -1.91049882E+01  0.00000000E+00  9.55249411E+00  9.55249411E+00
 -1.91049882E+01  0.00000000E+00  9.55249411E+00  9.55249411E+00 -1.91049882E+01
  0.00000000E+00  9.55249411E+00  9.55249411E+00 -1.91049882E+01  0.00000000E+00
  9.55249411E+00  9.55249411E+00 -1.91049882E+01  0.00000000E+00  9.55249411E+00
  9.55249411E+00 -1.91049882E+01  0.00000000E+00  9.55249411E+00  9.55249411E+00
 -1.91049882E+01  0.00000000E+00  9.55249411E+00  9.55249411E+00 -1.91049882E+01
  0.00000000E+00  9.55249411E+00  9.55249411E+00 -1.91049882E+01  0.00000000E+00
  9.55249411E+00  9.55249411E+00 -1.91049882E+01  0.00000000E+00  9.55249411E+00
  9.55249411E+00 -1.91049882E+01  0.00000000E+00  9.55249411E+00  9.55249411E+00
 -1.91049882E+01  0.00000000E+00  9.55249411E+00  9.55249411E+00 -1.91049882E+01
  0.00000000E+00  9.55249411E+00  9.55249411E+00 -1.91049882E+01  0.00000000E+00
  9.55249411E+00  9.55249411E+00 -1.91049882E+01  0.00000000E+00  9.55249411E+00
  9.55249411E+00 -1.91049882E+01  0.00000000E+00  9.55249411E+00  9.55249411E+00
 -1.91049882E+01  0.00000000E+00  9.55249411E+00  9.55249411E+00 -1.91049882E+01
  0.00000000E+00  9.55249411E+00  9.55249411E+00 -1.91049882E+01  0.00000000E+00
  9.55249411E+00  9.55249411E+00 -1.91049882E+01  0.00000000E+00  9.55249411E+00
  9.55249411E+00 -1.91049882E+01  0.00000000E+00  9.55249411E+00  9.55249411E+00
 -1.91049882E+01  0.00000000E+00  9.55249411E+00  9.55249411E+00 -1.91049882E+01
  0.00000000E+00  9.55249411E+00  9.55249411E+00 -1.91049882E+01  0.00000000E+00
  9.55249411E+00  9.55249411E+00 -1.91049882E+01  0.00000000E+00  9.55249411E+00
  9.55249411E+00 -1.91049882E+01  0.00000000E+00  9.55249411E+00  9.55249411E+00
 -1.91049882E+01  0.00000000E+00  9.55249411E+00  9.55249411E+00 -1.91049882E+01
  0.00000000E+00  9.55249411E+00  9.55249411E+00 -1.91049882E+01  0.00000000E+00
  9.55249411E+00  9.55249411E+00 -1.91049882E+01  0.00000000E+00  9.55249411E+00
  9.55249411E+00 -1.91049882E+01  0.00000000E+00  9.55249411E+00  9.55249411E+00
 -1.91049882E+01  0.00000000E+00  9.55249411E+00  9.55249411E+00 -1.91049882E+01
  0.00000000E+00  9.55249411E+00  9.55249411E+00 -1.91049882E+01  0.00000000E+00
  9.55249411E+00  9.55249411E+00 -1.91049882E+01  0.00000000E+00  9.55249411E+00
  9.55249411E+00 -1.91049882E+01  0.00000000E+00  9.55249411E+00  9.55249411E+00
 -1.91049882E+01  0.00000000E+00  9.55249411E+00  9.55249411E+00 -1.91049882E+01
  0.00000000E+00  9.55249411E+00  9.55249411E+00 -1.91049882E+01  0.00000000E+00
  9.55249411E+00  9.55249411E+00 -1.91049882E+01  0.00000000E+00  9.55249411E+00
  9.55249411E+00 -1.91049882E+01  0.00000000E+00  9.55249411E+00  9.55249411E+00
 -1.91049882E+01  0.00000000E+00  9.55249411E+00  9.55249411E+00 -1.91049882E+01
  0.00000000E+00  9.55249411E+00  9.55249411E+00 -1.91049882E+01  0.00000000E+00
  9.55249411E+00  9.55249411E+00 -1.91049882E+01  0.00000000E+00  9.55249411E+00
  9.55249411E+00 -1.91049882E+01  0.00000000E+00  9.55249411E+00  9.55249411E+00
 -1.91049882E+01  0.00000000E+00  9.55249411E+00  9.55249411E+00 -1.91049882E+01
  0.00000000E+00  9.55249411E+00  9.55249411E+00 -1.91049882E+01  0.00000000E+00
  9.55249411E+00  9.55249411E+00 -1.91049882E+01  0.00000000E+00  9.55249411E+00
  9.55249411E+00 -1.91049882E+01  0.00000000E+00  9.55249411E+00  9.55249411E+00
 -1.91049882E+01  0.00000000E+00  9.55249411E+00  9.55249411E+00 -1.91049882E+01
  0.00000000E+00  9.55249411E+00  9.55249411E+00 -1.91049882E+01  0.00000000E+00
  9.55249411E+00  9.55249411E+00 -1.91049882E+01  0.00000000E+00  9.55249411E+00
  9.55249411E+00 -1.91049882E+01  0.00000000E+00  9.55249411E+00  9.55249411E+00
 -1.91049882E+01  0.00000000E+00  9.55249411E+00  9.55249411E+00 -1.91049882E+01
  0.00000000E+00  9.55249411E+00  9.55249411E+00 -1.91049882E+01  0.00000000E+00
  9.55249411E+00  9.55249411E+00 -1.91049882E+01  0.00000000E+00  9.55249411E+00
  9.55249411E+00 -1.91049882E+01  0.00000000E+00  9.55249411E+00  9.55249411E+00
 -1.91049882E+01  0.00000000E+00  9.55249411E+00  9.55249411E+00 -1.91049882E+01
  0.00000000E+00  9.55249411E+00  9.55249411E+00 -1.91049882E+01  0.00000000E+00
  9.55249411E+00  9.55249411E+00 -1.91049882E+01  0.00000000E+00  9.55249411E+00
  9.55249411E+00 -1.91049882E+01  0.00000000E+00  9.55249411E+00  9.55249411E+00
 -1.91049882E+01  0.00000000E+00  9.55249411E+00  9.55249411E+00 -1.91049882E+01
  0.00000000E+00  9.55249411E+00  9.55249411E+00 -1.91049882E+01  0.00000000E+00
  9.55249411E+00  9.55249411E+00 -1.91049882E+01  0.00000000E+00  9.55249411E+00
  9.55249411E+00 -1.91049882E+01  0.00000000E+00  9.55249411E+00  9.55249411E+00
 -1.91049882E+01  0.00000000E+00  9.55249411E+00  9.55249411E+00 -1.91049882E+01
  0.00000000E+00  9.55249411E+00  9.55249411E+00 -1.91049882E+01  0.00000000E+00
  9.55249411E+00  9.55249411E+00 -1.91049882E+01  0.00000000E+00  9.55249411E+00
  9.55249411E+00 -1.91049882E+01  0.00000000E+00  9.55249411E+00  9.55249411E+00
 -1.91049882E+01  0.00000000E+00  9.55249411E+00  9.55249411E+00 -1.91049882E+01
  0.00000000E+00  9.55249411E+00  9.55249411E+00 -1.91049882E+01  0.00000000E+00
  9.55249411E+00  9.55249411E+00 -1.91049882E+01  0.00000000E+00  9.55249411E+00
  9.55249411E+00 -1.91049882E+01  0.00000000E+00  9.55249411E+00  9.55249411E+00
 -1.91049882E+01  0.00000000E+00  9.55249411E+00  9.55249411E+00 -1.91049882E+01
  0.00000000E+00  9.55249411E+00  9.55249411E+00 -1.91049882E+01  0.00000000E+00
  9.55249411E+00  9.55249411E+00 -1.91049882E+01  0.00000000E+00  9.55249411E+00
  9.55249411E+00 -1.91049882E+01  0.00000000E+00  9.55249411E+00  9.55249411E+00
 -1.91049882E+01  0.00000000E+00  9.55249411E+00  9.55249411E+00 -1.91049882E+01
  0.00000000E+00  9.55249411E+00  9.55249411E+00 -1.91049882E+01  0.00000000E+00
  9.55249411E+00  9.55249411E+00 -1.91049882E+01  0.00000000E+00  9.55249411E+00
  9.55249411E+00 -1.91049882E+01  0.00000000E+00  9.55249411E+00  9.55249411E+00
 -1.91049882E+01  0.00000000E+00  9.55249411E+00  9.55249411E+00 -1.91049882E+01
  0.00000000E+00  9.55249411E+00  9.55249411E+00 -1.91049882E+01  0.00000000E+00
  9.55249411E+00  9.55249411E+00 -1.91049882E+01  0.00000000E+00  9.55249411E+00
  9.55249411E+00 -1.91049882E+01  0.00000000E+00  9.55249411E+00  9.55249411E+00
 -1.91049882E+01  0.00000000E+00  9.55249411E+00  9.55249411E+00 -1.91049882E+01
  0.00000000E+00  9.55249411E+00  9.55249411E+00 -1.91049882E+01  0.00000000E+00
  9.55249411E+00  9.55249411E+00 -1.91049882E+01  0.00000000E+00  9.55249411E+00
  9.55249411E+00 -1.91049882E+01  0.00000000E+00  9.55249411E+00  9.55249411E+00
 -1.91049882E+01  0.00000000E+00  9.55249411E+00  9.55249411E+00 -1.91049882E+01
  0.00000000E+00  9.55249411E+00  9.55249411E+00 -1.91049882E+01  0.00000000E+00
  9.55249411E+00  9.55249411E+00 -1.91049882E+01  0.00000000E+00  9.55249411E+00
  9.55249411E+00 -1.91049882E+01  0.00000000E+00  9.55249411E+00  9.55249411E+00
 -1.91049882E+01  0.00000000E+00  9.55249411E+00  9.55249411E+00 -1.91049882E+01
  0.00000000E+00  9.55249411E+00  9.55249411E+00 -1.91049882E+01  0.00000000E+00
  9.55249411E+00  9.55249411E+00 -1.91049882E+01  0.00000000E+00  9.55249411E+00
  9.55249411E+00 -1.91049882E+01  0.00000000E+00  9.55249411E+00  9.55249411E+00
 -1.91049882E+01  0.00000000E+00  9.55249411E+00  9.55249411E+00 -1.91049882E+01
  0.00000000E+00  9.55249411E+00  9.55249411E+00 -1.91049882E+01  0.00000000E+00
  9.55249411E+00  9.55249411E+00 -1.91049882E+01  0.00000000E+00  9.55249411E+00
  9.55249411E+00 -1.91049882E+01  0.00000000E+00  9.55249411E+00  9.55249411E+00
 -1.91049882E+01  0.00000000E+00  9.55249411E+00  9.55249411E+00 -1.91049882E+01
  0.00000000E+00  9.55249411E+00  9.55249411E+00 -1.91049882E+01  0.00000000E+00
  9.55249411E+00  9.55249411E+00 -1.91049882E+01  0.00000000E+00  9.55249411E+00
  9.55249411E+00 -1.91049882E+01  0.00000000E+00  9.55249411E+00  9.55249411E+00
 -1.91049882E+01  0.00000000E+00  9.55249411E+00  9.55249411E+00 -1.91049882E+01
  0.00000000E+00  9.55249411E+00  9.55249411E+00 -1.91049882E+01  0.00000000E+00
  9.55249411E+00  9.55249411E+00 -1.91049882E+01  0.00000000E+00  9.55249411E+00
  9.55249411E+00 -1.91049882E+01  0.00000000E+00  9.55249411E+00  9.55249411E+00
 -1.91049882E+01  0.00000000E+00  9.55249411E+00  9.55249411E+00 -1.91049882E+01
  0.00000000E+00  9.55249411E+00  9.55249411E+00 -1.91049882E+01  0.00000000E+00
  9.55249411E+00  9.55249411E+00 -1.91049882E+01  0.00000000E+00  9.55249411E+00
  9.55249411E+00 -1.91049882E+01  0.00000000E+00  9.55249411E+00  9.55249411E+00
 -1.91049882E+01  0.00000000E+00  9.55249411E+00  9.55249411E+00 -1.91049882E+01
  0.00000000E+00  9.55249411E+00  9.55249411E+00 -1.91049882E+01  0.00000000E+00
  9.55249411E+00  9.55249411E+00 -1.91049882E+01  0.00000000E+00  9.55249411E+00
  9.55249411E+00 -1.91049882E+01  0.00000000E+00  9.55249411E+00  9.55249411E+00
 -1.91049882E+01  0.00000000E+00  9.55249411E+00  9.55249411E+00 -1.91049882E+01
  0.00000000E+00  9.55249411E+00  9.55249411E+00 -1.91049882E+01  0.00000000E+00
  9.55249411E+00  9.55249411E+00 -1.91049882E+01  0.00000000E+00  9.55249411E+00
  9.55249411E+00 -1.91049882E+01  0.00000000E+00  9.55249411E+00  9.55249411E+00
 -1.91049882E+01  0.00000000E+00  9.55249411E+00  9.55249411E+00 -1.91049882E+01
  0.00000000E+00  9.55249411E+00  9.55249411E+00 -1.91049882E+01  0.00000000E+00
  9.55249411E+00  9.55249411E+00 -1.91049882E+01  0.00000000E+00  9.55249411E+00
  9.55249411E+00 -1.91049882E+01  0.00000000E+00  9.55249411E+00  9.55249411E+00
 -1.91049882E+01  0.00000000E+00  9.55249411E+00  9.55249411E+00 -1.91049882E+01
  0.00000000E+00  9.55249411E+00  9.55249411E+00 -1.91049882E+01  0.00000000E+00
  9.55249411E+00  9.55249411E+00 -1.91049882E+01  0.00000000E+00  9.55249411E+00
  9.55249411E+00 -1.91049882E+01  0.00000000E+00  9.55249411E+00  9.55249411E+00
 -1.91049882E+01  0.00000000E+00  9.55249411E+00  9.55249411E+00 -1.91049882E+01
  0.00000000E+00  9.55249411E+00  9.55249411E+00 -1.91049882E+01  0.00000000E+00
  9.55249411E+00  9.55249411E+00 -1.91049882E+01  0.00000000E+00  9.55249411E+00
  9.55249411E+00 -1.91049882E+01  0.00000000E+00  9.55249411E+00  9.55249411E+00
 -1.91049882E+01  0.00000000E+00  9.55249411E+00  9.55249411E+00 -1.91049882E+01
  0.00000000E+00  9.55249411E+00  9.55249411E+00 -1.91049882E+01  0.00000000E+00
  9.55249411E+00  9.55249411E+00 -1.91049882E+01  0.00000000E+00  9.55249411E+00
  9.55249411E+00 -1.91049882E+01  0.00000000E+00  9.55249411E+00  9.55249411E+00
 -1.91049882E+01  0.00000000E+00  9.55249411E+00  9.55249411E+00 -1.91049882E+01
  0.00000000E+00  9.55249411E+00  9.55249411E+00 -1.91049882E+01  0.00000000E+00
  9.55249411E+00  9.55249411E+00 -1.91049882E+01  0.00000000E+00  9.55249411E+00
  9.55249411E+00 -1.91049882E+01  0.00000000E+00  9.55249411E+00  9.55249411E+00
 -1.91049882E+01  0.00000000E+00  9.55249411E+00  9.55249411E+00 -1.91049882E+01
  0.00000000E+00  9.55249411E+00  9.55249411E+00 -1.91049882E+01  0.00000000E+00
  9.55249411E+00  9.55249411E+00 -1.91049882E+01  0.00000000E+00  9.55249411E+00
  9.55249411E+00 -1.91049882E+01  0.00000000E+00  9.55249411E+00  9.55249411E+00
 -1.91049882E+01  0.00000000E+00  9.55249411E+00  9.55249411E+00 -1.91049882E+01
  0.00000000E+00  9.55249411E+00  9.55249411E+00 -1.91049882E+01  0.00000000E+00
  9.55249411E+00  9.55249411E+00 -1.91049882E+01  0.00000000E+00  9.55249411E+00
  9.55249411E+00 -1.91049882E+01  0.00000000E+00  9.55249411E+00  9.55249411E+00
 -1.91049882E+01  0.00000000E+00  9.55249411E+00  9.55249411E+00 -1.91049882E+01
  0.00000000E+00  9.55249411E+00  9.55249411E+00 -1.91049882E+01  0.00000000E+00
  9.55249411E+00  9.55249411E+00 -1.91049882E+01  0.00000000E+00  9.55249411E+00
  9.55249411E+00 -1.91049882E+01  0.00000000E+00  9.55249411E+00  9.55249411E+00
 -1.91049882E+01  0.00000000E+00  9.55249411E+00  9.55249411E+00 -1.91049882E+01
  0.00000000E+00  9.55249411E+00  9.55249411E+00 -1.91049882E+01  0.00000000E+00
  9.55249411E+00  9.55249411E+00 -1.91049882E+01  0.00000000E+00  9.55249411E+00
  9.55249411E+00 -1.91049882E+01  0.00000000E+00  9.55249411E+00  9.55249411E+00
 -1.91049882E+01  0.00000000E+00  9.55249411E+00  9.55249411E+00 -1.91049882E+01
  0.00000000E+00  9.55249411E+00  9.55249411E+00 -1.91049882E+01  0.00000000E+00
  9.55249411E+00  9.55249411E+00 -1.91049882E+01  0.00000000E+00  9.55249411E+00
  9.55249411E+00 -1.91049882E+01  0.00000000E+00  9.55249411E+00  9.55249411E+00
 -1.91049882E+01  0.00000000E+00  9.55249411E+00  9.55249411E+00 -1.91049882E+01
  0.00000000E+00  9.55249411E+00  9.55249411E+00 -1.91049882E+01  0.00000000E+00
  9.55249411E+00  9.55249411E+00 -1.91049882E+01  0.00000000E+00  9.55249411E+00
  9.55249411E+00 -1.91049882E+01  0.00000000E+00  9.55249411E+00  9.55249411E+00
 -1.91049882E+01  0.00000000E+00  9.55249411E+00  9.55249411E+00 -1.91049882E+01
  0.00000000E+00  9.55249411E+00  9.55249411E+00 -1.91049882E+01  0.00000000E+00
  9.55249411E+00  9.55249411E+00 -1.91049882E+01  0.00000000E+00  9.55249411E+00
  9.55249411E+00 -1.91049882E+01  0.00000000E+00  9.55249411E+00  9.55249411E+00
 -1.91049882E+01  0.00000000E+00  9.55249411E+00  9.55249411E+00 -1.91049882E+01
  0.00000000E+00  9.55249411E+00  9.55249411E+00 -1.91049882E+01  0.00000000E+00
  9.55249411E+00  9.55249411E+00 -1.91049882E+01  0.00000000E+00  9.55249411E+00
  9.55249411E+00 -1.91049882E+01  0.00000000E+00  9.55249411E+00  9.55249411E+00
 -1.91049882E+01  0.00000000E+00  9.55249411E+00  9.55249411E+00 -1.91049882E+01
  0.00000000E+00  9.55249411E+00  9.55249411E+00 -1.91049882E+01  0.00000000E+00
  9.55249411E+00  9.55249411E+00 -1.91049882E+01  0.00000000E+00  9.55249411E+00
  9.55249411E+00 -1.91049882E+01  0.00000000E+00  9.55249411E+00  9.55249411E+00
 -1.91049882E+01  0.00000000E+00  9.55249411E+00  9.55249411E+00 -1.91049882E+01
  0.00000000E+00  9.55249411E+00  9.55249411E+00 -1.91049882E+01  0.00000000E+00
  9.55249411E+00  9.55249411E+00 -1.91049882E+01  0.00000000E+00  9.55249411E+00
  9.55249411E+00 -1.91049882E+01  0.00000000E+00  9.55249411E+00  9.55249411E+00
 -1.91049882E+01  0.00000000E+00  9.55249411E+00  9.55249411E+00 -1.91049882E+01
  0.00000000E+00  9.55249411E+00  9.55249411E+00 -1.91049882E+01  0.00000000E+00
  9.55249411E+00  9.55249411E+00 -1.91049882E+01  0.00000000E+00  9.55249411E+00
  9.55249411E+00 -1.91049882E+01  0.00000000E+00  9.55249411E+00  9.55249411E+00
 -1.91049882E+01  0.00000000E+00  9.55249411E+00  9.55249411E+00 -1.91049882E+01
  0.00000000E+00  9.55249411E+00  9.55249411E+00 -1.91049882E+01  0.00000000E+00
  9.55249411E+00  9.55249411E+00 -1.91049882E+01  0.00000000E+00  9.55249411E+00
  9.55249411E+00 -1.91049882E+01  0.00000000E+00  9.55249411E+00  9.55249411E+00
 -1.91049882E+01  0.00000000E+00  9.55249411E+00  9.55249411E+00 -1.91049882E+01
  0.00000000E+00  9.55249411E+00  9.55249411E+00 -1.91049882E+01  0.00000000E+00
  9.55249411E+00  9.55249411E+00 -1.91049882E+01  0.00000000E+00  9.55249411E+00
  9.55249411E+00 -1.91049882E+01  0.00000000E+00  9.55249411E+00  9.55249411E+00
 -1.91049882E+01  0.00000000E+00  9.55249411E+00  9.55249411E+00 -1.91049882E+01
  0.00000000E+00  9.55249411E+00  9.55249411E+00 -1.91049882E+01  0.00000000E+00
  9.55249411E+00  9.55249411E+00 -1.91049882E+01  0.00000000E+00  9.55249411E+00
  9.55249411E+00 -1.91049882E+01  0.00000000E+00  9.55249411E+00  9.55249411E+00
 -1.91049882E+01  0.00000000E+00  9.55249411E+00  9.55249411E+00 -1.91049882E+01
  0.00000000E+00  9.55249411E+00  9.55249411E+00 -1.91049882E+01  0.00000000E+00
  9.55249411E+00  9.55249411E+00 -1.91049882E+01  0.00000000E+00  9.55249411E+00
  9.55249411E+00 -1.91049882E+01  0.00000000E+00  9.55249411E+00  9.55249411E+00
 -1.91049882E+01  0.00000000E+00  9.55249411E+00  9.55249411E+00 -1.91049882E+01
  0.00000000E+00  9.55249411E+00  9.55249411E+00 -1.91049882E+01  0.00000000E+00
  9.55249411E+00  9.55249411E+00 -1.91049882E+01  0.00000000E+00  9.55249411E+00
  9.55249411E+00 -1.91049882E+01  0.00000000E+00  9.55249411E+00  9.55249411E+00
 -1.91049882E+01  0.00000000E+00  9.55249411E+00  9.55249411E+00 -1.91049882E+01
  0.00000000E+00  9.55249411E+00  9.55249411E+00 -1.91049882E+01  0.00000000E+00
  9.55249411E+00  9.55249411E+00 -1.91049882E+01  0.00000000E+00  9.55249411E+00
  9.55249411E+00 -1.91049882E+01  0.00000000E+00  9.55249411E+00  9.55249411E+00
 -1.91049882E+01  0.00000000E+00  9.55249411E+00  9.55249411E+00 -1.91049882E+01
  0.00000000E+00  9.55249411E+00  9.55249411E+00 -1.91049882E+01  0.00000000E+00
  9.55249411E+00  9.55249411E+00 -1.91049882E+01  0.00000000E+00  9.55249411E+00
  9.55249411E+00 -1.91049882E+01  0.00000000E+00  9.55249411E+00  9.55249411E+00
 -1.91049882E+01  0.00000000E+00  9.55249411E+00  9.55249411E+00 -1.91049882E+01
  0.00000000E+00  9.55249411E+00  9.55249411E+00 -1.91049882E+01  0.00000000E+00
  9.55249411E+00  9.55249411E+00 -1.91049882E+01  0.00000000E+00  9.55249411E+00
  9.55249411E+00 -1.91049882E+01  0.00000000E+00  9.55249411E+00  9.55249411E+00
 -1.91049882E+01  0.00000000E+00  9.55249411E+00  9.55249411E+00 -1.91049882E+01
  0.00000000E+00  9.55249411E+00  9.55249411E+00 -1.91049882E+01  0.00000000E+00
  9.55249411E+00  9.55249411E+00 -1.91049882E+01  0.00000000E+00  9.55249411E+00
  9.55249411E+00 -1.91049882E+01  0.00000000E+00  9.55249411E+00  9.55249411E+00
 -1.91049882E+01  0.00000000E+00  9.55249411E+00  9.55249411E+00 -1.91049882E+01
  0.00000000E+00  9.55249411E+00  9.55249411E+00 -1.91049882E+01  0.00000000E+00
  9.55249411E+00  9.55249411E+00 -1.91049882E+01  0.00000000E+00  9.55249411E+00
  9.55249411E+00 -1.91049882E+01  0.00000000E+00  9.55249411E+00  9.55249411E+00
 -1.91049882E+01  0.00000000E+00  9.55249411E+00  9.55249411E+00 -1.91049882E+01
  0.00000000E+00  9.55249411E+00  9.55249411E+00 -1.91049882E+01  0.00000000E+00
  9.55249411E+00  9.55249411E+00 -1.91049882E+01  0.00000000E+00  9.55249411E+00
  9.55249411E+00 -1.91049882E+01  0.00000000E+00  9.55249411E+00  9.55249411E+00
 -1.91049882E+01  0.00000000E+00  9.55249411E+00  9.55249411E+00 -1.91049882E+01
  0.00000000E+00  9.55249411E+00  9.55249411E+00 -1.91049882E+01  0.00000000E+00
  9.55249411E+00  9.55249411E+00 -1.91049882E+01  0.00000000E+00  9.55249411E+00
  9.55249411E+00 -1.91049882E+01  0.00000000E+00  9.55249411E+00  9.55249411E+00
 -1.91049882E+01  0.00000000E+00  9.55249411E+00  9.55249411E+00 -1.91049882E+01
  0.00000000E+00  9.55249411E+00  9.55249411E+00 -1.91049882E+01  0.00000000E+00
  9.55249411E+00  9.55249411E+00 -1.91049882E+01  0.00000000E+00  9.55249411E+00
  9.55249411E+00 -1.91049882E+01  0.00000000E+00  9.55249411E+00  9.55249411E+00
 -1.91049882E+01  0.00000000E+00  9.55249411E+00  9.55249411E+00 -1.91049882E+01
  0.00000000E+00  9.55249411E+00  9.55249411E+00 -1.91049882E+01  0.00000000E+00
  9.55249411E+00  9.55249411E+00 -1.91049882E+01  0.00000000E+00  9.55249411E+00
  9.55249411E+00 -1.91049882E+01  0.00000000E+00  9.55249411E+00  9.55249411E+00
 -1.91049882E+01  0.00000000E+00  9.55249411E+00  9.55249411E+00 -1.91049882E+01
  0.00000000E+00  9.55249411E+00  9.55249411E+00 -1.91049882E+01  0.00000000E+00
  9.55249411E+00  9.55249411E+00 -1.91049882E+01  0.00000000E+00  9.55249411E+00
  9.55249411E+00 -1.91049882E+01  0.00000000E+00  9.55249411E+00  9.55249411E+00
 -1.91049882E+01  0.00000000E+00  9.55249411E+00  9.55249411E+00 -1.91049882E+01
  0.00000000E+00  9.55249411E+00  9.55249411E+00 -1.91049882E+01  0.00000000E+00
  9.55249411E+00  9.55249411E+00 -1.91049882E+01  0.00000000E+00  9.55249411E+00
  9.55249411E+00 -1.91049882E+01  0.00000000E+00  9.55249411E+00  9.55249411E+00
 -1.91049882E+01  0.00000000E+00  9.55249411E+00  9.55249411E+00 -1.91049882E+01
  0.00000000E+00  9.55249411E+00  9.55249411E+00 -1.91049882E+01  0.00000000E+00
  9.55249411E+00  9.55249411E+00 -1.91049882E+01  0.00000000E+00  9.55249411E+00
  9.55249411E+00 -1.91049882E+01  0.00000000E+00  9.55249411E+00  9.55249411E+00
 -1.91049882E+01  0.00000000E+00  9.55249411E+00  9.55249411E+00 -1.91049882E+01
  0.00000000E+00  9.55249411E+00  9.55249411E+00 -1.91049882E+01  0.00000000E+00
  9.55249411E+00  9.55249411E+00 -1.91049882E+01  0.00000000E+00  9.55249411E+00
  9.55249411E+00 -1.91049882E+01  0.00000000E+00  9.55249411E+00  9.55249411E+00
 -1.91049882E+01  0.00000000E+00  9.55249411E+00  9.55249411E+00 -1.91049882E+01
  0.00000000E+00  9.55249411E+00  9.55249411E+00 -1.91049882E+01  0.00000000E+00
  9.55249411E+00  9.55249411E+00 -1.91049882E+01  0.00000000E+00  9.55249411E+00
  9.55249411E+00 -1.91049882E+01  0.00000000E+00  9.55249411E+00  9.55249411E+00
 -1.91049882E+01  0.00000000E+00  9.55249411E+00  9.55249411E+00 -1.91049882E+01
  0.00000000E+00  9.55249411E+00  9.55249411E+00 -1.91049882E+01  0.00000000E+00
  9.55249411E+00  9.55249411E+00 -1.91049882E+01  0.00000000E+00  9.55249411E+00
  9.55249411E+00 -1.91049882E+01  0.00000000E+00  9.55249411E+00  9.55249411E+00
 -1.91049882E+01  0.00000000E+00  9.55249411E+00  9.55249411E+00 -1.91049882E+01
  0.00000000E+00  9.55249411E+00  9.55249411E+00 -1.91049882E+01  0.00000000E+00
  9.55249411E+00  9.55249411E+00 -1.91049882E+01  0.00000000E+00  9.55249411E+00
  9.55249411E+00 -1.91049882E+01  0.00000000E+00  9.55249411E+00  9.55249411E+00
 -1.91049882E+01  0.00000000E+00  9.55249411E+00  9.55249411E+00 -1.91049882E+01
  0.00000000E+00  9.55249411E+00  9.55249411E+00 -1.91049882E+01  0.00000000E+00
  9.55249411E+00  9.55249411E+00 -1.91049882E+01  0.00000000E+00  9.55249411E+00
  9.55249411E+00 -1.91049882E+01  0.00000000E+00  9.55249411E+00  9.55249411E+00
 -1.91049882E+01  0.00000000E+00  9.55249411E+00  9.55249411E+00 -1.91049882E+01
  0.00000000E+00  9.55249411E+00  9.55249411E+00 -1.91049882E+01  0.00000000E+00
  9.55249411E+00  9.55249411E+00 -1.91049882E+01  0.00000000E+00  9.55249411E+00
  9.55249411E+00 -1.91049882E+01  0.00000000E+00  9.55249411E+00  9.55249411E+00
 -1.91049882E+01  0.00000000E+00  9.55249411E+00  9.55249411E+00 -1.91049882E+01
  0.00000000E+00  9.55249411E+00  9.55249411E+00 -1.91049882E+01  0.00000000E+00
  9.55249411E+00  9.55249411E+00 -1.91049882E+01  0.00000000E+00  9.55249411E+00
  9.55249411E+00 -1.91049882E+01  0.00000000E+00  9.55249411E+00  9.55249411E+00
 -1.91049882E+01  0.00000000E+00  9.55249411E+00  9.55249411E+00 -1.91049882E+01
  0.00000000E+00  9.55249411E+00  9.55249411E+00 -1.91049882E+01  0.00000000E+00
  9.55249411E+00  9.55249411E+00 -1.91049882E+01  0.00000000E+00  9.55249411E+00
  9.55249411E+00 -1.91049882E+01  0.00000000E+00  9.55249411E+00  9.55249411E+00
 -1.91049882E+01  0.00000000E+00  9.55249411E+00  9.55249411E+00 -1.91049882E+01
  0.00000000E+00  9.55249411E+00  9.55249411E+00 -1.91049882E+01  0.00000000E+00
  9.55249411E+00  9.55249411E+00 -1.91049882E+01  0.00000000E+00  9.55249411E+00
  9.55249411E+00 -1.91049882E+01  0.00000000E+00  9.55249411E+00  9.55249411E+00
 -1.91049882E+01  0.00000000E+00  9.55249411E+00  9.55249411E+00 -1.91049882E+01
  0.00000000E+00  9.55249411E+00  9.55249411E+00 -1.91049882E+01  0.00000000E+00
  9.55249411E+00  9.55249411E+00 -1.91049882E+01  0.00000000E+00  9.55249411E+00
  9.55249411E+00 -1.91049882E+01  0.00000000E+00  9.55249411E+00  9.55249411E+00
 -1.91049882E+01  0.00000000E+00  9.55249411E+00  9.55249411E+00 -1.91049882E+01
  0.00000000E+00  9.55249411E+00  9.55249411E+00 -1.91049882E+01  0.00000000E+00
  9.55249411E+00  9.55249411E+00 -1.91049882E+01  0.00000000E+00  9.55249411E+00
  9.55249411E+00 -1.91049882E+01  0.00000000E+00  9.55249411E+00  9.55249411E+00
 -1.91049882E+01  0.00000000E+00  9.55249411E+00  9.55249411E+00 -1.91049882E+01
  0.00000000E+00  9.55249411E+00  9.55249411E+00 -1.91049882E+01  0.00000000E+00
  9.55249411E+00  9.55249411E+00 -1.91049882E+01  0.00000000E+00  9.55249411E+00
  9.55249411E+00 -1.91049882E+01  0.00000000E+00  9.55249411E+00  9.55249411E+00
 -1.91049882E+01  0.00000000E+00  9.55249411E+00  9.55249411E+00 -1.91049882E+01
  0.00000000E+00  9.55249411E+00  9.55249411E+00 -1.91049882E+01  0.00000000E+00
  9.55249411E+00  9.55249411E+00 -1.91049882E+01  0.00000000E+00  9.55249411E+00
  9.55249411E+00 -1.91049882E+01  0.00000000E+00  9.55249411E+00  9.55249411E+00
 -1.91049882E+01  0.00000000E+00  9.55249411E+00  9.55249411E+00 -1.91049882E+01
  0.00000000E+00  9.55249411E+00  9.55249411E+00 -1.91049882E+01  0.00000000E+00
  9.55249411E+00  9.55249411E+00 -1.91049882E+01  0.00000000E+00  9.55249411E+00
  9.55249411E+00 -1.91049882E+01  0.00000000E+00  9.55249411E+00  9.55249411E+00
 -1.91049882E+01  0.00000000E+00  9.55249411E+00  9.55249411E+00 -1.91049882E+01
  0.00000000E+00  9.55249411E+00  9.55249411E+00 -1.91049882E+01  0.00000000E+00
  9.55249411E+00  9.55249411E+00 -1.91049882E+01  0.00000000E+00  9.55249411E+00
  9.55249411E+00 -1.91049882E+01  0.00000000E+00  9.55249411E+00  9.55249411E+00
 -1.91049882E+01  0.00000000E+00  9.55249411E+00  9.55249411E+00 -1.91049882E+01
  0.00000000E+00  9.55249411E+00  9.55249411E+00 -1.91049882E+01  0.00000000E+00
  9.55249411E+00  9.55249411E+00 -1.91049882E+01  0.00000000E+00  9.55249411E+00
  9.55249411E+00 -1.91049882E+01  0.00000000E+00  9.55249411E+00  9.55249411E+00
 -1.91049882E+01  0.00000000E+00  9.55249411E+00  9.55249411E+00 -1.91049882E+01
  0.00000000E+00  9.55249411E+00  9.55249411E+00 -1.91049882E+01  0.00000000E+00
  9.55249411E+00  9.55249411E+00 -1.91049882E+01  0.00000000E+00  9.55249411E+00
  9.55249411E+00 -1.91049882E+01  0.00000000E+00  9.55249411E+00  9.55249411E+00
 -1.91049882E+01  0.00000000E+00  9.55249411E+00  9.55249411E+00 -1.91049882E+01
  0.00000000E+00  9.55249411E+00  9.55249411E+00 -1.91049882E+01  0.00000000E+00
  9.55249411E+00  9.55249411E+00 -1.91049882E+01  0.00000000E+00  9.55249411E+00
  9.55249411E+00 -1.91049882E+01  0.00000000E+00  9.55249411E+00  9.55249411E+00
 -1.91049882E+01  0.00000000E+00  9.55249411E+00  9.55249411E+00 -1.91049882E+01
  0.00000000E+00  9.55249411E+00  9.55249411E+00 -1.91049882E+01  0.00000000E+00
  9.55249411E+00  9.55249411E+00 -1.91049882E+01  0.00000000E+00  9.55249411E+00
  9.55249411E+00 -1.91049882E+01  0.00000000E+00  9.55249411E+00  9.55249411E+00
 -1.91049882E+01  0.00000000E+00  9.55249411E+00  9.55249411E+00 -1.91049882E+01
  0.00000000E+00  9.55249411E+00  9.55249411E+00 -1.91049882E+01  0.00000000E+00
  9.55249411E+00  9.55249411E+00 -1.91049882E+01  0.00000000E+00  9.55249411E+00
  9.55249411E+00 -1.91049882E+01  0.00000000E+00  9.55249411E+00  9.55249411E+00
 -1.91049882E+01  0.00000000E+00  9.55249411E+00  9.55249411E+00 -1.91049882E+01
  0.00000000E+00  9.55249411E+00  9.55249411E+00 -1.91049882E+01  0.00000000E+00
  9.55249411E+00  9.55249411E+00 -1.91049882E+01  0.00000000E+00  9.55249411E+00
  9.55249411E+00 -1.91049882E+01  0.00000000E+00  9.55249411E+00  9.55249411E+00
 -1.91049882E+01  0.00000000E+00  9.55249411E+00  9.55249411E+00 -1.91049882E+01
  0.00000000E+00  9.55249411E+00  9.55249411E+00 -1.91049882E+01  0.00000000E+00
  9.55249411E+00  9.55249411E+00 -1.91049882E+01  0.00000000E+00  9.55249411E+00
  9.55249411E+00 -1.91049882E+01  0.00000000E+00  9.55249411E+00  9.55249411E+00
 -1.91049882E+01  0.00000000E+00  9.55249411E+00  9.55249411E+00 -1.91049882E+01
  0.00000000E+00  9.55249411E+00  9.55249411E+00 -1.91049882E+01  0.00000000E+00
  9.55249411E+00  9.55249411E+00 -1.91049882E+01  0.00000000E+00  9.55249411E+00
  9.55249411E+00 -1.91049882E+01  0.00000000E+00  9.55249411E+00  9.55249411E+00
 -1.91049882E+01  0.00000000E+00  9.55249411E+00  9.55249411E+00 -1.91049882E+01
  0.00000000E+00  9.55249411E+00  9.55249411E+00 -1.91049882E+01  0.00000000E+00
  9.55249411E+00  9.55249411E+00 -1.91049882E+01  0.00000000E+00  9.55249411E+00
  9.55249411E+00 -1.91049882E+01  0.00000000E+00  9.55249411E+00  9.55249411E+00
 -1.91049882E+01  0.00000000E+00  9.55249411E+00  9.55249411E+00 -1.91049882E+01
  0.00000000E+00  9.55249411E+00  9.55249411E+00 -1.91049882E+01  0.00000000E+00
  9.55249411E+00  9.55249411E+00 -1.91049882E+01  0.00000000E+00  9.55249411E+00
  9.55249411E+00 -1.91049882E+01  0.00000000E+00  9.55249411E+00  9.55249411E+00
 -1.91049882E+01  0.00000000E+00  9.55249411E+00  9.55249411E+00 -1.91049882E+01
  0.00000000E+00  9.55249411E+00  9.55249411E+00 -1.91049882E+01  0.00000000E+00
  9.55249411E+00  9.55249411E+00 -1.91049882E+01  0.00000000E+00  9.55249411E+00
  9.55249411E+00 -1.91049882E+01  0.00000000E+00  9.55249411E+00  9.55249411E+00
 -1.91049882E+01  0.00000000E+00  9.55249411E+00  9.55249411E+00 -1.91049882E+01
  0.00000000E+00  9.55249411E+00  9.55249411E+00 -1.91049882E+01  0.00000000E+00
  9.55249411E+00  9.55249411E+00 -1.91049882E+01  0.00000000E+00  9.55249411E+00
  9.55249411E+00 -1.91049882E+01  0.00000000E+00  9.55249411E+00  9.55249411E+00
 -1.91049882E+01  0.00000000E+00  9.55249411E+00  9.55249411E+00 -1.91049882E+01
  0.00000000E+00  9.55249411E+00  9.55249411E+00 -1.91049882E+01  0.00000000E+00
  9.55249411E+00  9.55249411E+00 -1.91049882E+01  0.00000000E+00  9.55249411E+00
  9.55249411E+00 -1.91049882E+01  0.00000000E+00  9.55249411E+00  9.55249411E+00
 -1.91049882E+01  0.00000000E+00  9.55249411E+00  9.55249411E+00 -1.91049882E+01
  0.00000000E+00  9.55249411E+00  9.55249411E+00 -1.91049882E+01  0.00000000E+00
  9.55249411E+00  9.55249411E+00 -1.91049882E+01  0.00000000E+00  9.55249411E+00
  9.55249411E+00 -1.91049882E+01  0.00000000E+00  9.55249411E+00  9.55249411E+00
 -1.91049882E+01  0.00000000E+00  9.55249411E+00  9.55249411E+00 -1.91049882E+01
  0.00000000E+00  9.55249411E+00  9.55249411E+00 -1.91049882E+01  0.00000000E+00
  9.55249411E+00  9.55249411E+00 -1.91049882E+01  0.00000000E+00  9.55249411E+00
  9.55249411E+00 -1.91049882E+01  0.00000000E+00  9.55249411E+00  9.55249411E+00
 -1.91049882E+01  0.00000000E+00  9.55249411E+00  9.55249411E+00 -1.91049882E+01
  0.00000000E+00  9.55249411E+00  9.55249411E+00 -1.91049882E+01  0.00000000E+00
  9.55249411E+00  9.55249411E+00 -1.91049882E+01  0.00000000E+00  9.55249411E+00
  9.55249411E+00 -1.91049882E+01  0.00000000E+00  9.55249411E+00  9.55249411E+00
 -1.91049882E+01  0.00000000E+00  9.55249411E+00  9.55249411E+00 -1.91049882E+01
  0.00000000E+00  9.55249411E+00  9.55249411E+00 -1.91049882E+01  0.00000000E+00
  9.55249411E+00  9.55249411E+00 -1.91049882E+01  0.00000000E+00  9.55249411E+00
  9.55249411E+00 -1.91049882E+01  0.00000000E+00  9.55249411E+00  9.55249411E+00
 -1.91049882E+01  0.00000000E+00  9.55249411E+00  9.55249411E+00 -1.91049882E+01
  0.00000000E+00  9.55249411E+00  9.55249411E+00 -1.91049882E+01  0.00000000E+00
  9.55249411E+00  9.55249411E+00 -1.91049882E+01  0.00000000E+00  9.55249411E+00
  9.55249411E+00 -1.91049882E+01  0.00000000E+00  9.55249411E+00  9.55249411E+00
 -1.91049882E+01  0.00000000E+00  9.55249411E+00  9.55249411E+00 -1.91049882E+01
  0.00000000E+00  9.55249411E+00  9.55249411E+00 -1.91049882E+01  0.00000000E+00
  9.55249411E+00  9.55249411E+00 -1.91049882E+01  0.00000000E+00  9.55249411E+00
  9.55249411E+00 -1.91049882E+01  0.00000000E+00  9.55249411E+00  9.55249411E+00
 -1.91049882E+01  0.00000000E+00  9.55249411E+00  9.55249411E+00 -1.91049882E+01
  0.00000000E+00  9.55249411E+00  9.55249411E+00 -1.91049882E+01  0.00000000E+00
  9.55249411E+00  9.55249411E+00 -1.91049882E+01  0.00000000E+00  9.55249411E+00
  9.55249411E+00 -1.91049882E+01  0.00000000E+00  9.55249411E+00  9.55249411E+00
 -1.91049882E+01  0.00000000E+00  9.55249411E+00  9.55249411E+00 -1.91049882E+01
  0.00000000E+00  9.55249411E+00  9.55249411E+00 -1.91049882E+01  0.00000000E+00
  9.55249411E+00  9.55249411E+00 -1.91049882E+01  0.00000000E+00  9.55249411E+00
  9.55249411E+00 -1.91049882E+01  0.00000000E+00  9.55249411E+00  9.55249411E+00
 -1.91049882E+01  0.00000000E+00  9.55249411E+00  9.55249411E+00 -1.91049882E+01
  0.00000000E+00  9.55249411E+00  9.55249411E+00 -1.91049882E+01  0.00000000E+00
  9.55249411E+00  9.55249411E+00 -1.91049882E+01  0.00000000E+00  9.55249411E+00
  9.55249411E+00 -1.91049882E+01  0.00000000E+00  9.55249411E+00  9.55249411E+00
 -1.91049882E+01  0.00000000E+00  9.55249411E+00  9.55249411E+00 -1.91049882E+01
  0.00000000E+00  9.55249411E+00  9.55249411E+00 -1.91049882E+01  0.00000000E+00
  9.55249411E+00  9.55249411E+00 -1.91049882E+01  0.00000000E+00  9.55249411E+00
  9.55249411E+00 -1.91049882E+01  0.00000000E+00  9.55249411E+00  9.55249411E+00
 -1.91049882E+01  0.00000000E+00  9.55249411E+00  9.55249411E+00 -1.91049882E+01
  0.00000000E+00  9.55249411E+00  9.55249411E+00 -1.91049882E+01  0.00000000E+00
  9.55249411E+00  9.55249411E+00 -1.91049882E+01  0.00000000E+00  9.55249411E+00
  9.55249411E+00 -1.91049882E+01  0.00000000E+00  9.55249411E+00  9.55249411E+00
 -1.91049882E+01  0.00000000E+00  9.55249411E+00  9.55249411E+00 -1.91049882E+01
  0.00000000E+00  9.55249411E+00  9.55249411E+00 -1.91049882E+01  0.00000000E+00
  9.55249411E+00  9.55249411E+00 -1.91049882E+01  0.00000000E+00  9.55249411E+00
  9.55249411E+00 -1.91049882E+01  0.00000000E+00  9.55249411E+00  9.55249411E+00
 -1.91049882E+01  0.00000000E+00  9.55249411E+00  9.55249411E+00 -1.91049882E+01
  0.00000000E+00  9.55249411E+00  9.55249411E+00 -1.91049882E+01  0.00000000E+00
  9.55249411E+00  9.55249411E+00 -1.91049882E+01  0.00000000E+00  9.55249411E+00
  9.55249411E+00 -1.91049882E+01  0.00000000E+00  9.55249411E+00  9.55249411E+00
 -1.91049882E+01  0.00000000E+00  9.55249411E+00  9.55249411E+00 -1.91049882E+01
  0.00000000E+00  9.55249411E+00  9.55249411E+00 -1.91049882E+01  0.00000000E+00
  9.55249411E+00  9.55249411E+00 -1.91049882E+01  0.00000000E+00  9.55249411E+00
  9.55249411E+00 -1.91049882E+01  0.00000000E+00  9.55249411E+00  9.55249411E+00
 -1.91049882E+01  0.00000000E+00  9.55249411E+00  9.55249411E+00 -1.91049882E+01
  0.00000000E+00  9.55249411E+00  9.55249411E+00 -1.91049882E+01  0.00000000E+00
  9.55249411E+00  9.55249411E+00 -1.91049882E+01  0.00000000E+00  9.55249411E+00
  9.55249411E+00 -1.91049882E+01  0.00000000E+00  9.55249411E+00  9.55249411E+00
 -1.91049882E+01  0.00000000E+00  9.55249411E+00  9.55249411E+00 -1.91049882E+01
  0.00000000E+00  9.55249411E+00  9.55249411E+00 -1.91049882E+01  0.00000000E+00
  9.55249411E+00  9.55249411E+00 -1.91049882E+01  0.00000000E+00  9.55249411E+00
  9.55249411E+00 -1.91049882E+01  0.00000000E+00  9.55249411E+00  9.55249411E+00
 -1.91049882E+01  0.00000000E+00  9.55249411E+00  9.55249411E+00 -1.91049882E+01
  0.00000000E+00  9.55249411E+00  9.55249411E+00 -1.91049882E+01  0.00000000E+00
  9.55249411E+00  9.55249411E+00 -1.91049882E+01  0.00000000E+00  9.55249411E+00
  9.55249411E+00 -1.91049882E+01  0.00000000E+00  9.55249411E+00  9.55249411E+00
 -1.91049882E+01  0.00000000E+00  9.55249411E+00  9.55249411E+00 -1.91049882E+01
  0.00000000E+00  9.55249411E+00  9.55249411E+00 -1.91049882E+01  0.00000000E+00
  9.55249411E+00  9.55249411E+00 -1.91049882E+01  0.00000000E+00  9.55249411E+00
  9.55249411E+00 -1.91049882E+01  0.00000000E+00  9.55249411E+00  9.55249411E+00
 -1.91049882E+01  0.00000000E+00  9.55249411E+00  9.55249411E+00 -1.91049882E+01
  0.00000000E+00  9.55249411E+00  9.55249411E+00 -1.91049882E+01  0.00000000E+00
  9.55249411E+00  9.55249411E+00 -1.91049882E+01  0.00000000E+00  9.55249411E+00
  9.55249411E+00 -1.91049882E+01  0.00000000E+00  9.55249411E+00  9.55249411E+00
 -1.91049882E+01  0.00000000E+00  9.55249411E+00  9.55249411E+00 -1.91049882E+01
  0.00000000E+00  9.55249411E+00  9.55249411E+00 -1.91049882E+01  0.00000000E+00
  9.55249411E+00  9.55249411E+00 -1.91049882E+01  0.00000000E+00  9.55249411E+00
  9.55249411E+00 -1.91049882E+01  0.00000000E+00  9.55249411E+00  9.55249411E+00
 -1.91049882E+01  0.00000000E+00  9.55249411E+00  9.55249411E+00 -1.91049882E+01
  0.00000000E+00  9.55249411E+00  9.55249411E+00 -1.91049882E+01  0.00000000E+00
  9.55249411E+00  9.55249411E+00 -1.91049882E+01  0.00000000E+00  9.55249411E+00
  9.55249411E+00 -1.91049882E+01  0.00000000E+00  9.55249411E+00  9.55249411E+00
 -1.91049882E+01  0.00000000E+00  9.55249411E+00  9.55249411E+00 -1.91049882E+01
  0.00000000E+00  9.55249411E+00  9.55249411E+00 -1.91049882E+01  0.00000000E+00
  9.55249411E+00  9.55249411E+00 -1.91049882E+01  0.00000000E+00  9.55249411E+00
  9.55249411E+00 -1.91049882E+01  0.00000000E+00  9.55249411E+00  9.55249411E+00
 -1.91049882E+01  0.00000000E+00  9.55249411E+00  9.55249411E+00 -1.91049882E+01
  0.00000000E+00  9.55249411E+00  9.55249411E+00 -1.91049882E+01  0.00000000E+00
  9.55249411E+00  9.55249411E+00 -1.91049882E+01  0.00000000E+00  9.55249411E+00
  9.55249411E+00 -1.91049882E+01  0.00000000E+00  9.55249411E+00  9.55249411E+00
 -1.91049882E+01  0.00000000E+00  9.55249411E+00  9.55249411E+00 -1.91049882E+01
  0.00000000E+00  9.55249411E+00  9.55249411E+00 -1.91049882E+01  0.00000000E+00
  9.55249411E+00  9.55249411E+00 -1.91049882E+01  0.00000000E+00  9.55249411E+00
  9.55249411E+00 -1.91049882E+01  0.00000000E+00  9.55249411E+00  9.55249411E+00
 -1.91049882E+01  0.00000000E+00  9.55249411E+00  9.55249411E+00 -1.91049882E+01
  0.00000000E+00  9.55249411E+00  9.55249411E+00 -1.91049882E+01  0.00000000E+00
  9.55249411E+00  9.55249411E+00 -1.91049882E+01  0.00000000E+00  9.55249411E+00
  9.55249411E+00 -1.91049882E+01  0.00000000E+00  9.55249411E+00  9.55249411E+00
 -1.91049882E+01  0.00000000E+00  9.55249411E+00  9.55249411E+00 -1.91049882E+01
  0.00000000E+00  9.55249411E+00  9.55249411E+00 -1.91049882E+01  0.00000000E+00
  9.55249411E+00  9.55249411E+00 -1.91049882E+01  0.00000000E+00  9.55249411E+00
  9.55249411E+00 -1.91049882E+01  0.00000000E+00  9.55249411E+00  9.55249411E+00
 -1.91049882E+01  0.00000000E+00  9.55249411E+00  9.55249411E+00 -1.91049882E+01
  0.00000000E+00  9.55249411E+00  9.55249411E+00 -1.91049882E+01  0.00000000E+00
  9.55249411E+00  9.55249411E+00 -1.91049882E+01  0.00000000E+00  9.55249411E+00
  9.55249411E+00 -1.91049882E+01  0.00000000E+00  9.55249411E+00  9.55249411E+00
 -1.91049882E+01  0.00000000E+00  9.55249411E+00  9.55249411E+00 -1.91049882E+01
  0.00000000E+00  9.55249411E+00  9.55249411E+00 -1.91049882E+01  0.00000000E+00
  9.55249411E+00  9.55249411E+00 -1.91049882E+01  0.00000000E+00  9.55249411E+00
  9.55249411E+00 -1.91049882E+01  0.00000000E+00  9.55249411E+00  9.55249411E+00
 -1.91049882E+01  0.00000000E+00  9.55249411E+00  9.55249411E+00 -1.91049882E+01
  0.00000000E+00  9.55249411E+00  9.55249411E+00 -1.91049882E+01  0.00000000E+00
  9.55249411E+00  9.55249411E+00 -1.91049882E+01  0.00000000E+00  9.55249411E+00
  9.55249411E+00 -1.91049882E+01  0.00000000E+00  9.55249411E+00  9.55249411E+00
 -1.91049882E+01  0.00000000E+00  9.55249411E+00  9.55249411E+00 -1.91049882E+01
  0.00000000E+00  9.55249411E+00  9.55249411E+00 -1.91049882E+01  0.00000000E+00
  9.55249411E+00  9.55249411E+00 -1.91049882E+01  0.00000000E+00  9.55249411E+00
  9.55249411E+00 -1.91049882E+01  0.00000000E+00  9.55249411E+00  9.55249411E+00
 -1.91049882E+01  0.00000000E+00  9.55249411E+00  9.55249411E+00 -1.91049882E+01
  0.00000000E+00  9.55249411E+00  9.55249411E+00 -1.91049882E+01  0.00000000E+00
  9.55249411E+00  9.55249411E+00 -1.91049882E+01  0.00000000E+00  9.55249411E+00
  9.55249411E+00 -1.91049882E+01  0.00000000E+00  9.55249411E+00  9.55249411E+00
 -1.91049882E+01  0.00000000E+00  9.55249411E+00  9.55249411E+00 -1.91049882E+01
  0.00000000E+00  9.55249411E+00  9.55249411E+00 -1.91049882E+01  0.00000000E+00
  9.55249411E+00  9.55249411E+00 -1.91049882E+01  0.00000000E+00  9.55249411E+00
  9.55249411E+00 -1.91049882E+01  0.00000000E+00  9.55249411E+00  9.55249411E+00
 -1.91049882E+01  0.00000000E+00  9.55249411E+00  9.55249411E+00 -1.91049882E+01
  0.00000000E+00  9.55249411E+00  9.55249411E+00 -1.91049882E+01  0.00000000E+00
  9.55249411E+00  9.55249411E+00 -1.91049882E+01  0.00000000E+00  9.55249411E+00
  9.55249411E+00 -1.91049882E+01  0.00000000E+00  9.55249411E+00  9.55249411E+00
 -1.91049882E+01  0.00000000E+00  9.55249411E+00  9.55249411E+00 -1.91049882E+01
  0.00000000E+00  9.55249411E+00  9.55249411E+00 -1.91049882E+01  0.00000000E+00
  9.55249411E+00  9.55249411E+00 -1.91049882E+01  0.00000000E+00  9.55249411E+00
  9.55249411E+00 -1.91049882E+01  0.00000000E+00  9.55249411E+00  9.55249411E+00
 -1.91049882E+01  0.00000000E+00  9.55249411E+00  9.55249411E+00 -1.91049882E+01
  0.00000000E+00  9.55249411E+00  9.55249411E+00 -1.91049882E+01  0.00000000E+00
  9.55249411E+00  9.55249411E+00 -1.91049882E+01  0.00000000E+00  9.55249411E+00
  9.55249411E+00 -1.91049882E+01  0.00000000E+00  9.55249411E+00  9.55249411E+00
 -1.91049882E+01  0.00000000E+00  9.55249411E+00  9.55249411E+00 -1.91049882E+01
  0.00000000E+00  9.55249411E+00  9.55249411E+00 -1.91049882E+01  0.00000000E+00
  9.55249411E+00  9.55249411E+00 -1.91049882E+01  0.00000000E+00  9.55249411E+00
  9.55249411E+00 -1.91049882E+01  0.00000000E+00  9.55249411E+00  9.55249411E+00
 -1.91049882E+01  0.00000000E+00  9.55249411E+00  9.55249411E+00 -1.91049882E+01
  0.00000000E+00  9.55249411E+00  9.55249411E+00 -1.91049882E+01  0.00000000E+00
  9.55249411E+00  9.55249411E+00 -1.91049882E+01  0.00000000E+00  9.55249411E+00
  9.55249411E+00 -1.91049882E+01  0.00000000E+00  9.55249411E+00  9.55249411E+00
 -1.91049882E+01  0.00000000E+00  9.55249411E+00  9.55249411E+00 -1.91049882E+01
  0.00000000E+00  9.55249411E+00  9.55249411E+00 -1.91049882E+01  0.00000000E+00
  9.55249411E+00  9.55249411E+00 -1.91049882E+01  0.00000000E+00  9.55249411E+00
  9.55249411E+00 -1.91049882E+01  0.00000000E+00  9.55249411E+00  9.55249411E+00
 -1.91049882E+01  0.00000000E+00  9.55249411E+00  9.55249411E+00 -1.91049882E+01
  0.00000000E+00  9.55249411E+00  9.55249411E+00 -1.91049882E+01  0.00000000E+00
  9.55249411E+00  9.55249411E+00 -1.91049882E+01  0.00000000E+00  9.55249411E+00
  9.55249411E+00 -1.91049882E+01  0.00000000E+00  9.55249411E+00  9.55249411E+00
 -1.91049882E+01  0.00000000E+00  9.55249411E+00  9.55249411E+00 -1.91049882E+01
  0.00000000E+00  9.55249411E+00  9.55249411E+00 -1.91049882E+01  0.00000000E+00
  9.55249411E+00  9.55249411E+00 -1.91049882E+01  0.00000000E+00  9.55249411E+00
  9.55249411E+00 -1.91049882E+01  0.00000000E+00  9.55249411E+00  9.55249411E+00
 -1.91049882E+01  0.00000000E+00  9.55249411E+00  9.55249411E+00 -1.91049882E+01
  0.00000000E+00  9.55249411E+00  9.55249411E+00 -1.91049882E+01  0.00000000E+00
  9.55249411E+00  9.55249411E+00 -1.91049882E+01  0.00000000E+00  9.55249411E+00
  9.55249411E+00 -1.91049882E+01  0.00000000E+00  9.55249411E+00  9.55249411E+00
 -1.91049882E+01  0.00000000E+00  9.55249411E+00  9.55249411E+00 -1.91049882E+01
  0.00000000E+00  9.55249411E+00  9.55249411E+00 -1.91049882E+01  0.00000000E+00
  9.55249411E+00  9.55249411E+00 -1.91049882E+01  0.00000000E+00  9.55249411E+00
  9.55249411E+00 -1.91049882E+01  0.00000000E+00  9.55249411E+00  9.55249411E+00
 -1.91049882E+01  0.00000000E+00  9.55249411E+00  9.55249411E+00 -1.91049882E+01
  0.00000000E+00  9.55249411E+00  9.55249411E+00 -1.91049882E+01  0.00000000E+00
  9.55249411E+00  9.55249411E+00 -1.91049882E+01  0.00000000E+00  9.55249411E+00
  9.55249411E+00 -1.91049882E+01  0.00000000E+00  9.55249411E+00  9.55249411E+00
 -1.91049882E+01  0.00000000E+00  9.55249411E+00  9.55249411E+00 -1.91049882E+01
  0.00000000E+00  9.55249411E+00  9.55249411E+00 -1.91049882E+01  0.00000000E+00
  9.55249411E+00  9.55249411E+00 -1.91049882E+01  0.00000000E+00  9.55249411E+00
  9.55249411E+00 -1.91049882E+01  0.00000000E+00  9.55249411E+00  9.55249411E+00
 -1.91049882E+01  0.00000000E+00  9.55249411E+00  9.55249411E+00 -1.91049882E+01
  0.00000000E+00  9.55249411E+00  9.55249411E+00 -1.91049882E+01  0.00000000E+00
  9.55249411E+00  9.55249411E+00 -1.91049882E+01  0.00000000E+00  9.55249411E+00
  9.55249411E+00 -1.91049882E+01  0.00000000E+00  9.55249411E+00  9.55249411E+00
 -1.91049882E+01  0.00000000E+00  9.55249411E+00  9.55249411E+00 -1.91049882E+01
  0.00000000E+00  9.55249411E+00  9.55249411E+00 -1.91049882E+01  0.00000000E+00
  9.55249411E+00  9.55249411E+00 -1.91049882E+01  0.00000000E+00  9.55249411E+00
  9.55249411E+00 -1.91049882E+01  0.00000000E+00  9.55249411E+00  9.55249411E+00
 -1.91049882E+01  0.00000000E+00  9.55249411E+00  9.55249411E+00 -1.91049882E+01
  0.00000000E+00  9.55249411E+00  9.55249411E+00 -1.91049882E+01  0.00000000E+00
  9.55249411E+00  9.55249411E+00 -1.91049882E+01  0.00000000E+00  9.55249411E+00
  9.55249411E+00 -1.91049882E+01  0.00000000E+00  9.55249411E+00  9.55249411E+00
 -1.91049882E+01  0.00000000E+00  9.55249411E+00  9.55249411E+00 -1.91049882E+01
  0.00000000E+00  9.55249411E+00  9.55249411E+00 -1.91049882E+01  0.00000000E+00
  9.55249411E+00  9.55249411E+00 -1.91049882E+01  0.00000000E+00  9.55249411E+00
  9.55249411E+00 -1.91049882E+01  0.00000000E+00  9.55249411E+00  9.55249411E+00
 -1.91049882E+01  0.00000000E+00  9.55249411E+00  9.55249411E+00 -1.91049882E+01
  0.00000000E+00  9.55249411E+00  9.55249411E+00 -1.91049882E+01  0.00000000E+00
  9.55249411E+00  9.55249411E+00 -1.91049882E+01  0.00000000E+00  9.55249411E+00
  9.55249411E+00 -1.91049882E+01  0.00000000E+00  9.55249411E+00  9.55249411E+00
 -1.91049882E+01  0.00000000E+00  9.55249411E+00  9.55249411E+00 -1.91049882E+01
  0.00000000E+00  9.55249411E+00  9.55249411E+00 -1.91049882E+01  0.00000000E+00
  9.55249411E+00  9.55249411E+00 -1.91049882E+01  0.00000000E+00  9.55249411E+00
  9.55249411E+00 -1.91049882E+01  0.00000000E+00  9.55249411E+00  9.55249411E+00
 -1.91049882E+01  0.00000000E+00  9.55249411E+00  9.55249411E+00 -1.91049882E+01
  0.00000000E+00  9.55249411E+00  9.55249411E+00 -1.91049882E+01  0.00000000E+00
  9.55249411E+00  9.55249411E+00 -1.91049882E+01  0.00000000E+00  9.55249411E+00
  9.55249411E+00 -1.91049882E+01  0.00000000E+00  9.55249411E+00  9.55249411E+00
 -1.91049882E+01  0.00000000E+00  9.55249411E+00  9.55249411E+00 -1.91049882E+01
  0.00000000E+00  9.55249411E+00  9.55249411E+00 -1.91049882E+01  0.00000000E+00
  9.55249411E+00  9.55249411E+00 -1.91049882E+01  0.00000000E+00  9.55249411E+00
  9.55249411E+00 -1.91049882E+01  0.00000000E+00  9.55249411E+00  9.55249411E+00
 -1.91049882E+01  0.00000000E+00  9.55249411E+00  9.55249411E+00 -1.91049882E+01
  0.00000000E+00  9.55249411E+00  9.55249411E+00 -1.91049882E+01  0.00000000E+00
  9.55249411E+00  9.55249411E+00 -1.91049882E+01  0.00000000E+00  9.55249411E+00
  9.55249411E+00 -1.91049882E+01  0.00000000E+00  9.55249411E+00  9.55249411E+00
 -1.91049882E+01  0.00000000E+00  9.55249411E+00  9.55249411E+00 -1.91049882E+01
  0.00000000E+00  9.55249411E+00  9.55249411E+00 -1.91049882E+01  0.00000000E+00
  9.55249411E+00  9.55249411E+00 -1.91049882E+01  0.00000000E+00  9.55249411E+00
  9.55249411E+00 -1.91049882E+01  0.00000000E+00  9.55249411E+00  9.55249411E+00
 -1.91049882E+01  0.00000000E+00  9.55249411E+00  9.55249411E+00 -1.91049882E+01
  0.00000000E+00  9.55249411E+00  9.55249411E+00 -1.91049882E+01  0.00000000E+00
  9.55249411E+00  9.55249411E+00 -1.91049882E+01  0.00000000E+00  9.55249411E+00
  9.55249411E+00 -1.91049882E+01  0.00000000E+00  9.55249411E+00  9.55249411E+00
 -1.91049882E+01  0.00000000E+00  9.55249411E+00  9.55249411E+00 -1.91049882E+01
  0.00000000E+00  9.55249411E+00  9.55249411E+00 -1.91049882E+01  0.00000000E+00
  9.55249411E+00  9.55249411E+00 -1.91049882E+01  0.00000000E+00  9.55249411E+00
  9.55249411E+00 -1.91049882E+01  0.00000000E+00  9.55249411E+00  9.55249411E+00
 -1.91049882E+01  0.00000000E+00  9.55249411E+00  9.55249411E+00 -1.91049882E+01
  0.00000000E+00  9.55249411E+00  9.55249411E+00 -1.91049882E+01  0.00000000E+00
  9.55249411E+00  9.55249411E+00 -1.91049882E+01  0.00000000E+00  9.55249411E+00
  9.55249411E+00 -1.91049882E+01  0.00000000E+00  9.55249411E+00  9.55249411E+00
 -1.91049882E+01  0.00000000E+00  9.55249411E+00  9.55249411E+00 -1.91049882E+01
  0.00000000E+00  9.55249411E+00  9.55249411E+00 -1.91049882E+01  0.00000000E+00
  9.55249411E+00  9.55249411E+00 -1.91049882E+01  0.00000000E+00  9.55249411E+00
  9.55249411E+00 -1.91049882E+01  0.00000000E+00  9.55249411E+00  9.55249411E+00
 -1.91049882E+01  0.00000000E+00  9.55249411E+00  9.55249411E+00 -1.91049882E+01
  0.00000000E+00  9.55249411E+00  9.55249411E+00 -1.91049882E+01  0.00000000E+00
  9.55249411E+00  9.55249411E+00 -1.91049882E+01  0.00000000E+00  9.55249411E+00
  9.55249411E+00 -1.91049882E+01  0.00000000E+00  9.55249411E+00  9.55249411E+00
 -1.91049882E+01  0.00000000E+00  9.55249411E+00  9.55249411E+00 -1.91049882E+01
  0.00000000E+00  9.55249411E+00  9.55249411E+00 -1.91049882E+01  0.00000000E+00
  9.55249411E+00  9.55249411E+00 -1.91049882E+01  0.00000000E+00  9.55249411E+00
  9.55249411E+00 -1.91049882E+01  0.00000000E+00  9.55249411E+00  9.55249411E+00
 -1.91049882E+01  0.00000000E+00  9.55249411E+00  9.55249411E+00 -1.91049882E+01
  0.00000000E+00  9.55249411E+00  9.55249411E+00 -1.91049882E+01  0.00000000E+00
  9.55249411E+00  9.55249411E+00 -1.91049882E+01  0.00000000E+00  9.55249411E+00
  9.55249411E+00 -1.91049882E+01  0.00000000E+00  9.55249411E+00  9.55249411E+00
 -1.91049882E+01  0.00000000E+00  9.55249411E+00  9.55249411E+00 -1.91049882E+01
  0.00000000E+00  9.55249411E+00  9.55249411E+00 -1.91049882E+01  0.00000000E+00
  9.55249411E+00  9.55249411E+00 -1.91049882E+01  0.00000000E+00  9.55249411E+00
  9.55249411E+00 -1.91049882E+01  0.00000000E+00  9.55249411E+00  9.55249411E+00
 -1.91049882E+01  0.00000000E+00  9.55249411E+00  9.55249411E+00 -1.91049882E+01
  0.00000000E+00  9.55249411E+00  9.55249411E+00 -1.91049882E+01  0.00000000E+00
  9.55249411E+00  9.55249411E+00 -1.91049882E+01  0.00000000E+00  9.55249411E+00
  9.55249411E+00 -1.91049882E+01  0.00000000E+00  9.55249411E+00  9.55249411E+00
 -1.91049882E+01  0.00000000E+00  9.55249411E+00  9.55249411E+00 -1.91049882E+01
  0.00000000E+00  9.55249411E+00  9.55249411E+00 -1.91049882E+01  0.00000000E+00
  9.55249411E+00  9.55249411E+00 -1.91049882E+01  0.00000000E+00  9.55249411E+00
  9.55249411E+00 -1.91049882E+01  0.00000000E+00  9.55249411E+00  9.55249411E+00
 -1.91049882E+01  0.00000000E+00  9.55249411E+00  9.55249411E+00 -1.91049882E+01
  0.00000000E+00  9.55249411E+00  9.55249411E+00 -1.91049882E+01  0.00000000E+00
  9.55249411E+00  9.55249411E+00 -1.91049882E+01  0.00000000E+00  9.55249411E+00
  9.55249411E+00 -1.91049882E+01  0.00000000E+00  9.55249411E+00  9.55249411E+00
 -1.91049882E+01  0.00000000E+00  9.55249411E+00  9.55249411E+00 -1.91049882E+01
  0.00000000E+00  9.55249411E+00  9.55249411E+00 -1.91049882E+01  0.00000000E+00
  9.55249411E+00  9.55249411E+00 -1.91049882E+01  0.00000000E+00  9.55249411E+00
  9.55249411E+00 -1.91049882E+01  0.00000000E+00  9.55249411E+00  9.55249411E+00
 -1.91049882E+01  0.00000000E+00  9.55249411E+00  9.55249411E+00 -1.91049882E+01
  0.00000000E+00  9.55249411E+00  9.55249411E+00 -1.91049882E+01  0.00000000E+00
  9.55249411E+00  9.55249411E+00 -1.91049882E+01  0.00000000E+00  9.55249411E+00
  9.55249411E+00 -1.91049882E+01  0.00000000E+00  9.55249411E+00  9.55249411E+00
 -1.91049882E+01  0.00000000E+00  9.55249411E+00  9.55249411E+00 -1.91049882E+01
  0.00000000E+00  9.55249411E+00  9.55249411E+00 -1.91049882E+01  0.00000000E+00
  9.55249411E+00  9.55249411E+00 -1.91049882E+01  0.00000000E+00  9.55249411E+00
  9.55249411E+00 -1.91049882E+01  0.00000000E+00  9.55249411E+00  9.55249411E+00
 -1.91049882E+01  0.00000000E+00  9.55249411E+00  9.55249411E+00 -1.91049882E+01
  0.00000000E+00  9.55249411E+00  9.55249411E+00 -1.91049882E+01  0.00000000E+00
  9.55249411E+00  9.55249411E+00 -1.91049882E+01  0.00000000E+00  9.55249411E+00
  9.55249411E+00 -1.91049882E+01  0.00000000E+00  9.55249411E+00  9.55249411E+00
 -1.91049882E+01  0.00000000E+00  9.55249411E+00  9.55249411E+00 -1.91049882E+01
  0.00000000E+00  9.55249411E+00  9.55249411E+00 -1.91049882E+01  0.00000000E+00
  9.55249411E+00  9.55249411E+00 -1.91049882E+01  0.00000000E+00  9.55249411E+00
  9.55249411E+00 -1.91049882E+01  0.00000000E+00  9.55249411E+00  9.55249411E+00
 -1.91049882E+01  0.00000000E+00  9.55249411E+00  9.55249411E+00 -1.91049882E+01
  0.00000000E+00  9.55249411E+00  9.55249411E+00 -1.91049882E+01  0.00000000E+00
  9.55249411E+00  9.55249411E+00 -1.91049882E+01  0.00000000E+00  9.55249411E+00
  9.55249411E+00 -1.91049882E+01  0.00000000E+00  9.55249411E+00  9.55249411E+00
 -1.91049882E+01  0.00000000E+00  9.55249411E+00  9.55249411E+00 -1.91049882E+01
  0.00000000E+00  9.55249411E+00  9.55249411E+00 -1.91049882E+01  0.00000000E+00
  9.55249411E+00  9.55249411E+00 -1.91049882E+01  0.00000000E+00  9.55249411E+00
  9.55249411E+00 -1.91049882E+01  0.00000000E+00  9.55249411E+00  9.55249411E+00
 -1.91049882E+01  0.00000000E+00  9.55249411E+00  9.55249411E+00 -1.91049882E+01
  0.00000000E+00  9.55249411E+00  9.55249411E+00 -1.91049882E+01  0.00000000E+00
  9.55249411E+00  9.55249411E+00 -1.91049882E+01  0.00000000E+00  9.55249411E+00
  9.55249411E+00 -1.91049882E+01  0.00000000E+00  9.55249411E+00  9.55249411E+00
 -1.91049882E+01  0.00000000E+00  9.55249411E+00  9.55249411E+00 -1.91049882E+01
  0.00000000E+00  9.55249411E+00  9.55249411E+00 -1.91049882E+01  0.00000000E+00
  9.55249411E+00  9.55249411E+00 -1.91049882E+01  0.00000000E+00  9.55249411E+00
  9.55249411E+00 -1.91049882E+01  0.00000000E+00  9.55249411E+00  9.55249411E+00
 -1.91049882E+01  0.00000000E+00  9.55249411E+00  9.55249411E+00 -1.91049882E+01
  0.00000000E+00  9.55249411E+00  9.55249411E+00 -1.91049882E+01  0.00000000E+00
  9.55249411E+00  9.55249411E+00 -1.91049882E+01  0.00000000E+00  9.55249411E+00
  9.55249411E+00 -1.91049882E+01  0.00000000E+00  9.55249411E+00  9.55249411E+00
 -1.91049882E+01  0.00000000E+00  9.55249411E+00  9.55249411E+00 -1.91049882E+01
  0.00000000E+00  9.55249411E+00  9.55249411E+00 -1.91049882E+01  0.00000000E+00
  9.55249411E+00  9.55249411E+00 -1.91049882E+01  0.00000000E+00  9.55249411E+00
  9.55249411E+00 -1.91049882E+01  0.00000000E+00  9.55249411E+00  9.55249411E+00
 -1.91049882E+01  0.00000000E+00  9.55249411E+00  9.55249411E+00 -1.91049882E+01
  0.00000000E+00  9.55249411E+00  9.55249411E+00 -1.91049882E+01  0.00000000E+00
  9.55249411E+00  9.55249411E+00 -1.91049882E+01  0.00000000E+00  9.55249411E+00
  9.55249411E+00 -1.91049882E+01  0.00000000E+00  9.55249411E+00  9.55249411E+00
 -1.91049882E+01  0.00000000E+00  9.55249411E+00  9.55249411E+00 -1.91049882E+01
  0.00000000E+00  9.55249411E+00  9.55249411E+00 -1.91049882E+01  0.00000000E+00
  9.55249411E+00  9.55249411E+00 -1.91049882E+01  0.00000000E+00  9.55249411E+00
  9.55249411E+00 -1.91049882E+01  0.00000000E+00  9.55249411E+00  9.55249411E+00
 -1.91049882E+01  0.00000000E+00  9.55249411E+00  9.55249411E+00 -1.91049882E+01
  0.00000000E+00  9.55249411E+00  9.55249411E+00 -1.91049882E+01  0.00000000E+00
  9.55249411E+00  9.55249411E+00 -1.91049882E+01  0.00000000E+00  9.55249411E+00
  9.55249411E+00 -1.91049882E+01  0.00000000E+00  9.55249411E+00  9.55249411E+00
 -1.91049882E+01  0.00000000E+00  9.55249411E+00  9.55249411E+00 -1.91049882E+01
  0.00000000E+00  9.55249411E+00  9.55249411E+00 -1.91049882E+01  0.00000000E+00
  9.55249411E+00  9.55249411E+00 -1.91049882E+01  0.00000000E+00  9.55249411E+00
  9.55249411E+00 -1.91049882E+01  0.00000000E+00  9.55249411E+00  9.55249411E+00
 -1.91049882E+01  0.00000000E+00  9.55249411E+00  9.55249411E+00 -1.91049882E+01
  0.00000000E+00  9.55249411E+00  9.55249411E+00 -1.91049882E+01  0.00000000E+00
  9.55249411E+00  9.55249411E+00 -1.91049882E+01  0.00000000E+00  9.55249411E+00
  9.55249411E+00 -1.91049882E+01  0.00000000E+00  9.55249411E+00  9.55249411E+00
 -1.91049882E+01  0.00000000E+00  9.55249411E+00  9.55249411E+00 -1.91049882E+01
  0.00000000E+00  9.55249411E+00  9.55249411E+00 -1.91049882E+01  0.00000000E+00
  9.55249411E+00  9.55249411E+00 -1.91049882E+01  0.00000000E+00  9.55249411E+00
  9.55249411E+00 -1.91049882E+01  0.00000000E+00  9.55249411E+00  9.55249411E+00
 -1.91049882E+01  0.00000000E+00  9.55249411E+00  9.55249411E+00 -1.91049882E+01
  0.00000000E+00  9.55249411E+00  9.55249411E+00 -1.91049882E+01  0.00000000E+00
  9.55249411E+00  9.55249411E+00 -1.91049882E+01  0.00000000E+00  9.55249411E+00
  9.55249411E+00 -1.91049882E+01  0.00000000E+00  9.55249411E+00  9.55249411E+00
 -1.91049882E+01  0.00000000E+00  9.55249411E+00  9.55249411E+00 -1.91049882E+01
  0.00000000E+00  9.55249411E+00  9.55249411E+00 -1.91049882E+01  0.00000000E+00
  9.55249411E+00  9.55249411E+00 -1.91049882E+01  0.00000000E+00  9.55249411E+00
  9.55249411E+00 -1.91049882E+01  0.00000000E+00  9.55249411E+00  9.55249411E+00
 -1.91049882E+01  0.00000000E+00  9.55249411E+00  9.55249411E+00 -1.91049882E+01
  0.00000000E+00  9.55249411E+00  9.55249411E+00 -1.91049882E+01  0.00000000E+00
  9.55249411E+00  9.55249411E+00 -1.91049882E+01  0.00000000E+00  9.55249411E+00
  9.55249411E+00 -1.91049882E+01  0.00000000E+00  9.55249411E+00  9.55249411E+00
 -1.91049882E+01  0.00000000E+00  9.55249411E+00  9.55249411E+00 -1.91049882E+01
  0.00000000E+00  9.55249411E+00  9.55249411E+00 -1.91049882E+01  0.00000000E+00
  9.55249411E+00  9.55249411E+00 -1.91049882E+01  0.00000000E+00  9.55249411E+00
  9.55249411E+00 -1.91049882E+01  0.00000000E+00  9.55249411E+00  9.55249411E+00
 -1.91049882E+01  0.00000000E+00  9.55249411E+00  9.55249411E+00 -1.91049882E+01
  0.00000000E+00  9.55249411E+00  9.55249411E+00 -1.91049882E+01  0.00000000E+00
  9.55249411E+00  9.55249411E+00 -1.91049882E+01  0.00000000E+00  9.55249411E+00
  9.55249411E+00 -1.91049882E+01  0.00000000E+00  9.55249411E+00  9.55249411E+00
 -1.91049882E+01  0.00000000E+00  9.55249411E+00  9.55249411E+00 -1.91049882E+01
  0.00000000E+00  9.55249411E+00  9.55249411E+00 -1.91049882E+01  0.00000000E+00
  9.55249411E+00  9.55249411E+00 -1.91049882E+01  0.00000000E+00  9.55249411E+00
  9.55249411E+00 -1.91049882E+01  0.00000000E+00  9.55249411E+00  9.55249411E+00
 -1.91049882E+01  0.00000000E+00  9.55249411E+00  9.55249411E+00 -1.91049882E+01
  0.00000000E+00  9.55249411E+00  9.55249411E+00 -1.91049882E+01  0.00000000E+00
  9.55249411E+00  9.55249411E+00 -1.91049882E+01  0.00000000E+00  9.55249411E+00
  9.55249411E+00 -1.91049882E+01  0.00000000E+00  9.55249411E+00  9.55249411E+00
 -1.91049882E+01  0.00000000E+00  9.55249411E+00  9.55249411E+00 -1.91049882E+01
  0.00000000E+00  9.55249411E+00  9.55249411E+00 -1.91049882E+01  0.00000000E+00
  9.55249411E+00  9.55249411E+00 -1.91049882E+01  0.00000000E+00  9.55249411E+00
  9.55249411E+00 -1.91049882E+01  0.00000000E+00  9.55249411E+00  9.55249411E+00
 -1.91049882E+01  0.00000000E+00  9.55249411E+00  9.55249411E+00 -1.91049882E+01
  0.00000000E+00  9.55249411E+00  9.55249411E+00 -1.91049882E+01  0.00000000E+00
  9.55249411E+00  9.55249411E+00 -1.91049882E+01  0.00000000E+00  9.55249411E+00
  9.55249411E+00 -1.91049882E+01  0.00000000E+00  9.55249411E+00  9.55249411E+00
 -1.91049882E+01  0.00000000E+00  9.55249411E+00  9.55249411E+00 -1.91049882E+01
  0.00000000E+00  9.55249411E+00  9.55249411E+00 -1.91049882E+01  0.00000000E+00
  9.55249411E+00  9.55249411E+00 -1.91049882E+01  0.00000000E+00  9.55249411E+00
  9.55249411E+00 -1.91049882E+01  0.00000000E+00  9.55249411E+00  9.55249411E+00
 -1.91049882E+01  0.00000000E+00  9.55249411E+00  9.55249411E+00 -1.91049882E+01
  0.00000000E+00  9.55249411E+00  9.55249411E+00 -1.91049882E+01  0.00000000E+00
  9.55249411E+00  9.55249411E+00 -1.91049882E+01  0.00000000E+00  9.55249411E+00
  9.55249411E+00 -1.91049882E+01  0.00000000E+00  9.55249411E+00  9.55249411E+00
 -1.91049882E+01  0.00000000E+00  9.55249411E+00  9.55249411E+00 -1.91049882E+01
  0.00000000E+00  9.55249411E+00  9.55249411E+00 -1.91049882E+01  0.00000000E+00
  9.55249411E+00  9.55249411E+00 -1.91049882E+01  0.00000000E+00  9.55249411E+00
  9.55249411E+00 -1.91049882E+01  0.00000000E+00  9.55249411E+00  9.55249411E+00
 -1.91049882E+01  0.00000000E+00  9.55249411E+00  9.55249411E+00 -1.91049882E+01
  0.00000000E+00  9.55249411E+00  9.55249411E+00 -1.91049882E+01  0.00000000E+00
  9.55249411E+00  9.55249411E+00 -1.91049882E+01  0.00000000E+00  9.55249411E+00
  9.55249411E+00 -1.91049882E+01  0.00000000E+00  9.55249411E+00  9.55249411E+00
 -1.91049882E+01  0.00000000E+00  9.55249411E+00  9.55249411E+00 -1.91049882E+01
  0.00000000E+00  9.55249411E+00  9.55249411E+00 -1.91049882E+01  0.00000000E+00
  9.55249411E+00  9.55249411E+00 -1.91049882E+01  0.00000000E+00  9.55249411E+00
  9.55249411E+00 -1.91049882E+01  0.00000000E+00  9.55249411E+00  9.55249411E+00
 -1.91049882E+01  0.00000000E+00  9.55249411E+00  9.55249411E+00 -1.91049882E+01
  0.00000000E+00  9.55249411E+00  9.55249411E+00 -1.91049882E+01  0.00000000E+00
  9.55249411E+00  9.55249411E+00 -1.91049882E+01  0.00000000E+00  9.55249411E+00
  9.55249411E+00 -1.91049882E+01  0.00000000E+00  9.55249411E+00  9.55249411E+00
 -1.91049882E+01  0.00000000E+00  9.55249411E+00  9.55249411E+00 -1.91049882E+01
  0.00000000E+00  9.55249411E+00  9.55249411E+00 -1.91049882E+01  0.00000000E+00
  9.55249411E+00  9.55249411E+00 -1.91049882E+01  0.00000000E+00  9.55249411E+00
  9.55249411E+00 -1.91049882E+01  0.00000000E+00  9.55249411E+00  9.55249411E+00
 -1.91049882E+01  0.00000000E+00  9.55249411E+00  9.55249411E+00 -1.91049882E+01
  0.00000000E+00  9.55249411E+00  9.55249411E+00 -1.91049882E+01  0.00000000E+00
  9.55249411E+00  9.55249411E+00 -1.91049882E+01  0.00000000E+00  9.55249411E+00
  9.55249411E+00 -1.91049882E+01  0.00000000E+00  9.55249411E+00  9.55249411E+00
 -1.91049882E+01  0.00000000E+00  9.55249411E+00  9.55249411E+00 -1.91049882E+01
  0.00000000E+00  9.55249411E+00  9.55249411E+00 -1.91049882E+01  0.00000000E+00
  9.55249411E+00  9.55249411E+00 -1.91049882E+01  0.00000000E+00  9.55249411E+00
  9.55249411E+00 -1.91049882E+01  0.00000000E+00  9.55249411E+00  9.55249411E+00
 -1.91049882E+01  0.00000000E+00  9.55249411E+00  9.55249411E+00 -1.91049882E+01
  0.00000000E+00  9.55249411E+00  9.55249411E+00 -1.91049882E+01  0.00000000E+00
  9.55249411E+00  9.55249411E+00 -1.91049882E+01  0.00000000E+00  9.55249411E+00
  9.55249411E+00 -1.91049882E+01  0.00000000E+00  9.55249411E+00  9.55249411E+00
 -1.91049882E+01  0.00000000E+00  9.55249411E+00  9.55249411E+00 -1.91049882E+01
  0.00000000E+00  9.55249411E+00  9.55249411E+00 -1.91049882E+01  0.00000000E+00
  9.55249411E+00  9.55249411E+00 -1.91049882E+01  0.00000000E+00  9.55249411E+00
  9.55249411E+00 -1.91049882E+01  0.00000000E+00  9.55249411E+00  9.55249411E+00
 -1.91049882E+01  0.00000000E+00  9.55249411E+00  9.55249411E+00 -1.91049882E+01
  0.00000000E+00  9.55249411E+00  9.55249411E+00 -1.91049882E+01  0.00000000E+00
  9.55249411E+00  9.55249411E+00 -1.91049882E+01  0.00000000E+00  9.55249411E+00
  9.55249411E+00 -1.91049882E+01  0.00000000E+00  9.55249411E+00  9.55249411E+00
 -1.91049882E+01  0.00000000E+00  9.55249411E+00  9.55249411E+00 -1.91049882E+01
  0.00000000E+00  9.55249411E+00  9.55249411E+00 -1.91049882E+01  0.00000000E+00
  9.55249411E+00  9.55249411E+00 -1.91049882E+01  0.00000000E+00  9.55249411E+00
  9.55249411E+00 -1.91049882E+01  0.00000000E+00  9.55249411E+00  9.55249411E+00
 -1.91049882E+01  0.00000000E+00  9.55249411E+00  9.55249411E+00 -1.91049882E+01
  0.00000000E+00  9.55249411E+00  9.55249411E+00 -1.91049882E+01  0.00000000E+00
  9.55249411E+00  9.55249411E+00 -1.91049882E+01  0.00000000E+00  9.55249411E+00
  9.55249411E+00 -1.91049882E+01  0.00000000E+00  9.55249411E+00  9.55249411E+00
 -1.91049882E+01  0.00000000E+00  9.55249411E+00  9.55249411E+00 -1.91049882E+01
  0.00000000E+00  9.55249411E+00  9.55249411E+00 -1.91049882E+01  0.00000000E+00
  9.55249411E+00  9.55249411E+00 -1.91049882E+01  0.00000000E+00  9.55249411E+00
  9.55249411E+00 -1.91049882E+01  0.00000000E+00  9.55249411E+00  9.55249411E+00
 -1.91049882E+01  0.00000000E+00  9.55249411E+00  9.55249411E+00 -1.91049882E+01
  0.00000000E+00  9.55249411E+00  9.55249411E+00 -1.91049882E+01  0.00000000E+00
  9.55249411E+00  9.55249411E+00 -1.91049882E+01  0.00000000E+00  9.55249411E+00
  9.55249411E+00 -1.91049882E+01  0.00000000E+00  9.55249411E+00  9.55249411E+00
 -1.91049882E+01  0.00000000E+00  9.55249411E+00  9.55249411E+00 -1.91049882E+01
  0.00000000E+00  9.55249411E+00  9.55249411E+00 -1.91049882E+01  0.00000000E+00
  9.55249411E+00  9.55249411E+00 -1.91049882E+01  0.00000000E+00  9.55249411E+00
  9.55249411E+00 -1.91049882E+01  0.00000000E+00  9.55249411E+00  9.55249411E+00
 -1.91049882E+01  0.00000000E+00  9.55249411E+00  9.55249411E+00 -1.91049882E+01
  0.00000000E+00  9.55249411E+00  9.55249411E+00 -1.91049882E+01  0.00000000E+00
  9.55249411E+00  9.55249411E+00 -1.91049882E+01  0.00000000E+00  9.55249411E+00
  9.55249411E+00 -1.91049882E+01  0.00000000E+00  9.55249411E+00  9.55249411E+00
 -1.91049882E+01  0.00000000E+00  9.55249411E+00  9.55249411E+00 -1.91049882E+01
  0.00000000E+00  9.55249411E+00  9.55249411E+00 -1.91049882E+01  0.00000000E+00
  9.55249411E+00  9.55249411E+00 -1.91049882E+01  0.00000000E+00  9.55249411E+00
  9.55249411E+00 -1.91049882E+01  0.00000000E+00  9.55249411E+00  9.55249411E+00
 -1.91049882E+01  0.00000000E+00  9.55249411E+00  9.55249411E+00 -1.91049882E+01
  0.00000000E+00  9.55249411E+00  9.55249411E+00 -1.91049882E+01  0.00000000E+00
  9.55249411E+00  9.55249411E+00 -1.91049882E+01  0.00000000E+00  9.55249411E+00
  9.55249411E+00 -1.91049882E+01  0.00000000E+00  9.55249411E+00  9.55249411E+00
 -1.91049882E+01  0.00000000E+00  9.55249411E+00  9.55249411E+00 -1.91049882E+01
  0.00000000E+00  9.55249411E+00  9.55249411E+00 -1.91049882E+01  0.00000000E+00
  9.55249411E+00  9.55249411E+00 -1.91049882E+01  0.00000000E+00  9.55249411E+00
  9.55249411E+00 -1.91049882E+01  0.00000000E+00  9.55249411E+00  9.55249411E+00
 -1.91049882E+01  0.00000000E+00  9.55249411E+00  9.55249411E+00 -1.91049882E+01
  0.00000000E+00  9.55249411E+00  9.55249411E+00 -1.91049882E+01  0.00000000E+00
  9.55249411E+00  9.55249411E+00 -1.91049882E+01  0.00000000E+00  9.55249411E+00
  9.55249411E+00 -1.91049882E+01  0.00000000E+00  9.55249411E+00  9.55249411E+00
 -1.91049882E+01  0.00000000E+00  9.55249411E+00  9.55249411E+00 -1.91049882E+01
  0.00000000E+00  9.55249411E+00  9.55249411E+00 -1.91049882E+01  0.00000000E+00
  9.55249411E+00  9.55249411E+00 -1.91049882E+01  0.00000000E+00  9.55249411E+00
  9.55249411E+00 -1.91049882E+01  0.00000000E+00  9.55249411E+00  9.55249411E+00
 -1.91049882E+01  0.00000000E+00  9.55249411E+00  9.55249411E+00 -1.91049882E+01
  0.00000000E+00  9.55249411E+00  9.55249411E+00 -1.91049882E+01  0.00000000E+00
  9.55249411E+00  9.55249411E+00 -1.91049882E+01  0.00000000E+00  9.55249411E+00
  9.55249411E+00 -1.91049882E+01  0.00000000E+00  9.55249411E+00  9.55249411E+00
 -1.91049882E+01  0.00000000E+00  9.55249411E+00  9.55249411E+00 -1.91049882E+01
  0.00000000E+00  9.55249411E+00  9.55249411E+00 -1.91049882E+01  0.00000000E+00
  9.55249411E+00  9.55249411E+00 -1.91049882E+01  0.00000000E+00  9.55249411E+00
  9.55249411E+00 -1.91049882E+01  0.00000000E+00  9.55249411E+00  9.55249411E+00
 -1.91049882E+01  0.00000000E+00  9.55249411E+00  9.55249411E+00 -1.91049882E+01
  0.00000000E+00  9.55249411E+00  9.55249411E+00 -1.91049882E+01  0.00000000E+00
  9.55249411E+00  9.55249411E+00 -1.91049882E+01  0.00000000E+00  9.55249411E+00
  9.55249411E+00 -1.91049882E+01  0.00000000E+00  9.55249411E+00  9.55249411E+00
 -1.91049882E+01  0.00000000E+00  9.55249411E+00  9.55249411E+00 -1.91049882E+01
  0.00000000E+00  9.55249411E+00  9.55249411E+00 -1.91049882E+01  0.00000000E+00
  9.55249411E+00  9.55249411E+00 -1.91049882E+01  0.00000000E+00  9.55249411E+00
  9.55249411E+00 -1.91049882E+01  0.00000000E+00  9.55249411E+00  9.55249411E+00
 -1.91049882E+01  0.00000000E+00  9.55249411E+00  9.55249411E+00 -1.91049882E+01
  0.00000000E+00  9.55249411E+00  9.55249411E+00 -1.91049882E+01  0.00000000E+00
  9.55249411E+00  9.55249411E+00 -1.91049882E+01  0.00000000E+00  9.55249411E+00
  9.55249411E+00 -1.91049882E+01  0.00000000E+00  9.55249411E+00  9.55249411E+00
 -1.91049882E+01  0.00000000E+00  9.55249411E+00  9.55249411E+00 -1.91049882E+01
  0.00000000E+00  9.55249411E+00  9.55249411E+00 -1.91049882E+01  0.00000000E+00
  9.55249411E+00  9.55249411E+00 -1.91049882E+01  0.00000000E+00  9.55249411E+00
  9.55249411E+00 -1.91049882E+01  0.00000000E+00  9.55249411E+00  9.55249411E+00
 -1.91049882E+01  0.00000000E+00  9.55249411E+00  9.55249411E+00 -1.91049882E+01
  0.00000000E+00  9.55249411E+00  9.55249411E+00 -1.91049882E+01  0.00000000E+00
  9.55249411E+00  9.55249411E+00 -1.91049882E+01  0.00000000E+00  9.55249411E+00
  9.55249411E+00 -1.91049882E+01  0.00000000E+00  9.55249411E+00  9.55249411E+00
 -1.91049882E+01  0.00000000E+00  9.55249411E+00  9.55249411E+00 -1.91049882E+01
  0.00000000E+00  9.55249411E+00  9.55249411E+00 -1.91049882E+01  0.00000000E+00
  9.55249411E+00  9.55249411E+00 -1.91049882E+01  0.00000000E+00  9.55249411E+00
  9.55249411E+00 -1.91049882E+01  0.00000000E+00  9.55249411E+00  9.55249411E+00
 -1.91049882E+01  0.00000000E+00  9.55249411E+00  9.55249411E+00 -1.91049882E+01
  0.00000000E+00  9.55249411E+00  9.55249411E+00 -1.91049882E+01  0.00000000E+00
  9.55249411E+00  9.55249411E+00 -1.91049882E+01  0.00000000E+00  9.55249411E+00
  9.55249411E+00 -1.91049882E+01  0.00000000E+00  9.55249411E+00  9.55249411E+00
 -1.91049882E+01  0.00000000E+00  9.55249411E+00  9.55249411E+00 -1.91049882E+01
  0.00000000E+00  9.55249411E+00  9.55249411E+00 -1.91049882E+01  0.00000000E+00
  9.55249411E+00  9.55249411E+00 -1.91049882E+01  0.00000000E+00  9.55249411E+00
  9.55249411E+00 -1.91049882E+01  0.00000000E+00  9.55249411E+00  9.55249411E+00
 -1.91049882E+01  0.00000000E+00  9.55249411E+00  9.55249411E+00 -1.91049882E+01
  0.00000000E+00  9.55249411E+00  9.55249411E+00 -1.91049882E+01  0.00000000E+00
  9.55249411E+00  9.55249411E+00 -1.91049882E+01  0.00000000E+00  9.55249411E+00
  9.55249411E+00 -1.91049882E+01  0.00000000E+00  9.55249411E+00  9.55249411E+00
 -1.91049882E+01  0.00000000E+00  9.55249411E+00  9.55249411E+00 -1.91049882E+01
  0.00000000E+00  9.55249411E+00  9.55249411E+00 -1.91049882E+01  0.00000000E+00
  9.55249411E+00  9.55249411E+00 -1.91049882E+01  0.00000000E+00  9.55249411E+00
  9.55249411E+00 -1.91049882E+01  0.00000000E+00  9.55249411E+00  9.55249411E+00
 -1.91049882E+01  0.00000000E+00  9.55249411E+00  9.55249411E+00 -1.91049882E+01
  0.00000000E+00  9.55249411E+00  9.55249411E+00 -1.91049882E+01  0.00000000E+00
  9.55249411E+00  9.55249411E+00 -1.91049882E+01  0.00000000E+00  9.55249411E+00
  9.55249411E+00 -1.91049882E+01  0.00000000E+00  9.55249411E+00  9.55249411E+00
 -1.91049882E+01  0.00000000E+00  9.55249411E+00  9.55249411E+00 -1.91049882E+01
  0.00000000E+00  9.55249411E+00  9.55249411E+00 -1.91049882E+01  0.00000000E+00
  9.55249411E+00  9.55249411E+00 -1.91049882E+01  0.00000000E+00  9.55249411E+00
  9.55249411E+00 -1.91049882E+01  0.00000000E+00  9.55249411E+00  9.55249411E+00
 -1.91049882E+01  0.00000000E+00  9.55249411E+00  9.55249411E+00 -1.91049882E+01
  0.00000000E+00  9.55249411E+00  9.55249411E+00 -1.91049882E+01  0.00000000E+00
  9.55249411E+00  9.55249411E+00 -1.91049882E+01  0.00000000E+00  9.55249411E+00
  9.55249411E+00 -1.91049882E+01  0.00000000E+00  9.55249411E+00  9.55249411E+00
 -1.91049882E+01  0.00000000E+00  9.55249411E+00  9.55249411E+00 -1.91049882E+01
  0.00000000E+00  9.55249411E+00  9.55249411E+00 -1.91049882E+01  0.00000000E+00
  9.55249411E+00  9.55249411E+00 -1.91049882E+01  0.00000000E+00  9.55249411E+00
  9.55249411E+00 -1.91049882E+01  0.00000000E+00  9.55249411E+00  9.55249411E+00
 -1.91049882E+01  0.00000000E+00  9.55249411E+00  9.55249411E+00 -1.91049882E+01
  0.00000000E+00  9.55249411E+00  9.55249411E+00 -1.91049882E+01  0.00000000E+00
  9.55249411E+00  9.55249411E+00 -1.91049882E+01  0.00000000E+00  9.55249411E+00
  9.55249411E+00 -1.91049882E+01  0.00000000E+00  9.55249411E+00  9.55249411E+00
 -1.91049882E+01  0.00000000E+00  9.55249411E+00  9.55249411E+00 -1.91049882E+01
  0.00000000E+00  9.55249411E+00  9.55249411E+00 -1.91049882E+01  0.00000000E+00
  9.55249411E+00  9.55249411E+00 -1.91049882E+01  0.00000000E+00  9.55249411E+00
  9.55249411E+00 -1.91049882E+01  0.00000000E+00  9.55249411E+00  9.55249411E+00
 -1.91049882E+01  0.00000000E+00  9.55249411E+00  9.55249411E+00 -1.91049882E+01
  0.00000000E+00  9.55249411E+00  9.55249411E+00 -1.91049882E+01  0.00000000E+00
  9.55249411E+00  9.55249411E+00 -1.91049882E+01  0.00000000E+00  9.55249411E+00
  9.55249411E+00 -1.91049882E+01  0.00000000E+00  9.55249411E+00  9.55249411E+00
 -1.91049882E+01  0.00000000E+00  9.55249411E+00  9.55249411E+00 -1.91049882E+01
  0.00000000E+00  9.55249411E+00  9.55249411E+00 -1.91049882E+01  0.00000000E+00
  9.55249411E+00  9.55249411E+00 -1.91049882E+01  0.00000000E+00  9.55249411E+00
  9.55249411E+00 -1.91049882E+01  0.00000000E+00  9.55249411E+00  9.55249411E+00
 -1.91049882E+01  0.00000000E+00  9.55249411E+00  9.55249411E+00 -1.91049882E+01
  0.00000000E+00  9.55249411E+00  9.55249411E+00 -1.91049882E+01  0.00000000E+00
  9.55249411E+00  9.55249411E+00 -1.91049882E+01  0.00000000E+00  9.55249411E+00
  9.55249411E+00 -1.91049882E+01  0.00000000E+00  9.55249411E+00  9.55249411E+00
 -1.91049882E+01  0.00000000E+00  9.55249411E+00  9.55249411E+00 -1.91049882E+01
  0.00000000E+00  9.55249411E+00  9.55249411E+00 -1.91049882E+01  0.00000000E+00
  9.55249411E+00  9.55249411E+00 -1.91049882E+01  0.00000000E+00  9.55249411E+00
  9.55249411E+00 -1.91049882E+01  0.00000000E+00  9.55249411E+00  9.55249411E+00
 -1.91049882E+01  0.00000000E+00  9.55249411E+00  9.55249411E+00 -1.91049882E+01
  0.00000000E+00  9.55249411E+00  9.55249411E+00 -1.91049882E+01  0.00000000E+00
  9.55249411E+00  9.55249411E+00 -1.91049882E+01  0.00000000E+00  9.55249411E+00
  9.55249411E+00 -1.91049882E+01  0.00000000E+00  9.55249411E+00  9.55249411E+00
 -1.91049882E+01  0.00000000E+00  9.55249411E+00  9.55249411E+00 -1.91049882E+01
  0.00000000E+00  9.55249411E+00  9.55249411E+00 -1.91049882E+01  0.00000000E+00
  9.55249411E+00  9.55249411E+00 -1.91049882E+01  0.00000000E+00  9.55249411E+00
  9.55249411E+00 -1.91049882E+01  0.00000000E+00  9.55249411E+00  9.55249411E+00
 -1.91049882E+01  0.00000000E+00  9.55249411E+00  9.55249411E+00 -1.91049882E+01
  0.00000000E+00  9.55249411E+00  9.55249411E+00 -1.91049882E+01  0.00000000E+00
  9.55249411E+00  9.55249411E+00 -1.91049882E+01  0.00000000E+00  9.55249411E+00
  9.55249411E+00 -1.91049882E+01  0.00000000E+00  9.55249411E+00  9.55249411E+00
 -1.91049882E+01  0.00000000E+00  9.55249411E+00  9.55249411E+00 -1.91049882E+01
  0.00000000E+00  9.55249411E+00  9.55249411E+00 -1.91049882E+01  0.00000000E+00
  9.55249411E+00  9.55249411E+00 -1.91049882E+01  0.00000000E+00  9.55249411E+00
  9.55249411E+00 -1.91049882E+01  0.00000000E+00  9.55249411E+00  9.55249411E+00
 -1.91049882E+01  0.00000000E+00  9.55249411E+00  9.55249411E+00 -1.91049882E+01
  0.00000000E+00  9.55249411E+00  9.55249411E+00 -1.91049882E+01  0.00000000E+00
  9.55249411E+00  9.55249411E+00 -1.91049882E+01  0.00000000E+00  9.55249411E+00
  9.55249411E+00 -1.91049882E+01  0.00000000E+00  9.55249411E+00  9.55249411E+00
 -1.91049882E+01  0.00000000E+00  9.55249411E+00  9.55249411E+00 -1.91049882E+01
  0.00000000E+00  9.55249411E+00  9.55249411E+00 -1.91049882E+01  0.00000000E+00
  9.55249411E+00  9.55249411E+00 -1.91049882E+01  0.00000000E+00  9.55249411E+00
  9.55249411E+00 -1.91049882E+01  0.00000000E+00  9.55249411E+00  9.55249411E+00
 -1.91049882E+01  0.00000000E+00  9.55249411E+00  9.55249411E+00 -1.91049882E+01
  0.00000000E+00  9.55249411E+00  9.55249411E+00 -1.91049882E+01  0.00000000E+00
  9.55249411E+00  9.55249411E+00 -1.91049882E+01  0.00000000E+00  9.55249411E+00
  9.55249411E+00 -1.91049882E+01  0.00000000E+00  9.55249411E+00  9.55249411E+00
 -1.91049882E+01  0.00000000E+00  9.55249411E+00  9.55249411E+00 -1.91049882E+01
  0.00000000E+00  9.55249411E+00  9.55249411E+00 -1.91049882E+01  0.00000000E+00
  9.55249411E+00  9.55249411E+00 -1.91049882E+01  0.00000000E+00  9.55249411E+00
  9.55249411E+00 -1.91049882E+01  0.00000000E+00  9.55249411E+00  9.55249411E+00
 -1.91049882E+01  0.00000000E+00  9.55249411E+00  9.55249411E+00 -1.91049882E+01
  0.00000000E+00  9.55249411E+00  9.55249411E+00 -1.91049882E+01  0.00000000E+00
  9.55249411E+00  9.55249411E+00 -1.91049882E+01  0.00000000E+00  9.55249411E+00
  9.55249411E+00 -1.91049882E+01  0.00000000E+00  9.55249411E+00  9.55249411E+00
 -1.91049882E+01  0.00000000E+00  9.55249411E+00  9.55249411E+00 -1.91049882E+01
  0.00000000E+00  9.55249411E+00  9.55249411E+00 -1.91049882E+01  0.00000000E+00
  9.55249411E+00  9.55249411E+00 -1.91049882E+01  0.00000000E+00  9.55249411E+00
  9.55249411E+00 -1.91049882E+01  0.00000000E+00  9.55249411E+00  9.55249411E+00
 -1.91049882E+01  0.00000000E+00  9.55249411E+00  9.55249411E+00 -1.91049882E+01
  0.00000000E+00  9.55249411E+00  9.55249411E+00 -1.91049882E+01  0.00000000E+00
  9.55249411E+00  9.55249411E+00 -1.91049882E+01  0.00000000E+00  9.55249411E+00
  9.55249411E+00 -1.91049882E+01  0.00000000E+00  9.55249411E+00  9.55249411E+00
 -1.91049882E+01  0.00000000E+00  9.55249411E+00  9.55249411E+00 -1.91049882E+01
  0.00000000E+00  9.55249411E+00  9.55249411E+00 -1.91049882E+01  0.00000000E+00
  9.55249411E+00  9.55249411E+00 -1.91049882E+01  0.00000000E+00  9.55249411E+00
  9.55249411E+00 -1.91049882E+01  0.00000000E+00  9.55249411E+00  9.55249411E+00
 -1.91049882E+01  0.00000000E+00  9.55249411E+00  9.55249411E+00 -1.91049882E+01
  0.00000000E+00  9.55249411E+00  9.55249411E+00 -1.91049882E+01  0.00000000E+00
  9.55249411E+00  9.55249411E+00 -1.91049882E+01  0.00000000E+00  9.55249411E+00
  9.55249411E+00 -1.91049882E+01  0.00000000E+00  9.55249411E+00  9.55249411E+00
 -1.91049882E+01  0.00000000E+00  9.55249411E+00  9.55249411E+00 -1.91049882E+01
  0.00000000E+00  9.55249411E+00  9.55249411E+00 -1.91049882E+01  0.00000000E+00
  9.55249411E+00  9.55249411E+00 -1.91049882E+01  0.00000000E+00  9.55249411E+00
  9.55249411E+00 -1.91049882E+01  0.00000000E+00  9.55249411E+00  9.55249411E+00
 -1.91049882E+01  0.00000000E+00  9.55249411E+00  9.55249411E+00 -1.91049882E+01
  0.00000000E+00  9.55249411E+00  9.55249411E+00 -1.91049882E+01  0.00000000E+00
  9.55249411E+00  9.55249411E+00 -1.91049882E+01  0.00000000E+00  9.55249411E+00
  9.55249411E+00 -1.91049882E+01  0.00000000E+00  9.55249411E+00  9.55249411E+00
 -1.91049882E+01  0.00000000E+00  9.55249411E+00  9.55249411E+00 -1.91049882E+01
  0.00000000E+00  9.55249411E+00  9.55249411E+00 -1.91049882E+01  0.00000000E+00
  9.55249411E+00  9.55249411E+00 -1.91049882E+01  0.00000000E+00  9.55249411E+00
  9.55249411E+00 -1.91049882E+01  0.00000000E+00  9.55249411E+00  9.55249411E+00
 -1.91049882E+01  0.00000000E+00  9.55249411E+00  9.55249411E+00 -1.91049882E+01
  0.00000000E+00  9.55249411E+00  9.55249411E+00 -1.91049882E+01  0.00000000E+00
  9.55249411E+00  9.55249411E+00 -1.91049882E+01  0.00000000E+00  9.55249411E+00
  9.55249411E+00 -1.91049882E+01  0.00000000E+00  9.55249411E+00  9.55249411E+00
 -1.91049882E+01  0.00000000E+00  9.55249411E+00  9.55249411E+00 -1.91049882E+01
  0.00000000E+00  9.55249411E+00  9.55249411E+00 -1.91049882E+01  0.00000000E+00
  9.55249411E+00  9.55249411E+00 -1.91049882E+01  0.00000000E+00  9.55249411E+00
  9.55249411E+00 -1.91049882E+01  0.00000000E+00  9.55249411E+00  9.55249411E+00
 -1.91049882E+01  0.00000000E+00  9.55249411E+00  9.55249411E+00 -1.91049882E+01
  0.00000000E+00  9.55249411E+00  9.55249411E+00 -1.91049882E+01  0.00000000E+00
  9.55249411E+00  9.55249411E+00 -1.91049882E+01  0.00000000E+00  9.55249411E+00
  9.55249411E+00 -1.91049882E+01  0.00000000E+00  9.55249411E+00  9.55249411E+00
 -1.91049882E+01  0.00000000E+00  9.55249411E+00  9.55249411E+00 -1.91049882E+01
  0.00000000E+00  9.55249411E+00  9.55249411E+00 -1.91049882E+01  0.00000000E+00
  9.55249411E+00  9.55249411E+00 -1.91049882E+01  0.00000000E+00  9.55249411E+00
  9.55249411E+00 -1.91049882E+01  0.00000000E+00  9.55249411E+00  9.55249411E+00
 -1.91049882E+01  0.00000000E+00  9.55249411E+00  9.55249411E+00 -1.91049882E+01
  0.00000000E+00  9.55249411E+00  9.55249411E+00 -1.91049882E+01  0.00000000E+00
  9.55249411E+00  9.55249411E+00 -1.91049882E+01  0.00000000E+00  9.55249411E+00
  9.55249411E+00 -1.91049882E+01  0.00000000E+00  9.55249411E+00  9.55249411E+00
 -1.91049882E+01  0.00000000E+00  9.55249411E+00  9.55249411E+00 -1.91049882E+01
  0.00000000E+00  9.55249411E+00  9.55249411E+00 -1.91049882E+01  0.00000000E+00
  9.55249411E+00  9.55249411E+00 -1.91049882E+01  0.00000000E+00  9.55249411E+00
  9.55249411E+00 -1.91049882E+01  0.00000000E+00  9.55249411E+00  9.55249411E+00
 -1.91049882E+01  0.00000000E+00  9.55249411E+00  9.55249411E+00 -1.91049882E+01
  0.00000000E+00  9.55249411E+00  9.55249411E+00 -1.91049882E+01  0.00000000E+00
  9.55249411E+00  9.55249411E+00 -1.91049882E+01  0.00000000E+00  9.55249411E+00
  9.55249411E+00 -1.91049882E+01  0.00000000E+00  9.55249411E+00  9.55249411E+00
 -1.91049882E+01  0.00000000E+00  9.55249411E+00  9.55249411E+00 -1.91049882E+01
  0.00000000E+00  9.55249411E+00  9.55249411E+00 -1.91049882E+01  0.00000000E+00
  9.55249411E+00  9.55249411E+00 -1.91049882E+01  0.00000000E+00  9.55249411E+00
  9.55249411E+00 -1.91049882E+01  0.00000000E+00  9.55249411E+00  9.55249411E+00
 -1.91049882E+01  0.00000000E+00  9.55249411E+00  9.55249411E+00 -1.91049882E+01
  0.00000000E+00  9.55249411E+00  9.55249411E+00 -1.91049882E+01  0.00000000E+00
  9.55249411E+00  9.55249411E+00 -1.91049882E+01  0.00000000E+00  9.55249411E+00
  9.55249411E+00 -1.91049882E+01  0.00000000E+00  9.55249411E+00  9.55249411E+00
 -1.91049882E+01  0.00000000E+00  9.55249411E+00  9.55249411E+00 -1.91049882E+01
  0.00000000E+00  9.55249411E+00  9.55249411E+00 -1.91049882E+01  0.00000000E+00
  9.55249411E+00  9.55249411E+00 -1.91049882E+01  0.00000000E+00  9.55249411E+00
  9.55249411E+00 -1.91049882E+01  0.00000000E+00  9.55249411E+00  9.55249411E+00
 -1.91049882E+01  0.00000000E+00  9.55249411E+00  9.55249411E+00 -1.91049882E+01
  0.00000000E+00  9.55249411E+00  9.55249411E+00 -1.91049882E+01  0.00000000E+00
  9.55249411E+00  9.55249411E+00 -1.91049882E+01  0.00000000E+00  9.55249411E+00
  9.55249411E+00 -1.91049882E+01  0.00000000E+00  9.55249411E+00  9.55249411E+00
 -1.91049882E+01  0.00000000E+00  9.55249411E+00  9.55249411E+00 -1.91049882E+01
  0.00000000E+00  9.55249411E+00  9.55249411E+00 -1.91049882E+01  0.00000000E+00
  9.55249411E+00  9.55249411E+00 -1.91049882E+01  0.00000000E+00  9.55249411E+00
  9.55249411E+00 -1.91049882E+01  0.00000000E+00  9.55249411E+00  9.55249411E+00
 -1.91049882E+01  0.00000000E+00  9.55249411E+00  9.55249411E+00 -1.91049882E+01
  0.00000000E+00  9.55249411E+00  9.55249411E+00 -1.91049882E+01  0.00000000E+00
  9.55249411E+00  9.55249411E+00 -1.91049882E+01  0.00000000E+00  9.55249411E+00
  9.55249411E+00 -1.91049882E+01  0.00000000E+00  9.55249411E+00  9.55249411E+00
 -1.91049882E+01  0.00000000E+00  9.55249411E+00  9.55249411E+00 -1.91049882E+01
  0.00000000E+00  9.55249411E+00  9.55249411E+00 -1.91049882E+01  0.00000000E+00
  9.55249411E+00  9.55249411E+00 -1.91049882E+01  0.00000000E+00  9.55249411E+00
  9.55249411E+00 -1.91049882E+01  0.00000000E+00  9.55249411E+00  9.55249411E+00
 -1.91049882E+01  0.00000000E+00  9.55249411E+00  9.55249411E+00 -1.91049882E+01
  0.00000000E+00  9.55249411E+00  9.55249411E+00 -1.91049882E+01  0.00000000E+00
  9.55249411E+00  9.55249411E+00 -1.91049882E+01  0.00000000E+00  9.55249411E+00
  9.55249411E+00 -1.91049882E+01  0.00000000E+00  9.55249411E+00  9.55249411E+00
 -1.91049882E+01  0.00000000E+00  9.55249411E+00  9.55249411E+00 -1.91049882E+01
  0.00000000E+00  9.55249411E+00  9.55249411E+00 -1.91049882E+01  0.00000000E+00
  9.55249411E+00  9.55249411E+00 -1.91049882E+01  0.00000000E+00  9.55249411E+00
  9.55249411E+00 -1.91049882E+01  0.00000000E+00  9.55249411E+00  9.55249411E+00
 -1.91049882E+01  0.00000000E+00  9.55249411E+00  9.55249411E+00 -1.91049882E+01
  0.00000000E+00  9.55249411E+00  9.55249411E+00 -1.91049882E+01  0.00000000E+00
  9.55249411E+00  9.55249411E+00 -1.91049882E+01  0.00000000E+00  9.55249411E+00
  9.55249411E+00 -1.91049882E+01  0.00000000E+00  9.55249411E+00  9.55249411E+00
 -1.91049882E+01  0.00000000E+00  9.55249411E+00  9.55249411E+00 -1.91049882E+01
  0.00000000E+00  9.55249411E+00  9.55249411E+00 -1.91049882E+01  0.00000000E+00
  9.55249411E+00  9.55249411E+00 -1.91049882E+01  0.00000000E+00  9.55249411E+00
  9.55249411E+00 -1.91049882E+01  0.00000000E+00  9.55249411E+00  9.55249411E+00
 -1.91049882E+01  0.00000000E+00  9.55249411E+00  9.55249411E+00 -1.91049882E+01
  0.00000000E+00  9.55249411E+00  9.55249411E+00 -1.91049882E+01  0.00000000E+00
  9.55249411E+00  9.55249411E+00 -1.91049882E+01  0.00000000E+00  9.55249411E+00
  9.55249411E+00 -1.91049882E+01  0.00000000E+00  9.55249411E+00  9.55249411E+00
 -1.91049882E+01  0.00000000E+00  9.55249411E+00  9.55249411E+00 -1.91049882E+01
  0.00000000E+00  9.55249411E+00  9.55249411E+00 -1.91049882E+01  0.00000000E+00
  9.55249411E+00  9.55249411E+00 -1.91049882E+01  0.00000000E+00  9.55249411E+00
  9.55249411E+00 -1.91049882E+01  0.00000000E+00  9.55249411E+00  9.55249411E+00
 -1.91049882E+01  0.00000000E+00  9.55249411E+00  9.55249411E+00 -1.91049882E+01
  0.00000000E+00  9.55249411E+00  9.55249411E+00 -1.91049882E+01  0.00000000E+00
  9.55249411E+00  9.55249411E+00 -1.91049882E+01  0.00000000E+00  9.55249411E+00
  9.55249411E+00 -1.91049882E+01  0.00000000E+00  9.55249411E+00  9.55249411E+00
 -1.91049882E+01  0.00000000E+00  9.55249411E+00  9.55249411E+00 -1.91049882E+01
  0.00000000E+00  9.55249411E+00  9.55249411E+00 -1.91049882E+01  0.00000000E+00
  9.55249411E+00  9.55249411E+00 -1.91049882E+01  0.00000000E+00  9.55249411E+00
  9.55249411E+00 -1.91049882E+01  0.00000000E+00  9.55249411E+00  9.55249411E+00
 -1.91049882E+01  0.00000000E+00  9.55249411E+00  9.55249411E+00 -1.91049882E+01
  0.00000000E+00  9.55249411E+00  9.55249411E+00 -1.91049882E+01  0.00000000E+00
  9.55249411E+00  9.55249411E+00 -1.91049882E+01  0.00000000E+00  9.55249411E+00
  9.55249411E+00 -1.91049882E+01  0.00000000E+00  9.55249411E+00  9.55249411E+00
 -1.91049882E+01  0.00000000E+00  9.55249411E+00  9.55249411E+00 -1.91049882E+01
  0.00000000E+00  9.55249411E+00  9.55249411E+00 -1.91049882E+01  0.00000000E+00
  9.55249411E+00  9.55249411E+00 -1.91049882E+01  0.00000000E+00  9.55249411E+00
  9.55249411E+00 -1.91049882E+01  0.00000000E+00  9.55249411E+00  9.55249411E+00
 -1.91049882E+01  0.00000000E+00  9.55249411E+00  9.55249411E+00 -1.91049882E+01
  0.00000000E+00  9.55249411E+00  9.55249411E+00 -1.91049882E+01  0.00000000E+00
  9.55249411E+00  9.55249411E+00 -1.91049882E+01  0.00000000E+00  9.55249411E+00
  9.55249411E+00 -1.91049882E+01  0.00000000E+00  9.55249411E+00  9.55249411E+00
 -1.91049882E+01  0.00000000E+00  9.55249411E+00  9.55249411E+00 -1.91049882E+01
  0.00000000E+00  9.55249411E+00  9.55249411E+00 -1.91049882E+01  0.00000000E+00
  9.55249411E+00  9.55249411E+00 -1.91049882E+01  0.00000000E+00  9.55249411E+00
  9.55249411E+00 -1.91049882E+01  0.00000000E+00  9.55249411E+00  9.55249411E+00
 -1.91049882E+01  0.00000000E+00  9.55249411E+00  9.55249411E+00 -1.91049882E+01
  0.00000000E+00  9.55249411E+00  9.55249411E+00 -1.91049882E+01  0.00000000E+00
  9.55249411E+00  9.55249411E+00 -1.91049882E+01  0.00000000E+00  9.55249411E+00
  9.55249411E+00 -1.91049882E+01  0.00000000E+00  9.55249411E+00  9.55249411E+00
 -1.91049882E+01  0.00000000E+00  9.55249411E+00  9.55249411E+00 -1.91049882E+01
  0.00000000E+00  9.55249411E+00  9.55249411E+00 -1.91049882E+01  0.00000000E+00
  9.55249411E+00  9.55249411E+00 -1.91049882E+01  0.00000000E+00  9.55249411E+00
  9.55249411E+00 -1.91049882E+01  0.00000000E+00  9.55249411E+00  9.55249411E+00
 -1.91049882E+01  0.00000000E+00  9.55249411E+00  9.55249411E+00 -1.91049882E+01
  0.00000000E+00  9.55249411E+00  9.55249411E+00 -1.91049882E+01  0.00000000E+00
  9.55249411E+00  9.55249411E+00 -1.91049882E+01  0.00000000E+00  9.55249411E+00
  9.55249411E+00 -1.91049882E+01  0.00000000E+00  9.55249411E+00  9.55249411E+00
 -1.91049882E+01  0.00000000E+00  9.55249411E+00  9.55249411E+00 -1.91049882E+01
  0.00000000E+00  9.55249411E+00  9.55249411E+00 -1.91049882E+01  0.00000000E+00
  9.55249411E+00  9.55249411E+00 -1.91049882E+01  0.00000000E+00  9.55249411E+00
  9.55249411E+00 -1.91049882E+01  0.00000000E+00  9.55249411E+00  9.55249411E+00
 -1.91049882E+01  0.00000000E+00  9.55249411E+00  9.55249411E+00 -1.91049882E+01
  0.00000000E+00  9.55249411E+00  9.55249411E+00 -1.91049882E+01  0.00000000E+00
  9.55249411E+00  9.55249411E+00 -1.91049882E+01  0.00000000E+00  9.55249411E+00
  9.55249411E+00 -1.91049882E+01  0.00000000E+00  9.55249411E+00  9.55249411E+00
 -1.91049882E+01  0.00000000E+00  9.55249411E+00  9.55249411E+00 -1.91049882E+01
  0.00000000E+00  9.55249411E+00  9.55249411E+00 -1.91049882E+01  0.00000000E+00
  9.55249411E+00  9.55249411E+00 -1.91049882E+01  0.00000000E+00  9.55249411E+00
  9.55249411E+00 -1.91049882E+01  0.00000000E+00  9.55249411E+00  9.55249411E+00
 -1.91049882E+01  0.00000000E+00  9.55249411E+00  9.55249411E+00 -1.91049882E+01
  0.00000000E+00  9.55249411E+00  9.55249411E+00 -1.91049882E+01  0.00000000E+00
  9.55249411E+00  9.55249411E+00 -1.91049882E+01  0.00000000E+00  9.55249411E+00
  9.55249411E+00 -1.91049882E+01  0.00000000E+00  9.55249411E+00  9.55249411E+00
 -1.91049882E+01  0.00000000E+00  9.55249411E+00  9.55249411E+00 -1.91049882E+01
  0.00000000E+00  9.55249411E+00  9.55249411E+00 -1.91049882E+01  0.00000000E+00
  9.55249411E+00  9.55249411E+00 -1.91049882E+01  0.00000000E+00  9.55249411E+00
  9.55249411E+00 -1.91049882E+01  0.00000000E+00  9.55249411E+00  9.55249411E+00
 -1.91049882E+01  0.00000000E+00  9.55249411E+00  9.55249411E+00 -1.91049882E+01
  0.00000000E+00  9.55249411E+00  9.55249411E+00 -1.91049882E+01  0.00000000E+00
  9.55249411E+00  9.55249411E+00 -1.91049882E+01  0.00000000E+00  9.55249411E+00
  9.55249411E+00 -1.91049882E+01  0.00000000E+00  9.55249411E+00  9.55249411E+00
 -1.91049882E+01  0.00000000E+00  9.55249411E+00  9.55249411E+00 -1.91049882E+01
  0.00000000E+00  9.55249411E+00  9.55249411E+00 -1.91049882E+01  0.00000000E+00
  9.55249411E+00  9.55249411E+00 -1.91049882E+01  0.00000000E+00  9.55249411E+00
  9.55249411E+00 -1.91049882E+01  0.00000000E+00  9.55249411E+00  9.55249411E+00
 -1.91049882E+01  0.00000000E+00  9.55249411E+00  9.55249411E+00 -1.91049882E+01
  0.00000000E+00  9.55249411E+00  9.55249411E+00 -1.91049882E+01  0.00000000E+00
  9.55249411E+00  9.55249411E+00 -1.91049882E+01  0.00000000E+00  9.55249411E+00
  9.55249411E+00 -1.91049882E+01  0.00000000E+00  9.55249411E+00  9.55249411E+00
 -1.91049882E+01  0.00000000E+00  9.55249411E+00  9.55249411E+00 -1.91049882E+01
  0.00000000E+00  9.55249411E+00  9.55249411E+00 -1.91049882E+01  0.00000000E+00
  9.55249411E+00  9.55249411E+00 -1.91049882E+01  0.00000000E+00  9.55249411E+00
  9.55249411E+00 -1.91049882E+01  0.00000000E+00  9.55249411E+00  9.55249411E+00
 -1.91049882E+01  0.00000000E+00  9.55249411E+00  9.55249411E+00 -1.91049882E+01
  0.00000000E+00  9.55249411E+00  9.55249411E+00 -1.91049882E+01  0.00000000E+00
  9.55249411E+00  9.55249411E+00 -1.91049882E+01  0.00000000E+00  9.55249411E+00
  9.55249411E+00 -1.91049882E+01  0.00000000E+00  9.55249411E+00  9.55249411E+00
 -1.91049882E+01  0.00000000E+00  9.55249411E+00  9.55249411E+00 -1.91049882E+01
  0.00000000E+00  9.55249411E+00  9.55249411E+00 -1.91049882E+01  0.00000000E+00
  9.55249411E+00  9.55249411E+00 -1.91049882E+01  0.00000000E+00  9.55249411E+00
  9.55249411E+00 -1.91049882E+01  0.00000000E+00  9.55249411E+00  9.55249411E+00
 -1.91049882E+01  0.00000000E+00  9.55249411E+00  9.55249411E+00 -1.91049882E+01
  0.00000000E+00  9.55249411E+00  9.55249411E+00 -1.91049882E+01  0.00000000E+00
  9.55249411E+00  9.55249411E+00 -1.91049882E+01  0.00000000E+00  9.55249411E+00
  9.55249411E+00 -1.91049882E+01  0.00000000E+00  9.55249411E+00  9.55249411E+00
 -1.91049882E+01  0.00000000E+00  9.55249411E+00  9.55249411E+00 -1.91049882E+01
  0.00000000E+00  9.55249411E+00  9.55249411E+00 -1.91049882E+01  0.00000000E+00
  9.55249411E+00  9.55249411E+00 -1.91049882E+01  0.00000000E+00  9.55249411E+00
  9.55249411E+00 -1.91049882E+01  0.00000000E+00  9.55249411E+00  9.55249411E+00
 -1.91049882E+01  0.00000000E+00  9.55249411E+00  9.55249411E+00 -1.91049882E+01
  0.00000000E+00  9.55249411E+00  9.55249411E+00 -1.91049882E+01  0.00000000E+00
  9.55249411E+00  9.55249411E+00 -1.91049882E+01  0.00000000E+00  9.55249411E+00
  9.55249411E+00 -1.91049882E+01  0.00000000E+00  9.55249411E+00  9.55249411E+00
 -1.91049882E+01  0.00000000E+00  9.55249411E+00  9.55249411E+00 -1.91049882E+01
  0.00000000E+00  9.55249411E+00  9.55249411E+00 -1.91049882E+01  0.00000000E+00
  9.55249411E+00  9.55249411E+00 -1.91049882E+01  0.00000000E+00  9.55249411E+00
  9.55249411E+00 -1.91049882E+01  0.00000000E+00  9.55249411E+00  9.55249411E+00
 -1.91049882E+01  0.00000000E+00  9.55249411E+00  9.55249411E+00 -1.91049882E+01
  0.00000000E+00  9.55249411E+00  9.55249411E+00 -1.91049882E+01  0.00000000E+00
  9.55249411E+00  9.55249411E+00 -1.91049882E+01  0.00000000E+00  9.55249411E+00
  9.55249411E+00 -1.91049882E+01  0.00000000E+00  9.55249411E+00  9.55249411E+00
 -1.91049882E+01  0.00000000E+00  9.55249411E+00  9.55249411E+00 -1.91049882E+01
  0.00000000E+00  9.55249411E+00  9.55249411E+00 -1.91049882E+01  0.00000000E+00
  9.55249411E+00  9.55249411E+00 -1.91049882E+01  0.00000000E+00  9.55249411E+00
  9.55249411E+00 -1.91049882E+01  0.00000000E+00  9.55249411E+00  9.55249411E+00
 -1.91049882E+01  0.00000000E+00  9.55249411E+00  9.55249411E+00 -1.91049882E+01
  0.00000000E+00  9.55249411E+00  9.55249411E+00 -1.91049882E+01  0.00000000E+00
  9.55249411E+00  9.55249411E+00 -1.91049882E+01  0.00000000E+00  9.55249411E+00
  9.55249411E+00 -1.91049882E+01  0.00000000E+00  9.55249411E+00  9.55249411E+00
 -1.91049882E+01  0.00000000E+00  9.55249411E+00  9.55249411E+00 -1.91049882E+01
  0.00000000E+00  9.55249411E+00  9.55249411E+00 -1.91049882E+01  0.00000000E+00
  9.55249411E+00  9.55249411E+00 -1.91049882E+01  0.00000000E+00  9.55249411E+00
  9.55249411E+00 -1.91049882E+01  0.00000000E+00  9.55249411E+00  9.55249411E+00
 -1.91049882E+01  0.00000000E+00  9.55249411E+00  9.55249411E+00 -1.91049882E+01
  0.00000000E+00  9.55249411E+00  9.55249411E+00 -1.91049882E+01  0.00000000E+00
  9.55249411E+00  9.55249411E+00 -1.91049882E+01  0.00000000E+00  9.55249411E+00
  9.55249411E+00 -1.91049882E+01  0.00000000E+00  9.55249411E+00  9.55249411E+00
 -1.91049882E+01  0.00000000E+00  9.55249411E+00  9.55249411E+00 -1.91049882E+01
  0.00000000E+00  9.55249411E+00  9.55249411E+00 -1.91049882E+01  0.00000000E+00
  9.55249411E+00  9.55249411E+00 -1.91049882E+01  0.00000000E+00  9.55249411E+00
  9.55249411E+00 -1.91049882E+01  0.00000000E+00  9.55249411E+00  9.55249411E+00
 -1.91049882E+01  0.00000000E+00  9.55249411E+00  9.55249411E+00 -1.91049882E+01
  0.00000000E+00  9.55249411E+00  9.55249411E+00 -1.91049882E+01  0.00000000E+00
  9.55249411E+00  9.55249411E+00 -1.91049882E+01  0.00000000E+00  9.55249411E+00
  9.55249411E+00 -1.91049882E+01  0.00000000E+00  9.55249411E+00  9.55249411E+00
 -1.91049882E+01  0.00000000E+00  9.55249411E+00  9.55249411E+00 -1.91049882E+01
  0.00000000E+00  9.55249411E+00  9.55249411E+00 -1.91049882E+01  0.00000000E+00
  9.55249411E+00  9.55249411E+00 -1.91049882E+01  0.00000000E+00  9.55249411E+00
  9.55249411E+00 -1.91049882E+01  0.00000000E+00  9.55249411E+00  9.55249411E+00
 -1.91049882E+01  0.00000000E+00  9.55249411E+00  9.55249411E+00 -1.91049882E+01
  0.00000000E+00  9.55249411E+00  9.55249411E+00 -1.91049882E+01  0.00000000E+00
  9.55249411E+00  9.55249411E+00 -1.91049882E+01  0.00000000E+00  9.55249411E+00
  9.55249411E+00 -1.91049882E+01  0.00000000E+00  9.55249411E+00  9.55249411E+00
 -1.91049882E+01  0.00000000E+00  9.55249411E+00  9.55249411E+00 -1.91049882E+01
  0.00000000E+00  9.55249411E+00  9.55249411E+00 -1.91049882E+01  0.00000000E+00
  9.55249411E+00  9.55249411E+00 -1.91049882E+01  0.00000000E+00  9.55249411E+00
  9.55249411E+00 -1.91049882E+01  0.00000000E+00  9.55249411E+00  9.55249411E+00
 -1.91049882E+01  0.00000000E+00  9.55249411E+00  9.55249411E+00 -1.91049882E+01
  0.00000000E+00  9.55249411E+00  9.55249411E+00 -1.91049882E+01  0.00000000E+00
  9.55249411E+00  9.55249411E+00 -1.91049882E+01  0.00000000E+00  9.55249411E+00
  9.55249411E+00 -1.91049882E+01  0.00000000E+00  9.55249411E+00  9.55249411E+00
 -1.91049882E+01  0.00000000E+00  9.55249411E+00  9.55249411E+00 -1.91049882E+01
  0.00000000E+00  9.55249411E+00  9.55249411E+00 -1.91049882E+01  0.00000000E+00
  9.55249411E+00  9.55249411E+00 -1.91049882E+01  0.00000000E+00  9.55249411E+00
  9.55249411E+00 -1.91049882E+01  0.00000000E+00  9.55249411E+00  9.55249411E+00
 -1.91049882E+01  0.00000000E+00  9.55249411E+00  9.55249411E+00 -1.91049882E+01
  0.00000000E+00  9.55249411E+00  9.55249411E+00 -1.91049882E+01  0.00000000E+00
  9.55249411E+00  9.55249411E+00 -1.91049882E+01  0.00000000E+00  9.55249411E+00
  9.55249411E+00 -1.91049882E+01  0.00000000E+00  9.55249411E+00  9.55249411E+00
 -1.91049882E+01  0.00000000E+00  9.55249411E+00  9.55249411E+00 -1.91049882E+01
  0.00000000E+00  9.55249411E+00  9.55249411E+00 -1.91049882E+01  0.00000000E+00
  9.55249411E+00  9.55249411E+00 -1.91049882E+01  0.00000000E+00  9.55249411E+00
  9.55249411E+00 -1.91049882E+01  0.00000000E+00  9.55249411E+00  9.55249411E+00
 -1.91049882E+01  0.00000000E+00  9.55249411E+00  9.55249411E+00 -1.91049882E+01
  0.00000000E+00  9.55249411E+00  9.55249411E+00 -1.91049882E+01  0.00000000E+00
  9.55249411E+00  9.55249411E+00 -1.91049882E+01  0.00000000E+00  9.55249411E+00
  9.55249411E+00 -1.91049882E+01  0.00000000E+00  9.55249411E+00  9.55249411E+00
 -1.91049882E+01  0.00000000E+00  9.55249411E+00  9.55249411E+00 -1.91049882E+01
  0.00000000E+00  9.55249411E+00  9.55249411E+00 -1.91049882E+01  0.00000000E+00
  9.55249411E+00  9.55249411E+00 -1.91049882E+01  0.00000000E+00  9.55249411E+00
  9.55249411E+00 -1.91049882E+01  0.00000000E+00  9.55249411E+00  9.55249411E+00
 -1.91049882E+01  0.00000000E+00  9.55249411E+00  9.55249411E+00 -1.91049882E+01
  0.00000000E+00  9.55249411E+00  9.55249411E+00 -1.91049882E+01  0.00000000E+00
  9.55249411E+00  9.55249411E+00 -1.91049882E+01  0.00000000E+00  9.55249411E+00
  9.55249411E+00 -1.91049882E+01  0.00000000E+00  9.55249411E+00  9.55249411E+00
 -1.91049882E+01  0.00000000E+00  9.55249411E+00  9.55249411E+00 -1.91049882E+01
  0.00000000E+00  9.55249411E+00  9.55249411E+00 -1.91049882E+01  0.00000000E+00
  9.55249411E+00  9.55249411E+00 -1.91049882E+01  0.00000000E+00  9.55249411E+00
  9.55249411E+00 -1.91049882E+01  0.00000000E+00  9.55249411E+00  9.55249411E+00
 -1.91049882E+01  0.00000000E+00  9.55249411E+00  9.55249411E+00 -1.91049882E+01
  0.00000000E+00  9.55249411E+00  9.55249411E+00 -1.91049882E+01  0.00000000E+00
  9.55249411E+00  9.55249411E+00 -1.91049882E+01  0.00000000E+00  9.55249411E+00
  9.55249411E+00 -1.91049882E+01  0.00000000E+00  9.55249411E+00  9.55249411E+00
 -1.91049882E+01  0.00000000E+00  9.55249411E+00  9.55249411E+00 -1.91049882E+01
  0.00000000E+00  9.55249411E+00  9.55249411E+00 -1.91049882E+01  0.00000000E+00
  9.55249411E+00  9.55249411E+00 -1.91049882E+01  0.00000000E+00  9.55249411E+00
  9.55249411E+00 -1.91049882E+01  0.00000000E+00  9.55249411E+00  9.55249411E+00
 -1.91049882E+01  0.00000000E+00  9.55249411E+00  9.55249411E+00 -1.91049882E+01
  0.00000000E+00  9.55249411E+00  9.55249411E+00 -1.91049882E+01  0.00000000E+00
  9.55249411E+00  9.55249411E+00 -1.91049882E+01  0.00000000E+00  9.55249411E+00
  9.55249411E+00 -1.91049882E+01  0.00000000E+00  9.55249411E+00  9.55249411E+00
 -1.91049882E+01  0.00000000E+00  9.55249411E+00  9.55249411E+00 -1.91049882E+01
  0.00000000E+00  9.55249411E+00  9.55249411E+00 -1.91049882E+01  0.00000000E+00
  9.55249411E+00  9.55249411E+00 -1.91049882E+01  0.00000000E+00  9.55249411E+00
  9.55249411E+00 -1.91049882E+01  0.00000000E+00  9.55249411E+00  9.55249411E+00
 -1.91049882E+01  0.00000000E+00  9.55249411E+00  9.55249411E+00 -1.91049882E+01
  0.00000000E+00  9.55249411E+00  9.55249411E+00 -1.91049882E+01  0.00000000E+00
  9.55249411E+00  9.55249411E+00 -1.91049882E+01  0.00000000E+00  9.55249411E+00
  9.55249411E+00 -1.91049882E+01  0.00000000E+00  9.55249411E+00  9.55249411E+00
 -1.91049882E+01  0.00000000E+00  9.55249411E+00  9.55249411E+00 -1.91049882E+01
  0.00000000E+00  9.55249411E+00  9.55249411E+00 -1.91049882E+01  0.00000000E+00
  9.55249411E+00  9.55249411E+00 -1.91049882E+01  0.00000000E+00  9.55249411E+00
  9.55249411E+00 -1.91049882E+01  0.00000000E+00  9.55249411E+00  9.55249411E+00
 -1.91049882E+01  0.00000000E+00  9.55249411E+00  9.55249411E+00 -1.91049882E+01
  0.00000000E+00  9.55249411E+00  9.55249411E+00 -1.91049882E+01  0.00000000E+00
  9.55249411E+00  9.55249411E+00 -1.91049882E+01  0.00000000E+00  9.55249411E+00
  9.55249411E+00 -1.91049882E+01  0.00000000E+00  9.55249411E+00  9.55249411E+00
 -1.91049882E+01  0.00000000E+00  9.55249411E+00  9.55249411E+00 -1.91049882E+01
  0.00000000E+00  9.55249411E+00  9.55249411E+00 -1.91049882E+01  0.00000000E+00
  9.55249411E+00  9.55249411E+00 -1.91049882E+01  0.00000000E+00  9.55249411E+00
  9.55249411E+00 -1.91049882E+01  0.00000000E+00  9.55249411E+00  9.55249411E+00
 -1.91049882E+01  0.00000000E+00  9.55249411E+00  9.55249411E+00 -1.91049882E+01
  0.00000000E+00  9.55249411E+00  9.55249411E+00 -1.91049882E+01  0.00000000E+00
  9.55249411E+00  9.55249411E+00 -1.91049882E+01  0.00000000E+00  9.55249411E+00
  9.55249411E+00 -1.91049882E+01  0.00000000E+00  9.55249411E+00  9.55249411E+00
 -1.91049882E+01  0.00000000E+00  9.55249411E+00  9.55249411E+00 -1.91049882E+01
  0.00000000E+00  9.55249411E+00  9.55249411E+00 -1.91049882E+01  0.00000000E+00
  9.55249411E+00  9.55249411E+00 -1.91049882E+01  0.00000000E+00  9.55249411E+00
  9.55249411E+00 -1.91049882E+01  0.00000000E+00  9.55249411E+00  9.55249411E+00
 -1.91049882E+01  0.00000000E+00  9.55249411E+00  9.55249411E+00 -1.91049882E+01
  0.00000000E+00  9.55249411E+00  9.55249411E+00 -1.91049882E+01  0.00000000E+00
  9.55249411E+00  9.55249411E+00 -1.91049882E+01  0.00000000E+00  9.55249411E+00
  9.55249411E+00 -1.91049882E+01  0.00000000E+00  9.55249411E+00  9.55249411E+00
 -1.91049882E+01  0.00000000E+00  9.55249411E+00  9.55249411E+00 -1.91049882E+01
  0.00000000E+00  9.55249411E+00  9.55249411E+00 -1.91049882E+01  0.00000000E+00
  9.55249411E+00  9.55249411E+00 -1.91049882E+01  0.00000000E+00  9.55249411E+00
  9.55249411E+00 -1.91049882E+01  0.00000000E+00  9.55249411E+00  9.55249411E+00
 -1.91049882E+01  0.00000000E+00  9.55249411E+00  9.55249411E+00 -1.91049882E+01
  0.00000000E+00  9.55249411E+00  9.55249411E+00 -1.91049882E+01  0.00000000E+00
  9.55249411E+00  9.55249411E+00 -1.91049882E+01  0.00000000E+00  9.55249411E+00
  9.55249411E+00 -1.91049882E+01  0.00000000E+00  9.55249411E+00  9.55249411E+00
 -1.91049882E+01  0.00000000E+00  9.55249411E+00  9.55249411E+00 -1.91049882E+01
  0.00000000E+00  9.55249411E+00  9.55249411E+00 -1.91049882E+01  0.00000000E+00
  9.55249411E+00  9.55249411E+00 -1.91049882E+01  0.00000000E+00  9.55249411E+00
  9.55249411E+00 -1.91049882E+01  0.00000000E+00  9.55249411E+00  9.55249411E+00
 -1.91049882E+01  0.00000000E+00  9.55249411E+00  9.55249411E+00 -1.91049882E+01
  0.00000000E+00  9.55249411E+00  9.55249411E+00 -1.91049882E+01  0.00000000E+00
  9.55249411E+00  9.55249411E+00 -1.91049882E+01  0.00000000E+00  9.55249411E+00
  9.55249411E+00 -1.91049882E+01  0.00000000E+00  9.55249411E+00  9.55249411E+00
 -1.91049882E+01  0.00000000E+00  9.55249411E+00  9.55249411E+00 -1.91049882E+01
  0.00000000E+00  9.55249411E+00  9.55249411E+00 -1.91049882E+01  0.00000000E+00
  9.55249411E+00  9.55249411E+00 -1.91049882E+01  0.00000000E+00  9.55249411E+00
  9.55249411E+00 -1.91049882E+01  0.00000000E+00  9.55249411E+00  9.55249411E+00
 -1.91049882E+01  0.00000000E+00  9.55249411E+00  9.55249411E+00 -1.91049882E+01
  0.00000000E+00  9.55249411E+00  9.55249411E+00 -1.91049882E+01  0.00000000E+00
  9.55249411E+00  9.55249411E+00 -1.91049882E+01  0.00000000E+00  9.55249411E+00
  9.55249411E+00 -1.91049882E+01  0.00000000E+00  9.55249411E+00  9.55249411E+00
 -1.91049882E+01  0.00000000E+00  9.55249411E+00  9.55249411E+00 -1.91049882E+01
  0.00000000E+00  9.55249411E+00  9.55249411E+00 -1.91049882E+01  0.00000000E+00
  9.55249411E+00  9.55249411E+00 -1.91049882E+01  0.00000000E+00  9.55249411E+00
  9.55249411E+00 -1.91049882E+01  0.00000000E+00  9.55249411E+00  9.55249411E+00
 -1.91049882E+01  0.00000000E+00  9.55249411E+00  9.55249411E+00 -1.91049882E+01
  0.00000000E+00  9.55249411E+00  9.55249411E+00 -1.91049882E+01  0.00000000E+00
  9.55249411E+00  9.55249411E+00 -1.91049882E+01  0.00000000E+00  9.55249411E+00
  9.55249411E+00 -1.91049882E+01  0.00000000E+00  9.55249411E+00  9.55249411E+00
 -1.91049882E+01  0.00000000E+00  9.55249411E+00  9.55249411E+00 -1.91049882E+01
  0.00000000E+00  9.55249411E+00  9.55249411E+00 -1.91049882E+01  0.00000000E+00
  9.55249411E+00  9.55249411E+00 -1.91049882E+01  0.00000000E+00  9.55249411E+00
  9.55249411E+00 -1.91049882E+01  0.00000000E+00  9.55249411E+00  9.55249411E+00
 -1.91049882E+01  0.00000000E+00  9.55249411E+00  9.55249411E+00 -1.91049882E+01
  0.00000000E+00  9.55249411E+00  9.55249411E+00 -1.91049882E+01  0.00000000E+00
  9.55249411E+00  9.55249411E+00 -1.91049882E+01  0.00000000E+00  9.55249411E+00
  9.55249411E+00 -1.91049882E+01  0.00000000E+00  9.55249411E+00  9.55249411E+00
 -1.91049882E+01  0.00000000E+00  9.55249411E+00  9.55249411E+00 -1.91049882E+01
  0.00000000E+00  9.55249411E+00  9.55249411E+00 -1.91049882E+01  0.00000000E+00
  9.55249411E+00  9.55249411E+00 -1.91049882E+01  0.00000000E+00  9.55249411E+00
  9.55249411E+00 -1.91049882E+01  0.00000000E+00  9.55249411E+00  9.55249411E+00
 -1.91049882E+01  0.00000000E+00  9.55249411E+00  9.55249411E+00 -1.91049882E+01
  0.00000000E+00  9.55249411E+00  9.55249411E+00 -1.91049882E+01  0.00000000E+00
  9.55249411E+00  9.55249411E+00 -1.91049882E+01  0.00000000E+00  9.55249411E+00
  9.55249411E+00 -1.91049882E+01  0.00000000E+00  9.55249411E+00  9.55249411E+00
 -1.91049882E+01  0.00000000E+00  9.55249411E+00  9.55249411E+00 -1.91049882E+01
  0.00000000E+00  9.55249411E+00  9.55249411E+00 -1.91049882E+01  0.00000000E+00
  9.55249411E+00  9.55249411E+00 -1.91049882E+01  0.00000000E+00  9.55249411E+00
  9.55249411E+00 -1.91049882E+01  0.00000000E+00  9.55249411E+00  9.55249411E+00
 -1.91049882E+01  0.00000000E+00  9.55249411E+00  9.55249411E+00 -1.91049882E+01
  0.00000000E+00  9.55249411E+00  9.55249411E+00 -1.91049882E+01  0.00000000E+00
  9.55249411E+00  9.55249411E+00 -1.91049882E+01  0.00000000E+00  9.55249411E+00
  9.55249411E+00 -1.91049882E+01  0.00000000E+00  9.55249411E+00  9.55249411E+00
 -1.91049882E+01  0.00000000E+00  9.55249411E+00  9.55249411E+00 -1.91049882E+01
  0.00000000E+00  9.55249411E+00  9.55249411E+00 -1.91049882E+01  0.00000000E+00
  9.55249411E+00  9.55249411E+00 -1.91049882E+01  0.00000000E+00  9.55249411E+00
  9.55249411E+00 -1.91049882E+01  0.00000000E+00  9.55249411E+00  9.55249411E+00
 -1.91049882E+01  0.00000000E+00  9.55249411E+00  9.55249411E+00 -1.91049882E+01
  0.00000000E+00  9.55249411E+00  9.55249411E+00 -1.91049882E+01  0.00000000E+00
  9.55249411E+00  9.55249411E+00 -1.91049882E+01  0.00000000E+00  9.55249411E+00
  9.55249411E+00 -1.91049882E+01  0.00000000E+00  9.55249411E+00  9.55249411E+00
 -1.91049882E+01  0.00000000E+00  9.55249411E+00  9.55249411E+00 -1.91049882E+01
  0.00000000E+00  9.55249411E+00  9.55249411E+00 -1.91049882E+01  0.00000000E+00
  9.55249411E+00  9.55249411E+00 -1.91049882E+01  0.00000000E+00  9.55249411E+00
  9.55249411E+00 -1.91049882E+01  0.00000000E+00  9.55249411E+00  9.55249411E+00
 -1.91049882E+01  0.00000000E+00  9.55249411E+00  9.55249411E+00 -1.91049882E+01
  0.00000000E+00  9.55249411E+00  9.55249411E+00 -1.91049882E+01  0.00000000E+00
  9.55249411E+00  9.55249411E+00 -1.91049882E+01  0.00000000E+00  9.55249411E+00
  9.55249411E+00 -1.91049882E+01  0.00000000E+00  9.55249411E+00  9.55249411E+00
 -1.91049882E+01  0.00000000E+00  9.55249411E+00  9.55249411E+00 -1.91049882E+01
  0.00000000E+00  9.55249411E+00  9.55249411E+00 -1.91049882E+01  0.00000000E+00
  9.55249411E+00  9.55249411E+00 -1.91049882E+01  0.00000000E+00  9.55249411E+00
  9.55249411E+00 -1.91049882E+01  0.00000000E+00  9.55249411E+00  9.55249411E+00
 -1.91049882E+01  0.00000000E+00  9.55249411E+00  9.55249411E+00 -1.91049882E+01
  0.00000000E+00  9.55249411E+00  9.55249411E+00 -1.91049882E+01  0.00000000E+00
  9.55249411E+00  9.55249411E+00 -1.91049882E+01  0.00000000E+00  9.55249411E+00
  9.55249411E+00 -1.91049882E+01  0.00000000E+00  9.55249411E+00  9.55249411E+00
 -1.91049882E+01  0.00000000E+00  9.55249411E+00  9.55249411E+00 -1.91049882E+01
  0.00000000E+00  9.55249411E+00  9.55249411E+00 -1.91049882E+01  0.00000000E+00
  9.55249411E+00  9.55249411E+00 -1.91049882E+01  0.00000000E+00  9.55249411E+00
  9.55249411E+00 -1.91049882E+01  0.00000000E+00  9.55249411E+00  9.55249411E+00
 -1.91049882E+01  0.00000000E+00  9.55249411E+00  9.55249411E+00 -1.91049882E+01
  0.00000000E+00  9.55249411E+00  9.55249411E+00 -1.91049882E+01  0.00000000E+00
  9.55249411E+00  9.55249411E+00 -1.91049882E+01  0.00000000E+00  9.55249411E+00
  9.55249411E+00 -1.91049882E+01  0.00000000E+00  9.55249411E+00  9.55249411E+00
 -1.91049882E+01  0.00000000E+00  9.55249411E+00  9.55249411E+00 -1.91049882E+01
  0.00000000E+00  9.55249411E+00  9.55249411E+00 -1.91049882E+01  0.00000000E+00
  9.55249411E+00  9.55249411E+00 -1.91049882E+01  0.00000000E+00  9.55249411E+00
  9.55249411E+00 -1.91049882E+01  0.00000000E+00  9.55249411E+00  9.55249411E+00
 -1.91049882E+01  0.00000000E+00  9.55249411E+00  9.55249411E+00 -1.91049882E+01
  0.00000000E+00  9.55249411E+00  9.55249411E+00 -1.91049882E+01  0.00000000E+00
  9.55249411E+00  9.55249411E+00 -1.91049882E+01  0.00000000E+00  9.55249411E+00
  9.55249411E+00 -1.91049882E+01  0.00000000E+00  9.55249411E+00  9.55249411E+00
 -1.91049882E+01  0.00000000E+00  9.55249411E+00  9.55249411E+00 -1.91049882E+01
  0.00000000E+00  9.55249411E+00  9.55249411E+00 -1.91049882E+01  0.00000000E+00
  9.55249411E+00  9.55249411E+00 -1.91049882E+01  0.00000000E+00  9.55249411E+00
  9.55249411E+00 -1.91049882E+01  0.00000000E+00  9.55249411E+00  9.55249411E+00
 -1.91049882E+01  0.00000000E+00  9.55249411E+00  9.55249411E+00 -1.91049882E+01
  0.00000000E+00  9.55249411E+00  9.55249411E+00 -1.91049882E+01  0.00000000E+00
  9.55249411E+00  9.55249411E+00 -1.91049882E+01  0.00000000E+00  9.55249411E+00
  9.55249411E+00 -1.91049882E+01  0.00000000E+00  9.55249411E+00  9.55249411E+00
 -1.91049882E+01  0.00000000E+00  9.55249411E+00  9.55249411E+00 -1.91049882E+01
  0.00000000E+00  9.55249411E+00  9.55249411E+00 -1.91049882E+01  0.00000000E+00
  9.55249411E+00  9.55249411E+00 -1.91049882E+01  0.00000000E+00  9.55249411E+00
  9.55249411E+00 -1.91049882E+01  0.00000000E+00  9.55249411E+00  9.55249411E+00
 -1.91049882E+01  0.00000000E+00  9.55249411E+00  9.55249411E+00 -1.91049882E+01
  0.00000000E+00  9.55249411E+00  9.55249411E+00 -1.91049882E+01  0.00000000E+00
  9.55249411E+00  9.55249411E+00 -1.91049882E+01  0.00000000E+00  9.55249411E+00
  9.55249411E+00 -1.91049882E+01  0.00000000E+00  9.55249411E+00  9.55249411E+00
 -1.91049882E+01  0.00000000E+00  9.55249411E+00  9.55249411E+00 -1.91049882E+01
  0.00000000E+00  9.55249411E+00  9.55249411E+00 -1.91049882E+01  0.00000000E+00
  9.55249411E+00  9.55249411E+00 -1.91049882E+01  0.00000000E+00  9.55249411E+00
  9.55249411E+00 -1.91049882E+01  0.00000000E+00  9.55249411E+00  9.55249411E+00
 -1.91049882E+01  0.00000000E+00  9.55249411E+00  9.55249411E+00 -1.91049882E+01
  0.00000000E+00  9.55249411E+00  9.55249411E+00 -1.91049882E+01  0.00000000E+00
  9.55249411E+00  9.55249411E+00 -1.91049882E+01  0.00000000E+00  9.55249411E+00
  9.55249411E+00 -1.91049882E+01  0.00000000E+00  9.55249411E+00  9.55249411E+00
 -1.91049882E+01  0.00000000E+00  9.55249411E+00  9.55249411E+00 -1.91049882E+01
  0.00000000E+00  9.55249411E+00  9.55249411E+00 -1.91049882E+01  0.00000000E+00
  9.55249411E+00  9.55249411E+00 -1.91049882E+01  0.00000000E+00  9.55249411E+00
  9.55249411E+00 -1.91049882E+01  0.00000000E+00  9.55249411E+00  9.55249411E+00
 -1.91049882E+01  0.00000000E+00  9.55249411E+00  9.55249411E+00 -1.91049882E+01
  0.00000000E+00  9.55249411E+00  9.55249411E+00 -1.91049882E+01  0.00000000E+00
  9.55249411E+00  9.55249411E+00 -1.91049882E+01  0.00000000E+00  9.55249411E+00
  9.55249411E+00 -1.91049882E+01  0.00000000E+00  9.55249411E+00  9.55249411E+00
 -1.91049882E+01  0.00000000E+00  9.55249411E+00  9.55249411E+00 -1.91049882E+01
  0.00000000E+00  9.55249411E+00  9.55249411E+00 -1.91049882E+01  0.00000000E+00
  9.55249411E+00  9.55249411E+00 -1.91049882E+01  0.00000000E+00  9.55249411E+00
  9.55249411E+00 -1.91049882E+01  0.00000000E+00  9.55249411E+00  9.55249411E+00
 -1.91049882E+01  0.00000000E+00  9.55249411E+00  9.55249411E+00 -1.91049882E+01
  0.00000000E+00  9.55249411E+00  9.55249411E+00 -1.91049882E+01  0.00000000E+00
  9.55249411E+00  9.55249411E+00 -1.91049882E+01  0.00000000E+00  9.55249411E+00
  9.55249411E+00 -1.91049882E+01  0.00000000E+00  9.55249411E+00  9.55249411E+00
 -1.91049882E+01  0.00000000E+00  9.55249411E+00  9.55249411E+00 -1.91049882E+01
  0.00000000E+00  9.55249411E+00  9.55249411E+00 -1.91049882E+01  0.00000000E+00
  9.55249411E+00  9.55249411E+00 -1.91049882E+01  0.00000000E+00  9.55249411E+00
  9.55249411E+00 -1.91049882E+01  0.00000000E+00  9.55249411E+00  9.55249411E+00
 -1.91049882E+01  0.00000000E+00  9.55249411E+00  9.55249411E+00 -1.91049882E+01
  0.00000000E+00  9.55249411E+00  9.55249411E+00 -1.91049882E+01  0.00000000E+00
  9.55249411E+00  9.55249411E+00 -1.91049882E+01  0.00000000E+00  9.55249411E+00
  9.55249411E+00 -1.91049882E+01  0.00000000E+00  9.55249411E+00  9.55249411E+00
 -1.91049882E+01  0.00000000E+00  9.55249411E+00  9.55249411E+00 -1.91049882E+01
  0.00000000E+00  9.55249411E+00  9.55249411E+00 -1.91049882E+01  0.00000000E+00
  9.55249411E+00  9.55249411E+00 -1.91049882E+01  0.00000000E+00  9.55249411E+00
  9.55249411E+00 -1.91049882E+01  0.00000000E+00  9.55249411E+00  9.55249411E+00
 -1.91049882E+01  0.00000000E+00  9.55249411E+00  9.55249411E+00 -1.91049882E+01
  0.00000000E+00  9.55249411E+00  9.55249411E+00 -1.91049882E+01  0.00000000E+00
  9.55249411E+00  9.55249411E+00 -1.91049882E+01  0.00000000E+00  9.55249411E+00
  9.55249411E+00 -1.91049882E+01  0.00000000E+00  9.55249411E+00  9.55249411E+00
 -1.91049882E+01  0.00000000E+00  9.55249411E+00  9.55249411E+00 -1.91049882E+01
  0.00000000E+00  9.55249411E+00  9.55249411E+00 -1.91049882E+01  0.00000000E+00
  9.55249411E+00  9.55249411E+00 -1.91049882E+01  0.00000000E+00  9.55249411E+00
  9.55249411E+00 -1.91049882E+01  0.00000000E+00  9.55249411E+00  9.55249411E+00
 -1.91049882E+01  0.00000000E+00  9.55249411E+00  9.55249411E+00 -1.91049882E+01
  0.00000000E+00  9.55249411E+00  9.55249411E+00 -1.91049882E+01  0.00000000E+00
  9.55249411E+00  9.55249411E+00 -1.91049882E+01  0.00000000E+00  9.55249411E+00
  9.55249411E+00 -1.91049882E+01  0.00000000E+00  9.55249411E+00  9.55249411E+00
 -1.91049882E+01  0.00000000E+00  9.55249411E+00  9.55249411E+00 -1.91049882E+01
  0.00000000E+00  9.55249411E+00  9.55249411E+00 -1.91049882E+01  0.00000000E+00
  9.55249411E+00  9.55249411E+00 -1.91049882E+01  0.00000000E+00  9.55249411E+00
  9.55249411E+00 -1.91049882E+01  0.00000000E+00  9.55249411E+00  9.55249411E+00
 -1.91049882E+01  0.00000000E+00  9.55249411E+00  9.55249411E+00 -1.91049882E+01
  0.00000000E+00  9.55249411E+00  9.55249411E+00 -1.91049882E+01  0.00000000E+00
  9.55249411E+00  9.55249411E+00 -1.91049882E+01  0.00000000E+00  9.55249411E+00
  9.55249411E+00 -1.91049882E+01  0.00000000E+00  9.55249411E+00  9.55249411E+00
 -1.91049882E+01  0.00000000E+00  9.55249411E+00  9.55249411E+00 -1.91049882E+01
  0.00000000E+00  9.55249411E+00  9.55249411E+00 -1.91049882E+01  0.00000000E+00
  9.55249411E+00  9.55249411E+00 -1.91049882E+01  0.00000000E+00  9.55249411E+00
  9.55249411E+00 -1.91049882E+01  0.00000000E+00  9.55249411E+00  9.55249411E+00
 -1.91049882E+01  0.00000000E+00  9.55249411E+00  9.55249411E+00 -1.91049882E+01
  0.00000000E+00  9.55249411E+00  9.55249411E+00 -1.91049882E+01  0.00000000E+00
  9.55249411E+00  9.55249411E+00 -1.91049882E+01  0.00000000E+00  9.55249411E+00
  9.55249411E+00 -1.91049882E+01  0.00000000E+00  9.55249411E+00  9.55249411E+00
 -1.91049882E+01  0.00000000E+00  9.55249411E+00  9.55249411E+00 -1.91049882E+01
  0.00000000E+00  9.55249411E+00  9.55249411E+00 -1.91049882E+01  0.00000000E+00
  9.55249411E+00  9.55249411E+00 -1.91049882E+01  0.00000000E+00  9.55249411E+00
  9.55249411E+00 -1.91049882E+01  0.00000000E+00  9.55249411E+00  9.55249411E+00
 -1.91049882E+01  0.00000000E+00  9.55249411E+00  9.55249411E+00 -1.91049882E+01
  0.00000000E+00  9.55249411E+00  9.55249411E+00 -1.91049882E+01  0.00000000E+00
  9.55249411E+00  9.55249411E+00 -1.91049882E+01  0.00000000E+00  9.55249411E+00
  9.55249411E+00 -1.91049882E+01  0.00000000E+00  9.55249411E+00  9.55249411E+00
 -1.91049882E+01  0.00000000E+00  9.55249411E+00  9.55249411E+00 -1.91049882E+01
  0.00000000E+00  9.55249411E+00  9.55249411E+00 -1.91049882E+01  0.00000000E+00
  9.55249411E+00  9.55249411E+00 -1.91049882E+01  0.00000000E+00  9.55249411E+00
  9.55249411E+00 -1.91049882E+01  0.00000000E+00  9.55249411E+00  9.55249411E+00
 -1.91049882E+01  0.00000000E+00  9.55249411E+00  9.55249411E+00 -1.91049882E+01
  0.00000000E+00  9.55249411E+00  9.55249411E+00 -1.91049882E+01  0.00000000E+00
  9.55249411E+00  9.55249411E+00 -1.91049882E+01  0.00000000E+00  9.55249411E+00
  9.55249411E+00 -1.91049882E+01  0.00000000E+00  9.55249411E+00  9.55249411E+00
 -1.91049882E+01  0.00000000E+00  9.55249411E+00  9.55249411E+00 -1.91049882E+01
  0.00000000E+00  9.55249411E+00  9.55249411E+00 -1.91049882E+01  0.00000000E+00
  9.55249411E+00  9.55249411E+00 -1.91049882E+01  0.00000000E+00  9.55249411E+00
  9.55249411E+00 -1.91049882E+01  0.00000000E+00  9.55249411E+00  9.55249411E+00
 -1.91049882E+01  0.00000000E+00  9.55249411E+00  9.55249411E+00 -1.91049882E+01
  0.00000000E+00  9.55249411E+00  9.55249411E+00 -1.91049882E+01  0.00000000E+00
  9.55249411E+00  9.55249411E+00 -1.91049882E+01  0.00000000E+00  9.55249411E+00
  9.55249411E+00 -1.91049882E+01  0.00000000E+00  9.55249411E+00  9.55249411E+00
 -1.91049882E+01  0.00000000E+00  9.55249411E+00  9.55249411E+00 -1.91049882E+01
  0.00000000E+00  9.55249411E+00  9.55249411E+00 -1.91049882E+01  0.00000000E+00
  9.55249411E+00  9.55249411E+00 -1.91049882E+01  0.00000000E+00  9.55249411E+00
  9.55249411E+00 -1.91049882E+01  0.00000000E+00  9.55249411E+00  9.55249411E+00
 -1.91049882E+01  0.00000000E+00  9.55249411E+00  9.55249411E+00 -1.91049882E+01
  0.00000000E+00  9.55249411E+00  9.55249411E+00 -1.91049882E+01  0.00000000E+00
  9.55249411E+00  9.55249411E+00 -1.91049882E+01  0.00000000E+00  9.55249411E+00
  9.55249411E+00 -1.91049882E+01  0.00000000E+00  9.55249411E+00  9.55249411E+00
 -1.91049882E+01  0.00000000E+00  9.55249411E+00  9.55249411E+00 -1.91049882E+01
  0.00000000E+00  9.55249411E+00  9.55249411E+00 -1.91049882E+01  0.00000000E+00
  9.55249411E+00  9.55249411E+00 -1.91049882E+01  0.00000000E+00  9.55249411E+00
  9.55249411E+00 -1.91049882E+01  0.00000000E+00  9.55249411E+00  9.55249411E+00
 -1.91049882E+01  0.00000000E+00  9.55249411E+00  9.55249411E+00 -1.91049882E+01
  0.00000000E+00  9.55249411E+00  9.55249411E+00 -1.91049882E+01  0.00000000E+00
  9.55249411E+00  9.55249411E+00 -1.91049882E+01  0.00000000E+00  9.55249411E+00
  9.55249411E+00 -1.91049882E+01  0.00000000E+00  9.55249411E+00  9.55249411E+00
 -1.91049882E+01  0.00000000E+00  9.55249411E+00  9.55249411E+00 -1.91049882E+01
  0.00000000E+00  9.55249411E+00  9.55249411E+00 -1.91049882E+01  0.00000000E+00
  9.55249411E+00  9.55249411E+00 -1.91049882E+01  0.00000000E+00  9.55249411E+00
  9.55249411E+00 -1.91049882E+01  0.00000000E+00  9.55249411E+00  9.55249411E+00
 -1.91049882E+01  0.00000000E+00  9.55249411E+00  9.55249411E+00 -1.91049882E+01
  0.00000000E+00  9.55249411E+00  9.55249411E+00 -1.91049882E+01  0.00000000E+00
  9.55249411E+00  9.55249411E+00 -1.91049882E+01  0.00000000E+00  9.55249411E+00
  9.55249411E+00 -1.91049882E+01  0.00000000E+00  9.55249411E+00  9.55249411E+00
 -1.91049882E+01  0.00000000E+00  9.55249411E+00  9.55249411E+00 -1.91049882E+01
  0.00000000E+00  9.55249411E+00  9.55249411E+00 -1.91049882E+01  0.00000000E+00
  9.55249411E+00  9.55249411E+00 -1.91049882E+01  0.00000000E+00  9.55249411E+00
  9.55249411E+00 -1.91049882E+01  0.00000000E+00  9.55249411E+00  9.55249411E+00
 -1.91049882E+01  0.00000000E+00  9.55249411E+00  9.55249411E+00 -1.91049882E+01
  0.00000000E+00  9.55249411E+00  9.55249411E+00 -1.91049882E+01  0.00000000E+00
  9.55249411E+00  9.55249411E+00 -1.91049882E+01  0.00000000E+00  9.55249411E+00
  9.55249411E+00 -1.91049882E+01  0.00000000E+00  9.55249411E+00  9.55249411E+00
 -1.91049882E+01  0.00000000E+00  9.55249411E+00  9.55249411E+00 -1.91049882E+01
  0.00000000E+00  9.55249411E+00  9.55249411E+00 -1.91049882E+01  0.00000000E+00
  9.55249411E+00  9.55249411E+00 -1.91049882E+01  0.00000000E+00  9.55249411E+00
  9.55249411E+00 -1.91049882E+01  0.00000000E+00  9.55249411E+00  9.55249411E+00
 -1.91049882E+01  0.00000000E+00  9.55249411E+00  9.55249411E+00 -1.91049882E+01
  0.00000000E+00  9.55249411E+00  9.55249411E+00 -1.91049882E+01  0.00000000E+00
  9.55249411E+00  9.55249411E+00 -1.91049882E+01  0.00000000E+00  9.55249411E+00
  9.55249411E+00 -1.91049882E+01  0.00000000E+00  9.55249411E+00  9.55249411E+00
 -1.91049882E+01  0.00000000E+00  9.55249411E+00  9.55249411E+00 -1.91049882E+01
  0.00000000E+00  9.55249411E+00  9.55249411E+00 -1.91049882E+01  0.00000000E+00
  9.55249411E+00  9.55249411E+00 -1.91049882E+01  0.00000000E+00  9.55249411E+00
  9.55249411E+00 -1.91049882E+01  0.00000000E+00  9.55249411E+00  9.55249411E+00
 -1.91049882E+01  0.00000000E+00  9.55249411E+00  9.55249411E+00 -1.91049882E+01
  0.00000000E+00  9.55249411E+00  9.55249411E+00 -1.91049882E+01  0.00000000E+00
  9.55249411E+00  9.55249411E+00 -1.91049882E+01  0.00000000E+00  9.55249411E+00
  9.55249411E+00 -1.91049882E+01  0.00000000E+00  9.55249411E+00  9.55249411E+00
 -1.91049882E+01  0.00000000E+00  9.55249411E+00  9.55249411E+00 -1.91049882E+01
  0.00000000E+00  9.55249411E+00  9.55249411E+00 -1.91049882E+01  0.00000000E+00
  9.55249411E+00  9.55249411E+00 -1.91049882E+01  0.00000000E+00  9.55249411E+00
  9.55249411E+00 -1.91049882E+01  0.00000000E+00  9.55249411E+00  9.55249411E+00
 -1.91049882E+01  0.00000000E+00  9.55249411E+00  9.55249411E+00 -1.91049882E+01
  0.00000000E+00  9.55249411E+00  9.55249411E+00 -1.91049882E+01  0.00000000E+00
  9.55249411E+00  9.55249411E+00 -1.91049882E+01  0.00000000E+00  9.55249411E+00
  9.55249411E+00 -1.91049882E+01  0.00000000E+00  9.55249411E+00  9.55249411E+00
 -1.91049882E+01  0.00000000E+00  9.55249411E+00  9.55249411E+00 -1.91049882E+01
  0.00000000E+00  9.55249411E+00  9.55249411E+00 -1.91049882E+01  0.00000000E+00
  9.55249411E+00  9.55249411E+00 -1.91049882E+01  0.00000000E+00  9.55249411E+00
  9.55249411E+00 -1.91049882E+01  0.00000000E+00  9.55249411E+00  9.55249411E+00
 -1.91049882E+01  0.00000000E+00  9.55249411E+00  9.55249411E+00 -1.91049882E+01
  0.00000000E+00  9.55249411E+00  9.55249411E+00 -1.91049882E+01  0.00000000E+00
  9.55249411E+00  9.55249411E+00 -1.91049882E+01  0.00000000E+00  9.55249411E+00
  9.55249411E+00 -1.91049882E+01  0.00000000E+00  9.55249411E+00  9.55249411E+00
 -1.91049882E+01  0.00000000E+00  9.55249411E+00  9.55249411E+00 -1.91049882E+01
  0.00000000E+00  9.55249411E+00  9.55249411E+00 -1.91049882E+01  0.00000000E+00
  9.55249411E+00  9.55249411E+00 -1.91049882E+01  0.00000000E+00  9.55249411E+00
  9.55249411E+00 -1.91049882E+01  0.00000000E+00  9.55249411E+00  9.55249411E+00
 -1.91049882E+01  0.00000000E+00  9.55249411E+00  9.55249411E+00 -1.91049882E+01
  0.00000000E+00  9.55249411E+00  9.55249411E+00 -1.91049882E+01  0.00000000E+00
  9.55249411E+00  9.55249411E+00 -1.91049882E+01  0.00000000E+00  9.55249411E+00
  9.55249411E+00 -1.91049882E+01  0.00000000E+00  9.55249411E+00  9.55249411E+00
 -1.91049882E+01  0.00000000E+00  9.55249411E+00  9.55249411E+00 -1.91049882E+01
  0.00000000E+00  9.55249411E+00  9.55249411E+00 -1.91049882E+01  0.00000000E+00
  9.55249411E+00  9.55249411E+00 -1.91049882E+01  0.00000000E+00  9.55249411E+00
  9.55249411E+00 -1.91049882E+01  0.00000000E+00  9.55249411E+00  9.55249411E+00
 -1.91049882E+01  0.00000000E+00  9.55249411E+00  9.55249411E+00 -1.91049882E+01
  0.00000000E+00  9.55249411E+00  9.55249411E+00 -1.91049882E+01  0.00000000E+00
  9.55249411E+00  9.55249411E+00 -1.91049882E+01  0.00000000E+00  9.55249411E+00
  9.55249411E+00 -1.91049882E+01  0.00000000E+00  9.55249411E+00  9.55249411E+00
 -1.91049882E+01  0.00000000E+00  9.55249411E+00  9.55249411E+00 -1.91049882E+01
  0.00000000E+00  9.55249411E+00  9.55249411E+00 -1.91049882E+01  0.00000000E+00
  9.55249411E+00  9.55249411E+00 -1.91049882E+01  0.00000000E+00  9.55249411E+00
  9.55249411E+00 -1.91049882E+01  0.00000000E+00  9.55249411E+00  9.55249411E+00
 -1.91049882E+01  0.00000000E+00  9.55249411E+00  9.55249411E+00 -1.91049882E+01
  0.00000000E+00  9.55249411E+00  9.55249411E+00 -1.91049882E+01  0.00000000E+00
  9.55249411E+00  9.55249411E+00 -1.91049882E+01  0.00000000E+00  9.55249411E+00
  9.55249411E+00 -1.91049882E+01  0.00000000E+00  9.55249411E+00  9.55249411E+00
 -1.91049882E+01  0.00000000E+00  9.55249411E+00  9.55249411E+00 -1.91049882E+01
  0.00000000E+00  9.55249411E+00  9.55249411E+00 -1.91049882E+01  0.00000000E+00
  9.55249411E+00  9.55249411E+00 -1.91049882E+01  0.00000000E+00  9.55249411E+00
  9.55249411E+00 -1.91049882E+01  0.00000000E+00  9.55249411E+00  9.55249411E+00
 -1.91049882E+01  0.00000000E+00  9.55249411E+00  9.55249411E+00 -1.91049882E+01
  0.00000000E+00  9.55249411E+00  9.55249411E+00 -1.91049882E+01  0.00000000E+00
  9.55249411E+00  9.55249411E+00 -1.91049882E+01  0.00000000E+00  9.55249411E+00
  9.55249411E+00 -1.91049882E+01  0.00000000E+00  9.55249411E+00  9.55249411E+00
 -1.91049882E+01  0.00000000E+00  9.55249411E+00  9.55249411E+00 -1.91049882E+01
  0.00000000E+00  9.55249411E+00  9.55249411E+00 -1.91049882E+01  0.00000000E+00
  9.55249411E+00  9.55249411E+00 -1.91049882E+01  0.00000000E+00  9.55249411E+00
  9.55249411E+00 -1.91049882E+01  0.00000000E+00  9.55249411E+00  9.55249411E+00
 -1.91049882E+01  0.00000000E+00  9.55249411E+00  9.55249411E+00 -1.91049882E+01
  0.00000000E+00  9.55249411E+00  9.55249411E+00 -1.91049882E+01  0.00000000E+00
  9.55249411E+00  9.55249411E+00 -1.91049882E+01  0.00000000E+00  9.55249411E+00
  9.55249411E+00 -1.91049882E+01  0.00000000E+00  9.55249411E+00  9.55249411E+00
 -1.91049882E+01  0.00000000E+00  9.55249411E+00  9.55249411E+00 -1.91049882E+01
  0.00000000E+00  9.55249411E+00  9.55249411E+00 -1.91049882E+01  0.00000000E+00
  9.55249411E+00  9.55249411E+00 -1.91049882E+01  0.00000000E+00  9.55249411E+00
  9.55249411E+00 -1.91049882E+01  0.00000000E+00  9.55249411E+00  9.55249411E+00
 -1.91049882E+01  0.00000000E+00  9.55249411E+00  9.55249411E+00 -1.91049882E+01
  0.00000000E+00  9.55249411E+00  9.55249411E+00 -1.91049882E+01  0.00000000E+00
  9.55249411E+00  9.55249411E+00 -1.91049882E+01  0.00000000E+00  9.55249411E+00
  9.55249411E+00 -1.91049882E+01  0.00000000E+00  9.55249411E+00  9.55249411E+00
 -1.91049882E+01  0.00000000E+00  9.55249411E+00  9.55249411E+00 -1.91049882E+01
  0.00000000E+00  9.55249411E+00  9.55249411E+00 -1.91049882E+01  0.00000000E+00
  9.55249411E+00  9.55249411E+00 -1.91049882E+01  0.00000000E+00  9.55249411E+00
  9.55249411E+00 -1.91049882E+01  0.00000000E+00  9.55249411E+00  9.55249411E+00
 -1.91049882E+01  0.00000000E+00  9.55249411E+00  9.55249411E+00 -1.91049882E+01
  0.00000000E+00  9.55249411E+00  9.55249411E+00 -1.91049882E+01  0.00000000E+00
  9.55249411E+00  9.55249411E+00 -1.91049882E+01  0.00000000E+00  9.55249411E+00
  9.55249411E+00 -1.91049882E+01  0.00000000E+00  9.55249411E+00  9.55249411E+00
 -1.91049882E+01  0.00000000E+00  9.55249411E+00  9.55249411E+00 -1.91049882E+01
  0.00000000E+00  9.55249411E+00  9.55249411E+00 -1.91049882E+01  0.00000000E+00
  9.55249411E+00  9.55249411E+00 -1.91049882E+01  0.00000000E+00  9.55249411E+00
  9.55249411E+00 -1.91049882E+01  0.00000000E+00  9.55249411E+00  9.55249411E+00
 -1.91049882E+01  0.00000000E+00  9.55249411E+00  9.55249411E+00 -1.91049882E+01
  0.00000000E+00  9.55249411E+00  9.55249411E+00 -1.91049882E+01  0.00000000E+00
  9.55249411E+00  9.55249411E+00 -1.91049882E+01  0.00000000E+00  9.55249411E+00
  9.55249411E+00 -1.91049882E+01  0.00000000E+00  9.55249411E+00  9.55249411E+00
 -1.91049882E+01  0.00000000E+00  9.55249411E+00  9.55249411E+00 -1.91049882E+01
  0.00000000E+00  9.55249411E+00  9.55249411E+00 -1.91049882E+01  0.00000000E+00
  9.55249411E+00  9.55249411E+00 -1.91049882E+01  0.00000000E+00  9.55249411E+00
  9.55249411E+00 -1.91049882E+01  0.00000000E+00  9.55249411E+00  9.55249411E+00
 -1.91049882E+01  0.00000000E+00  9.55249411E+00  9.55249411E+00 -1.91049882E+01
  0.00000000E+00  9.55249411E+00  9.55249411E+00 -1.91049882E+01  0.00000000E+00
  9.55249411E+00  9.55249411E+00 -1.91049882E+01  0.00000000E+00  9.55249411E+00
  9.55249411E+00 -1.91049882E+01  0.00000000E+00  9.55249411E+00  9.55249411E+00
 -1.91049882E+01  0.00000000E+00  9.55249411E+00  9.55249411E+00 -1.91049882E+01
  0.00000000E+00  9.55249411E+00  9.55249411E+00 -1.91049882E+01  0.00000000E+00
  9.55249411E+00  9.55249411E+00 -1.91049882E+01  0.00000000E+00  9.55249411E+00
  9.55249411E+00 -1.91049882E+01  0.00000000E+00  9.55249411E+00  9.55249411E+00
 -1.91049882E+01  0.00000000E+00  9.55249411E+00  9.55249411E+00 -1.91049882E+01
  0.00000000E+00  9.55249411E+00  9.55249411E+00 -1.91049882E+01  0.00000000E+00
  9.55249411E+00  9.55249411E+00 -1.91049882E+01  0.00000000E+00  9.55249411E+00
  9.55249411E+00 -1.91049882E+01  0.00000000E+00  9.55249411E+00  9.55249411E+00
 -1.91049882E+01  0.00000000E+00  9.55249411E+00  9.55249411E+00 -1.91049882E+01
  0.00000000E+00  9.55249411E+00  9.55249411E+00 -1.91049882E+01  0.00000000E+00
  9.55249411E+00  9.55249411E+00 -1.91049882E+01  0.00000000E+00  9.55249411E+00
  9.55249411E+00 -1.91049882E+01  0.00000000E+00  9.55249411E+00  9.55249411E+00
 -1.91049882E+01  0.00000000E+00  9.55249411E+00  9.55249411E+00 -1.91049882E+01
  0.00000000E+00  9.55249411E+00  9.55249411E+00 -1.91049882E+01  0.00000000E+00
  9.55249411E+00  9.55249411E+00 -1.91049882E+01  0.00000000E+00  9.55249411E+00
  9.55249411E+00 -1.91049882E+01  0.00000000E+00  9.55249411E+00  9.55249411E+00
 -1.91049882E+01  0.00000000E+00  9.55249411E+00  9.55249411E+00 -1.91049882E+01
  0.00000000E+00  9.55249411E+00  9.55249411E+00 -1.91049882E+01  0.00000000E+00
  9.55249411E+00  9.55249411E+00 -1.91049882E+01  0.00000000E+00  9.55249411E+00
  9.55249411E+00 -1.91049882E+01  0.00000000E+00  9.55249411E+00  9.55249411E+00
 -1.91049882E+01  0.00000000E+00  9.55249411E+00  9.55249411E+00 -1.91049882E+01
  0.00000000E+00  9.55249411E+00  9.55249411E+00 -1.91049882E+01  0.00000000E+00
  9.55249411E+00  9.55249411E+00 -1.91049882E+01  0.00000000E+00  9.55249411E+00
  9.55249411E+00 -1.91049882E+01  0.00000000E+00  9.55249411E+00  9.55249411E+00
 -1.91049882E+01  0.00000000E+00  9.55249411E+00  9.55249411E+00 -1.91049882E+01
  0.00000000E+00  9.55249411E+00  9.55249411E+00 -1.91049882E+01  0.00000000E+00
  9.55249411E+00  9.55249411E+00 -1.91049882E+01  0.00000000E+00  9.55249411E+00
  9.55249411E+00 -1.91049882E+01  0.00000000E+00  9.55249411E+00  9.55249411E+00
 -1.91049882E+01  0.00000000E+00  9.55249411E+00  9.55249411E+00 -1.91049882E+01
  0.00000000E+00  9.55249411E+00  9.55249411E+00 -1.91049882E+01  0.00000000E+00
  9.55249411E+00  9.55249411E+00 -1.91049882E+01  0.00000000E+00  9.55249411E+00
  9.55249411E+00 -1.91049882E+01  0.00000000E+00  9.55249411E+00  9.55249411E+00
 -1.91049882E+01  0.00000000E+00  9.55249411E+00  9.55249411E+00 -1.91049882E+01
  0.00000000E+00  9.55249411E+00  9.55249411E+00 -1.91049882E+01  0.00000000E+00
  9.55249411E+00  9.55249411E+00 -1.91049882E+01  0.00000000E+00  9.55249411E+00
  9.55249411E+00 -1.91049882E+01  0.00000000E+00  9.55249411E+00  9.55249411E+00
 -1.91049882E+01  0.00000000E+00  9.55249411E+00  9.55249411E+00 -1.91049882E+01
  0.00000000E+00  9.55249411E+00  9.55249411E+00 -1.91049882E+01  0.00000000E+00
  9.55249411E+00  9.55249411E+00 -1.91049882E+01  0.00000000E+00  9.55249411E+00
  9.55249411E+00 -1.91049882E+01  0.00000000E+00  9.55249411E+00  9.55249411E+00
 -1.91049882E+01  0.00000000E+00  9.55249411E+00  9.55249411E+00 -1.91049882E+01
  0.00000000E+00  9.55249411E+00  9.55249411E+00 -1.91049882E+01  0.00000000E+00
  9.55249411E+00  9.55249411E+00 -1.91049882E+01  0.00000000E+00  9.55249411E+00
  9.55249411E+00 -1.91049882E+01  0.00000000E+00  9.55249411E+00  9.55249411E+00
 -1.91049882E+01  0.00000000E+00  9.55249411E+00  9.55249411E+00 -1.91049882E+01
  0.00000000E+00  9.55249411E+00  9.55249411E+00 -1.91049882E+01  0.00000000E+00
  9.55249411E+00  9.55249411E+00 -1.91049882E+01  0.00000000E+00  9.55249411E+00
  9.55249411E+00 -1.91049882E+01  0.00000000E+00  9.55249411E+00  9.55249411E+00
 -1.91049882E+01  0.00000000E+00  9.55249411E+00  9.55249411E+00 -1.91049882E+01
  0.00000000E+00  9.55249411E+00  9.55249411E+00 -1.91049882E+01  0.00000000E+00
  9.55249411E+00  9.55249411E+00 -1.91049882E+01  0.00000000E+00  9.55249411E+00
  9.55249411E+00 -1.91049882E+01  0.00000000E+00  9.55249411E+00  9.55249411E+00
 -1.91049882E+01  0.00000000E+00  9.55249411E+00  9.55249411E+00 -1.91049882E+01
  0.00000000E+00  9.55249411E+00  9.55249411E+00 -1.91049882E+01  0.00000000E+00
  9.55249411E+00  9.55249411E+00 -1.91049882E+01  0.00000000E+00  9.55249411E+00
  9.55249411E+00 -1.91049882E+01  0.00000000E+00  9.55249411E+00  9.55249411E+00
 -1.91049882E+01  0.00000000E+00  9.55249411E+00  9.55249411E+00 -1.91049882E+01
  0.00000000E+00  9.55249411E+00  9.55249411E+00 -1.91049882E+01  0.00000000E+00
  9.55249411E+00  9.55249411E+00 -1.91049882E+01  0.00000000E+00  9.55249411E+00
  9.55249411E+00 -1.91049882E+01  0.00000000E+00  9.55249411E+00  9.55249411E+00
 -1.91049882E+01  0.00000000E+00  9.55249411E+00  9.55249411E+00 -1.91049882E+01
  0.00000000E+00  9.55249411E+00  9.55249411E+00 -1.91049882E+01  0.00000000E+00
  9.55249411E+00  9.55249411E+00 -1.91049882E+01  0.00000000E+00  9.55249411E+00
  9.55249411E+00 -1.91049882E+01  0.00000000E+00  9.55249411E+00  9.55249411E+00
 -1.91049882E+01  0.00000000E+00  9.55249411E+00  9.55249411E+00 -1.91049882E+01
  0.00000000E+00  9.55249411E+00  9.55249411E+00 -1.91049882E+01  0.00000000E+00
  9.55249411E+00  9.55249411E+00 -1.91049882E+01  0.00000000E+00  9.55249411E+00
  9.55249411E+00 -1.91049882E+01  0.00000000E+00  9.55249411E+00  9.55249411E+00
 -1.91049882E+01  0.00000000E+00  9.55249411E+00  9.55249411E+00 -1.91049882E+01
  0.00000000E+00  9.55249411E+00  9.55249411E+00 -1.91049882E+01  0.00000000E+00
  9.55249411E+00  9.55249411E+00 -1.91049882E+01  0.00000000E+00  9.55249411E+00
  9.55249411E+00 -1.91049882E+01  0.00000000E+00  9.55249411E+00  9.55249411E+00
 -1.91049882E+01  0.00000000E+00  9.55249411E+00  9.55249411E+00 -1.91049882E+01
  0.00000000E+00  9.55249411E+00  9.55249411E+00 -1.91049882E+01  0.00000000E+00
  9.55249411E+00  9.55249411E+00 -1.91049882E+01  0.00000000E+00  9.55249411E+00
  9.55249411E+00 -1.91049882E+01  0.00000000E+00  9.55249411E+00  9.55249411E+00
 -1.91049882E+01  0.00000000E+00  9.55249411E+00  9.55249411E+00 -1.91049882E+01
  0.00000000E+00  9.55249411E+00  9.55249411E+00 -1.91049882E+01  0.00000000E+00
  9.55249411E+00  9.55249411E+00 -1.91049882E+01  0.00000000E+00  9.55249411E+00
  9.55249411E+00 -1.91049882E+01  0.00000000E+00  9.55249411E+00  9.55249411E+00
 -1.91049882E+01  0.00000000E+00  9.55249411E+00  9.55249411E+00 -1.91049882E+01
  0.00000000E+00  9.55249411E+00  9.55249411E+00 -1.91049882E+01  0.00000000E+00
  9.55249411E+00  9.55249411E+00 -1.91049882E+01  0.00000000E+00  9.55249411E+00
  9.55249411E+00 -1.91049882E+01  0.00000000E+00  9.55249411E+00  9.55249411E+00
 -1.91049882E+01  0.00000000E+00  9.55249411E+00  9.55249411E+00 -1.91049882E+01
  0.00000000E+00  9.55249411E+00  9.55249411E+00 -1.91049882E+01  0.00000000E+00
  9.55249411E+00  9.55249411E+00 -1.91049882E+01  0.00000000E+00  9.55249411E+00
  9.55249411E+00 -1.91049882E+01  0.00000000E+00  9.55249411E+00  9.55249411E+00
 -1.91049882E+01  0.00000000E+00  9.55249411E+00  9.55249411E+00 -1.91049882E+01
  0.00000000E+00  9.55249411E+00  9.55249411E+00 -1.91049882E+01  0.00000000E+00
  9.55249411E+00  9.55249411E+00 -1.91049882E+01  0.00000000E+00  9.55249411E+00
  9.55249411E+00 -1.91049882E+01  0.00000000E+00  9.55249411E+00  9.55249411E+00
 -1.91049882E+01  0.00000000E+00  9.55249411E+00  9.55249411E+00 -1.91049882E+01
  0.00000000E+00  9.55249411E+00  9.55249411E+00 -1.91049882E+01  0.00000000E+00
  9.55249411E+00  9.55249411E+00 -1.91049882E+01  0.00000000E+00  9.55249411E+00
  9.55249411E+00 -1.91049882E+01  0.00000000E+00  9.55249411E+00  9.55249411E+00
 -1.91049882E+01  0.00000000E+00  9.55249411E+00  9.55249411E+00 -1.91049882E+01
  0.00000000E+00  9.55249411E+00  9.55249411E+00 -1.91049882E+01  0.00000000E+00
  9.55249411E+00  9.55249411E+00 -1.91049882E+01  0.00000000E+00  9.55249411E+00
  9.55249411E+00 -1.91049882E+01  0.00000000E+00  9.55249411E+00  9.55249411E+00
 -1.91049882E+01  0.00000000E+00  9.55249411E+00  9.55249411E+00 -1.91049882E+01
  0.00000000E+00  9.55249411E+00  9.55249411E+00 -1.91049882E+01  0.00000000E+00
  9.55249411E+00  9.55249411E+00 -1.91049882E+01  0.00000000E+00  9.55249411E+00
  9.55249411E+00 -1.91049882E+01  0.00000000E+00  9.55249411E+00  9.55249411E+00
 -1.91049882E+01  0.00000000E+00  9.55249411E+00  9.55249411E+00 -1.91049882E+01
  0.00000000E+00  9.55249411E+00  9.55249411E+00 -1.91049882E+01  0.00000000E+00
  9.55249411E+00  9.55249411E+00 -1.91049882E+01  0.00000000E+00  9.55249411E+00
  9.55249411E+00 -1.91049882E+01  0.00000000E+00  9.55249411E+00  9.55249411E+00
 -1.91049882E+01  0.00000000E+00  9.55249411E+00  9.55249411E+00 -1.91049882E+01
  0.00000000E+00  9.55249411E+00  9.55249411E+00 -1.91049882E+01  0.00000000E+00
  9.55249411E+00  9.55249411E+00 -1.91049882E+01  0.00000000E+00  9.55249411E+00
  9.55249411E+00 -1.91049882E+01  0.00000000E+00  9.55249411E+00  9.55249411E+00
 -1.91049882E+01  0.00000000E+00  9.55249411E+00  9.55249411E+00 -1.91049882E+01
  0.00000000E+00  9.55249411E+00  9.55249411E+00 -1.91049882E+01  0.00000000E+00
  9.55249411E+00  9.55249411E+00 -1.91049882E+01  0.00000000E+00  9.55249411E+00
  9.55249411E+00 -1.91049882E+01  0.00000000E+00  9.55249411E+00  9.55249411E+00
 -1.91049882E+01  0.00000000E+00  9.55249411E+00  9.55249411E+00 -1.91049882E+01
  0.00000000E+00  9.55249411E+00  9.55249411E+00 -1.91049882E+01  0.00000000E+00
  9.55249411E+00  9.55249411E+00 -1.91049882E+01  0.00000000E+00  9.55249411E+00
  9.55249411E+00 -1.91049882E+01  0.00000000E+00  9.55249411E+00  9.55249411E+00
 -1.91049882E+01  0.00000000E+00  9.55249411E+00  9.55249411E+00 -1.91049882E+01
  0.00000000E+00  9.55249411E+00  9.55249411E+00 -1.91049882E+01  0.00000000E+00
  9.55249411E+00  9.55249411E+00 -1.91049882E+01  0.00000000E+00  9.55249411E+00
  9.55249411E+00 -1.91049882E+01  0.00000000E+00  9.55249411E+00  9.55249411E+00
 -1.91049882E+01  0.00000000E+00  9.55249411E+00  9.55249411E+00 -1.91049882E+01
  0.00000000E+00  9.55249411E+00  9.55249411E+00 -1.91049882E+01  0.00000000E+00
  9.55249411E+00  9.55249411E+00 -1.91049882E+01  0.00000000E+00  9.55249411E+00
  9.55249411E+00 -1.91049882E+01  0.00000000E+00  9.55249411E+00  9.55249411E+00
 -1.91049882E+01  0.00000000E+00  9.55249411E+00  9.55249411E+00 -1.91049882E+01
  0.00000000E+00  9.55249411E+00  9.55249411E+00 -1.91049882E+01  0.00000000E+00
  9.55249411E+00  9.55249411E+00 -1.91049882E+01  0.00000000E+00  9.55249411E+00
  9.55249411E+00 -1.91049882E+01  0.00000000E+00  9.55249411E+00  9.55249411E+00
 -1.91049882E+01  0.00000000E+00  9.55249411E+00  9.55249411E+00 -1.91049882E+01
  0.00000000E+00  9.55249411E+00  9.55249411E+00 -1.91049882E+01  0.00000000E+00
  9.55249411E+00  9.55249411E+00 -1.91049882E+01  0.00000000E+00  9.55249411E+00
  9.55249411E+00 -1.91049882E+01  0.00000000E+00  9.55249411E+00  9.55249411E+00
 -1.91049882E+01  0.00000000E+00  9.55249411E+00  9.55249411E+00 -1.91049882E+01
  0.00000000E+00  9.55249411E+00  9.55249411E+00 -1.91049882E+01  0.00000000E+00
  9.55249411E+00  9.55249411E+00 -1.91049882E+01  0.00000000E+00  9.55249411E+00
  9.55249411E+00 -1.91049882E+01  0.00000000E+00  9.55249411E+00  9.55249411E+00
 -1.91049882E+01  0.00000000E+00  9.55249411E+00  9.55249411E+00 -1.91049882E+01
  0.00000000E+00  9.55249411E+00  9.55249411E+00 -1.91049882E+01  0.00000000E+00
  9.55249411E+00  9.55249411E+00 -1.91049882E+01  0.00000000E+00  9.55249411E+00
  9.55249411E+00 -1.91049882E+01  0.00000000E+00  9.55249411E+00  9.55249411E+00
 -1.91049882E+01  0.00000000E+00  9.55249411E+00  9.55249411E+00 -1.91049882E+01
  0.00000000E+00  9.55249411E+00  9.55249411E+00 -1.91049882E+01  0.00000000E+00
  9.55249411E+00  9.55249411E+00 -1.91049882E+01  0.00000000E+00  9.55249411E+00
  9.55249411E+00 -1.91049882E+01  0.00000000E+00  9.55249411E+00  9.55249411E+00
 -1.91049882E+01  0.00000000E+00  9.55249411E+00  9.55249411E+00 -1.91049882E+01
  0.00000000E+00  9.55249411E+00  9.55249411E+00 -1.91049882E+01  0.00000000E+00
  9.55249411E+00  9.55249411E+00 -1.91049882E+01  0.00000000E+00  9.55249411E+00
  9.55249411E+00 -1.91049882E+01  0.00000000E+00  9.55249411E+00  9.55249411E+00
 -1.91049882E+01  0.00000000E+00  9.55249411E+00  9.55249411E+00 -1.91049882E+01
  0.00000000E+00  9.55249411E+00  9.55249411E+00 -1.91049882E+01  0.00000000E+00
  9.55249411E+00  9.55249411E+00 -1.91049882E+01  0.00000000E+00  9.55249411E+00
  9.55249411E+00 -1.91049882E+01  0.00000000E+00  9.55249411E+00  9.55249411E+00
 -1.91049882E+01  0.00000000E+00  9.55249411E+00  9.55249411E+00 -1.91049882E+01
  0.00000000E+00  9.55249411E+00  9.55249411E+00 -1.91049882E+01  0.00000000E+00
  9.55249411E+00  9.55249411E+00 -1.91049882E+01  0.00000000E+00  9.55249411E+00
  9.55249411E+00 -1.91049882E+01  0.00000000E+00  9.55249411E+00  9.55249411E+00
 -1.91049882E+01  0.00000000E+00  9.55249411E+00  9.55249411E+00 -1.91049882E+01
  0.00000000E+00  9.55249411E+00  9.55249411E+00 -1.91049882E+01  0.00000000E+00
  9.55249411E+00  9.55249411E+00 -1.91049882E+01  0.00000000E+00  9.55249411E+00
  9.55249411E+00 -1.91049882E+01  0.00000000E+00  9.55249411E+00  9.55249411E+00
 -1.91049882E+01  0.00000000E+00  9.55249411E+00  9.55249411E+00 -1.91049882E+01
  0.00000000E+00  9.55249411E+00  9.55249411E+00 -1.91049882E+01  0.00000000E+00
  9.55249411E+00  9.55249411E+00 -1.91049882E+01  0.00000000E+00  9.55249411E+00
  9.55249411E+00 -1.91049882E+01  0.00000000E+00  9.55249411E+00  9.55249411E+00
 -1.91049882E+01  0.00000000E+00  9.55249411E+00  9.55249411E+00 -1.91049882E+01
  0.00000000E+00  9.55249411E+00  9.55249411E+00 -1.91049882E+01  0.00000000E+00
  9.55249411E+00  9.55249411E+00 -1.91049882E+01  0.00000000E+00  9.55249411E+00
  9.55249411E+00 -1.91049882E+01  0.00000000E+00  9.55249411E+00  9.55249411E+00
 -1.91049882E+01  0.00000000E+00  9.55249411E+00  9.55249411E+00 -1.91049882E+01
  0.00000000E+00  9.55249411E+00  9.55249411E+00 -1.91049882E+01  0.00000000E+00
  9.55249411E+00  9.55249411E+00 -1.91049882E+01  0.00000000E+00  9.55249411E+00
  9.55249411E+00 -1.91049882E+01  0.00000000E+00  9.55249411E+00  9.55249411E+00
 -1.91049882E+01  0.00000000E+00  9.55249411E+00  9.55249411E+00 -1.91049882E+01
  0.00000000E+00  9.55249411E+00  9.55249411E+00 -1.91049882E+01  0.00000000E+00
  9.55249411E+00  9.55249411E+00 -1.91049882E+01  0.00000000E+00  9.55249411E+00
  9.55249411E+00 -1.91049882E+01  0.00000000E+00  9.55249411E+00  9.55249411E+00
 -1.91049882E+01  0.00000000E+00  9.55249411E+00  9.55249411E+00 -1.91049882E+01
  0.00000000E+00  9.55249411E+00  9.55249411E+00 -1.91049882E+01  0.00000000E+00
  9.55249411E+00  9.55249411E+00 -1.91049882E+01  0.00000000E+00  9.55249411E+00
  9.55249411E+00 -1.91049882E+01  0.00000000E+00  9.55249411E+00  9.55249411E+00
 -1.91049882E+01  0.00000000E+00  9.55249411E+00  9.55249411E+00 -1.91049882E+01
  0.00000000E+00  9.55249411E+00  9.55249411E+00 -1.91049882E+01  0.00000000E+00
  9.55249411E+00  9.55249411E+00 -1.91049882E+01  0.00000000E+00  9.55249411E+00
  9.55249411E+00 -1.91049882E+01  0.00000000E+00  9.55249411E+00  9.55249411E+00
 -1.91049882E+01  0.00000000E+00  9.55249411E+00  9.55249411E+00 -1.91049882E+01
  0.00000000E+00  9.55249411E+00  9.55249411E+00 -1.91049882E+01  0.00000000E+00
  9.55249411E+00  9.55249411E+00 -1.91049882E+01  0.00000000E+00  9.55249411E+00
  9.55249411E+00 -1.91049882E+01  0.00000000E+00  9.55249411E+00  9.55249411E+00
 -1.91049882E+01  0.00000000E+00  9.55249411E+00  9.55249411E+00 -1.91049882E+01
  0.00000000E+00  9.55249411E+00  9.55249411E+00 -1.91049882E+01  0.00000000E+00
  9.55249411E+00  9.55249411E+00 -1.91049882E+01  0.00000000E+00  9.55249411E+00
  9.55249411E+00 -1.91049882E+01  0.00000000E+00  9.55249411E+00  9.55249411E+00
 -1.91049882E+01  0.00000000E+00  9.55249411E+00  9.55249411E+00 -1.91049882E+01
  0.00000000E+00  9.55249411E+00  9.55249411E+00 -1.91049882E+01  0.00000000E+00
  9.55249411E+00  9.55249411E+00 -1.91049882E+01  0.00000000E+00  9.55249411E+00
  9.55249411E+00 -1.91049882E+01  0.00000000E+00  9.55249411E+00  9.55249411E+00
 -1.91049882E+01  0.00000000E+00  9.55249411E+00  9.55249411E+00 -1.91049882E+01
  0.00000000E+00  9.55249411E+00  9.55249411E+00 -1.91049882E+01  0.00000000E+00
  9.55249411E+00  9.55249411E+00 -1.91049882E+01  0.00000000E+00  9.55249411E+00
  9.55249411E+00 -1.91049882E+01  0.00000000E+00  9.55249411E+00  9.55249411E+00
 -1.91049882E+01  0.00000000E+00  9.55249411E+00  9.55249411E+00 -1.91049882E+01
  0.00000000E+00  9.55249411E+00  9.55249411E+00 -1.91049882E+01  0.00000000E+00
  9.55249411E+00  9.55249411E+00 -1.91049882E+01  0.00000000E+00  9.55249411E+00
  9.55249411E+00 -1.91049882E+01  0.00000000E+00  9.55249411E+00  9.55249411E+00
 -1.91049882E+01  0.00000000E+00  9.55249411E+00  9.55249411E+00 -1.91049882E+01
  0.00000000E+00  9.55249411E+00  9.55249411E+00 -1.91049882E+01  0.00000000E+00
  9.55249411E+00  9.55249411E+00 -1.91049882E+01  0.00000000E+00  9.55249411E+00
  9.55249411E+00 -1.91049882E+01  0.00000000E+00  9.55249411E+00  9.55249411E+00
 -1.91049882E+01  0.00000000E+00  9.55249411E+00  9.55249411E+00 -1.91049882E+01
  0.00000000E+00  9.55249411E+00  9.55249411E+00 -1.91049882E+01  0.00000000E+00
  9.55249411E+00  9.55249411E+00 -1.91049882E+01  0.00000000E+00  9.55249411E+00
  9.55249411E+00 -1.91049882E+01  0.00000000E+00  9.55249411E+00  9.55249411E+00
 -1.91049882E+01  0.00000000E+00  9.55249411E+00  9.55249411E+00 -1.91049882E+01
  0.00000000E+00  9.55249411E+00  9.55249411E+00 -1.91049882E+01  0.00000000E+00
  9.55249411E+00  9.55249411E+00 -1.91049882E+01  0.00000000E+00  9.55249411E+00
  9.55249411E+00 -1.91049882E+01  0.00000000E+00  9.55249411E+00  9.55249411E+00
 -1.91049882E+01  0.00000000E+00  9.55249411E+00  9.55249411E+00 -1.91049882E+01
  0.00000000E+00  9.55249411E+00  9.55249411E+00 -1.91049882E+01  0.00000000E+00
  9.55249411E+00  9.55249411E+00 -1.91049882E+01  0.00000000E+00  9.55249411E+00
  9.55249411E+00 -1.91049882E+01  0.00000000E+00  9.55249411E+00  9.55249411E+00
 -1.91049882E+01  0.00000000E+00  9.55249411E+00  9.55249411E+00 -1.91049882E+01
  0.00000000E+00  9.55249411E+00  9.55249411E+00 -1.91049882E+01  0.00000000E+00
  9.55249411E+00  9.55249411E+00 -1.91049882E+01  0.00000000E+00  9.55249411E+00
  9.55249411E+00 -1.91049882E+01  0.00000000E+00  9.55249411E+00  9.55249411E+00
 -1.91049882E+01  0.00000000E+00  9.55249411E+00  9.55249411E+00 -1.91049882E+01
  0.00000000E+00  9.55249411E+00  9.55249411E+00 -1.91049882E+01  0.00000000E+00
  9.55249411E+00  9.55249411E+00 -1.91049882E+01  0.00000000E+00  9.55249411E+00
  9.55249411E+00 -1.91049882E+01  0.00000000E+00  9.55249411E+00  9.55249411E+00
 -1.91049882E+01  0.00000000E+00  9.55249411E+00  9.55249411E+00 -1.91049882E+01
  0.00000000E+00  9.55249411E+00  9.55249411E+00 -1.91049882E+01  0.00000000E+00
  9.55249411E+00  9.55249411E+00 -1.91049882E+01  0.00000000E+00  9.55249411E+00
  9.55249411E+00 -1.91049882E+01  0.00000000E+00  9.55249411E+00  9.55249411E+00
 -1.91049882E+01  0.00000000E+00  9.55249411E+00  9.55249411E+00 -1.91049882E+01
  0.00000000E+00  9.55249411E+00  9.55249411E+00 -1.91049882E+01  0.00000000E+00
  9.55249411E+00  9.55249411E+00 -1.91049882E+01  0.00000000E+00  9.55249411E+00
  9.55249411E+00 -1.91049882E+01  0.00000000E+00  9.55249411E+00  9.55249411E+00
 -1.91049882E+01  0.00000000E+00  9.55249411E+00  9.55249411E+00 -1.91049882E+01
  0.00000000E+00  9.55249411E+00  9.55249411E+00 -1.91049882E+01  0.00000000E+00
  9.55249411E+00  9.55249411E+00 -1.91049882E+01  0.00000000E+00  9.55249411E+00
  9.55249411E+00 -1.91049882E+01  0.00000000E+00  9.55249411E+00  9.55249411E+00
 -1.91049882E+01  0.00000000E+00  9.55249411E+00  9.55249411E+00 -1.91049882E+01
  0.00000000E+00  9.55249411E+00  9.55249411E+00 -1.91049882E+01  0.00000000E+00
  9.55249411E+00  9.55249411E+00 -1.91049882E+01  0.00000000E+00  9.55249411E+00
  9.55249411E+00 -1.91049882E+01  0.00000000E+00  9.55249411E+00  9.55249411E+00
 -1.91049882E+01  0.00000000E+00  9.55249411E+00  9.55249411E+00 -1.91049882E+01
  0.00000000E+00  9.55249411E+00  9.55249411E+00 -1.91049882E+01  0.00000000E+00
  9.55249411E+00  9.55249411E+00 -1.91049882E+01  0.00000000E+00  9.55249411E+00
  9.55249411E+00 -1.91049882E+01  0.00000000E+00  9.55249411E+00  9.55249411E+00
 -1.91049882E+01  0.00000000E+00  9.55249411E+00  9.55249411E+00 -1.91049882E+01
  0.00000000E+00  9.55249411E+00  9.55249411E+00 -1.91049882E+01  0.00000000E+00
  9.55249411E+00  9.55249411E+00 -1.91049882E+01  0.00000000E+00  9.55249411E+00
  9.55249411E+00 -1.91049882E+01  0.00000000E+00  9.55249411E+00  9.55249411E+00
 -1.91049882E+01  0.00000000E+00  9.55249411E+00  9.55249411E+00 -1.91049882E+01
  0.00000000E+00  9.55249411E+00  9.55249411E+00 -1.91049882E+01  0.00000000E+00
  9.55249411E+00  9.55249411E+00 -1.91049882E+01  0.00000000E+00  9.55249411E+00
  9.55249411E+00 -1.91049882E+01  0.00000000E+00  9.55249411E+00  9.55249411E+00
 -1.91049882E+01  0.00000000E+00  9.55249411E+00  9.55249411E+00 -1.91049882E+01
  0.00000000E+00  9.55249411E+00  9.55249411E+00 -1.91049882E+01  0.00000000E+00
  9.55249411E+00  9.55249411E+00 -1.91049882E+01  0.00000000E+00  9.55249411E+00
  9.55249411E+00 -1.91049882E+01  0.00000000E+00  9.55249411E+00  9.55249411E+00
 -1.91049882E+01  0.00000000E+00  9.55249411E+00  9.55249411E+00 -1.91049882E+01
  0.00000000E+00  9.55249411E+00  9.55249411E+00 -1.91049882E+01  0.00000000E+00
  9.55249411E+00  9.55249411E+00 -1.91049882E+01  0.00000000E+00  9.55249411E+00
  9.55249411E+00 -1.91049882E+01  0.00000000E+00  9.55249411E+00  9.55249411E+00
 -1.91049882E+01  0.00000000E+00  9.55249411E+00  9.55249411E+00 -1.91049882E+01
  0.00000000E+00  9.55249411E+00  9.55249411E+00 -1.91049882E+01  0.00000000E+00
  9.55249411E+00  9.55249411E+00 -1.91049882E+01  0.00000000E+00  9.55249411E+00
  9.55249411E+00 -1.91049882E+01  0.00000000E+00  9.55249411E+00  9.55249411E+00
 -1.91049882E+01  0.00000000E+00  9.55249411E+00  9.55249411E+00 -1.91049882E+01
  0.00000000E+00  9.55249411E+00  9.55249411E+00 -1.91049882E+01  0.00000000E+00
  9.55249411E+00  9.55249411E+00 -1.91049882E+01  0.00000000E+00  9.55249411E+00
  9.55249411E+00 -1.91049882E+01  0.00000000E+00  9.55249411E+00  9.55249411E+00
 -1.91049882E+01  0.00000000E+00  9.55249411E+00  9.55249411E+00 -1.91049882E+01
  0.00000000E+00  9.55249411E+00  9.55249411E+00 -1.91049882E+01  0.00000000E+00
  9.55249411E+00  9.55249411E+00 -1.91049882E+01  0.00000000E+00  9.55249411E+00
  9.55249411E+00 -1.91049882E+01  0.00000000E+00  9.55249411E+00  9.55249411E+00
 -1.91049882E+01  0.00000000E+00  9.55249411E+00  9.55249411E+00 -1.91049882E+01
  0.00000000E+00  9.55249411E+00  9.55249411E+00 -1.91049882E+01  0.00000000E+00
  9.55249411E+00  9.55249411E+00 -1.91049882E+01  0.00000000E+00  9.55249411E+00
  9.55249411E+00 -1.91049882E+01  0.00000000E+00  9.55249411E+00  9.55249411E+00
 -1.91049882E+01  0.00000000E+00  9.55249411E+00  9.55249411E+00 -1.91049882E+01
  0.00000000E+00  9.55249411E+00  9.55249411E+00 -1.91049882E+01  0.00000000E+00
  9.55249411E+00  9.55249411E+00 -1.91049882E+01  0.00000000E+00  9.55249411E+00
  9.55249411E+00 -1.91049882E+01  0.00000000E+00  9.55249411E+00  9.55249411E+00
 -1.91049882E+01  0.00000000E+00  9.55249411E+00  9.55249411E+00 -1.91049882E+01
  0.00000000E+00  9.55249411E+00  9.55249411E+00 -1.91049882E+01  0.00000000E+00
  9.55249411E+00  9.55249411E+00 -1.91049882E+01  0.00000000E+00  9.55249411E+00
  9.55249411E+00 -1.91049882E+01  0.00000000E+00  9.55249411E+00  9.55249411E+00
 -1.91049882E+01  0.00000000E+00  9.55249411E+00  9.55249411E+00 -1.91049882E+01
  0.00000000E+00  9.55249411E+00  9.55249411E+00 -1.91049882E+01  0.00000000E+00
  9.55249411E+00  9.55249411E+00 -1.91049882E+01  0.00000000E+00  9.55249411E+00
  9.55249411E+00 -1.91049882E+01  0.00000000E+00  9.55249411E+00  9.55249411E+00
 -1.91049882E+01  0.00000000E+00  9.55249411E+00  9.55249411E+00 -1.91049882E+01
  0.00000000E+00  9.55249411E+00  9.55249411E+00 -1.91049882E+01  0.00000000E+00
  9.55249411E+00  9.55249411E+00 -1.91049882E+01  0.00000000E+00  9.55249411E+00
  9.55249411E+00 -1.91049882E+01  0.00000000E+00  9.55249411E+00  9.55249411E+00
 -1.91049882E+01  0.00000000E+00  9.55249411E+00  9.55249411E+00 -1.91049882E+01
  0.00000000E+00  9.55249411E+00  9.55249411E+00 -1.91049882E+01  0.00000000E+00
  9.55249411E+00  9.55249411E+00 -1.91049882E+01  0.00000000E+00  9.55249411E+00
  9.55249411E+00 -1.91049882E+01  0.00000000E+00  9.55249411E+00  9.55249411E+00
 -1.91049882E+01  0.00000000E+00  9.55249411E+00  9.55249411E+00 -1.91049882E+01
  0.00000000E+00  9.55249411E+00  9.55249411E+00 -1.91049882E+01  0.00000000E+00
  9.55249411E+00  9.55249411E+00 -1.91049882E+01  0.00000000E+00  9.55249411E+00
  9.55249411E+00 -1.91049882E+01  0.00000000E+00  9.55249411E+00  9.55249411E+00
 -1.91049882E+01  0.00000000E+00  9.55249411E+00  9.55249411E+00 -1.91049882E+01
  0.00000000E+00  9.55249411E+00  9.55249411E+00 -1.91049882E+01  0.00000000E+00
  9.55249411E+00  9.55249411E+00 -1.91049882E+01  0.00000000E+00  9.55249411E+00
  9.55249411E+00 -1.91049882E+01  0.00000000E+00  9.55249411E+00  9.55249411E+00
 -1.91049882E+01  0.00000000E+00  9.55249411E+00  9.55249411E+00 -1.91049882E+01
  0.00000000E+00  9.55249411E+00  9.55249411E+00 -1.91049882E+01  0.00000000E+00
  9.55249411E+00  9.55249411E+00 -1.91049882E+01  0.00000000E+00  9.55249411E+00
  9.55249411E+00 -1.91049882E+01  0.00000000E+00  9.55249411E+00  9.55249411E+00
 -1.91049882E+01  0.00000000E+00  9.55249411E+00  9.55249411E+00 -1.91049882E+01
  0.00000000E+00  9.55249411E+00  9.55249411E+00 -1.91049882E+01  0.00000000E+00
  9.55249411E+00  9.55249411E+00 -1.91049882E+01  0.00000000E+00  9.55249411E+00
  9.55249411E+00 -1.91049882E+01  0.00000000E+00  9.55249411E+00  9.55249411E+00
 -1.91049882E+01  0.00000000E+00  9.55249411E+00  9.55249411E+00 -1.91049882E+01
  0.00000000E+00  9.55249411E+00  9.55249411E+00 -1.91049882E+01  0.00000000E+00
  9.55249411E+00  9.55249411E+00 -1.91049882E+01  0.00000000E+00  9.55249411E+00
  9.55249411E+00 -1.91049882E+01  0.00000000E+00  9.55249411E+00  9.55249411E+00
 -1.91049882E+01  0.00000000E+00  9.55249411E+00  9.55249411E+00 -1.91049882E+01
  0.00000000E+00  9.55249411E+00  9.55249411E+00 -1.91049882E+01  0.00000000E+00
  9.55249411E+00  9.55249411E+00 -1.91049882E+01  0.00000000E+00  9.55249411E+00
  9.55249411E+00 -1.91049882E+01  0.00000000E+00  9.55249411E+00  9.55249411E+00
 -1.91049882E+01  0.00000000E+00  9.55249411E+00  9.55249411E+00 -1.91049882E+01
  0.00000000E+00  9.55249411E+00  9.55249411E+00 -1.91049882E+01  0.00000000E+00
  9.55249411E+00  9.55249411E+00 -1.91049882E+01  0.00000000E+00  9.55249411E+00
  9.55249411E+00 -1.91049882E+01  0.00000000E+00  9.55249411E+00  9.55249411E+00
 -1.91049882E+01  0.00000000E+00  9.55249411E+00  9.55249411E+00 -1.91049882E+01
  0.00000000E+00  9.55249411E+00  9.55249411E+00 -1.91049882E+01  0.00000000E+00
  9.55249411E+00  9.55249411E+00 -1.91049882E+01  0.00000000E+00  9.55249411E+00
  9.55249411E+00 -1.91049882E+01  0.00000000E+00  9.55249411E+00  9.55249411E+00
 -1.91049882E+01  0.00000000E+00  9.55249411E+00  9.55249411E+00 -1.91049882E+01
  0.00000000E+00  9.55249411E+00  9.55249411E+00 -1.91049882E+01  0.00000000E+00
  9.55249411E+00  9.55249411E+00 -1.91049882E+01  0.00000000E+00  9.55249411E+00
  9.55249411E+00 -1.91049882E+01  0.00000000E+00  9.55249411E+00  9.55249411E+00
 -1.91049882E+01  0.00000000E+00  9.55249411E+00  9.55249411E+00 -1.91049882E+01
  0.00000000E+00  9.55249411E+00  9.55249411E+00 -1.91049882E+01  0.00000000E+00
  9.55249411E+00  9.55249411E+00 -1.91049882E+01  0.00000000E+00  9.55249411E+00
  9.55249411E+00 -1.91049882E+01  0.00000000E+00  9.55249411E+00  9.55249411E+00
 -1.91049882E+01  0.00000000E+00  9.55249411E+00  9.55249411E+00 -1.91049882E+01
  0.00000000E+00  9.55249411E+00  9.55249411E+00 -1.91049882E+01  0.00000000E+00
  9.55249411E+00  9.55249411E+00 -1.91049882E+01  0.00000000E+00  9.55249411E+00
  9.55249411E+00 -1.91049882E+01  0.00000000E+00  9.55249411E+00  9.55249411E+00
 -1.91049882E+01  0.00000000E+00  9.55249411E+00  9.55249411E+00 -1.91049882E+01
  0.00000000E+00  9.55249411E+00  9.55249411E+00 -1.91049882E+01  0.00000000E+00
  9.55249411E+00  9.55249411E+00 -1.91049882E+01  0.00000000E+00  9.55249411E+00
  9.55249411E+00 -1.91049882E+01  0.00000000E+00  9.55249411E+00  9.55249411E+00
 -1.91049882E+01  0.00000000E+00  9.55249411E+00  9.55249411E+00 -1.91049882E+01
  0.00000000E+00  9.55249411E+00  9.55249411E+00 -1.91049882E+01  0.00000000E+00
  9.55249411E+00  9.55249411E+00 -1.91049882E+01  0.00000000E+00  9.55249411E+00
  9.55249411E+00 -1.91049882E+01  0.00000000E+00  9.55249411E+00  9.55249411E+00
 -1.91049882E+01  0.00000000E+00  9.55249411E+00  9.55249411E+00 -1.91049882E+01
  0.00000000E+00  9.55249411E+00  9.55249411E+00 -1.91049882E+01  0.00000000E+00
  9.55249411E+00  9.55249411E+00 -1.91049882E+01  0.00000000E+00  9.55249411E+00
  9.55249411E+00 -1.91049882E+01  0.00000000E+00  9.55249411E+00  9.55249411E+00
 -1.91049882E+01  0.00000000E+00  9.55249411E+00  9.55249411E+00 -1.91049882E+01
  0.00000000E+00  9.55249411E+00  9.55249411E+00 -1.91049882E+01  0.00000000E+00
  9.55249411E+00  9.55249411E+00 -1.91049882E+01  0.00000000E+00  9.55249411E+00
  9.55249411E+00 -1.91049882E+01  0.00000000E+00  9.55249411E+00  9.55249411E+00
 -1.91049882E+01  0.00000000E+00  9.55249411E+00  9.55249411E+00 -1.91049882E+01
  0.00000000E+00  9.55249411E+00  9.55249411E+00 -1.91049882E+01  0.00000000E+00
  9.55249411E+00  9.55249411E+00 -1.91049882E+01  0.00000000E+00  9.55249411E+00
  9.55249411E+00 -1.91049882E+01  0.00000000E+00  9.55249411E+00  9.55249411E+00
 -1.91049882E+01  0.00000000E+00  9.55249411E+00  9.55249411E+00 -1.91049882E+01
  0.00000000E+00  9.55249411E+00  9.55249411E+00 -1.91049882E+01  0.00000000E+00
  9.55249411E+00  9.55249411E+00 -1.91049882E+01  0.00000000E+00  9.55249411E+00
  9.55249411E+00 -1.91049882E+01  0.00000000E+00  9.55249411E+00  9.55249411E+00
 -1.91049882E+01  0.00000000E+00  9.55249411E+00  9.55249411E+00 -1.91049882E+01
  0.00000000E+00  9.55249411E+00  9.55249411E+00 -1.91049882E+01  0.00000000E+00
  9.55249411E+00  9.55249411E+00 -1.91049882E+01  0.00000000E+00  9.55249411E+00
  9.55249411E+00 -1.91049882E+01  0.00000000E+00  9.55249411E+00  9.55249411E+00
 -1.91049882E+01  0.00000000E+00  9.55249411E+00  9.55249411E+00 -1.91049882E+01
  0.00000000E+00  9.55249411E+00  9.55249411E+00 -1.91049882E+01  0.00000000E+00
  9.55249411E+00  9.55249411E+00 -1.91049882E+01  0.00000000E+00  9.55249411E+00
  9.55249411E+00 -1.91049882E+01  0.00000000E+00  9.55249411E+00  9.55249411E+00
 -1.91049882E+01  0.00000000E+00  9.55249411E+00  9.55249411E+00 -1.91049882E+01
  0.00000000E+00  9.55249411E+00  9.55249411E+00 -1.91049882E+01  0.00000000E+00
  9.55249411E+00  9.55249411E+00 -1.91049882E+01  0.00000000E+00  9.55249411E+00
  9.55249411E+00 -1.91049882E+01  0.00000000E+00  9.55249411E+00  9.55249411E+00
 -1.91049882E+01  0.00000000E+00  9.55249411E+00  9.55249411E+00 -1.91049882E+01
  0.00000000E+00  9.55249411E+00  9.55249411E+00 -1.91049882E+01  0.00000000E+00
  9.55249411E+00  9.55249411E+00 -1.91049882E+01  0.00000000E+00  9.55249411E+00
  9.55249411E+00 -1.91049882E+01  0.00000000E+00  9.55249411E+00  9.55249411E+00
 -1.91049882E+01  0.00000000E+00  9.55249411E+00  9.55249411E+00 -1.91049882E+01
  0.00000000E+00  9.55249411E+00  9.55249411E+00 -1.91049882E+01  0.00000000E+00
  9.55249411E+00  9.55249411E+00 -1.91049882E+01  0.00000000E+00  9.55249411E+00
  9.55249411E+00 -1.91049882E+01  0.00000000E+00  9.55249411E+00  9.55249411E+00
 -1.91049882E+01  0.00000000E+00  9.55249411E+00  9.55249411E+00 -1.91049882E+01
  0.00000000E+00  9.55249411E+00  9.55249411E+00 -1.91049882E+01  0.00000000E+00
  9.55249411E+00  9.55249411E+00 -1.91049882E+01  0.00000000E+00  9.55249411E+00
  9.55249411E+00 -1.91049882E+01  0.00000000E+00  9.55249411E+00  9.55249411E+00
 -1.91049882E+01  0.00000000E+00  9.55249411E+00  9.55249411E+00 -1.91049882E+01
  0.00000000E+00  9.55249411E+00  9.55249411E+00 -1.91049882E+01  0.00000000E+00
  9.55249411E+00  9.55249411E+00 -1.91049882E+01  0.00000000E+00  9.55249411E+00
  9.55249411E+00 -1.91049882E+01  0.00000000E+00  9.55249411E+00  9.55249411E+00
 -1.91049882E+01  0.00000000E+00  9.55249411E+00  9.55249411E+00 -1.91049882E+01
  0.00000000E+00  9.55249411E+00  9.55249411E+00 -1.91049882E+01  0.00000000E+00
  9.55249411E+00  9.55249411E+00 -1.91049882E+01  0.00000000E+00  9.55249411E+00
  9.55249411E+00 -1.91049882E+01  0.00000000E+00  9.55249411E+00  9.55249411E+00
 -1.91049882E+01  0.00000000E+00  9.55249411E+00  9.55249411E+00 -1.91049882E+01
  0.00000000E+00  9.55249411E+00  9.55249411E+00 -1.91049882E+01  0.00000000E+00
  9.55249411E+00  9.55249411E+00 -1.91049882E+01  0.00000000E+00  9.55249411E+00
  9.55249411E+00 -1.91049882E+01  0.00000000E+00  9.55249411E+00  9.55249411E+00
 -1.91049882E+01  0.00000000E+00  9.55249411E+00  9.55249411E+00 -1.91049882E+01
  0.00000000E+00  9.55249411E+00  9.55249411E+00 -1.91049882E+01  0.00000000E+00
  9.55249411E+00  9.55249411E+00 -1.91049882E+01  0.00000000E+00  9.55249411E+00
  9.55249411E+00 -1.91049882E+01  0.00000000E+00  9.55249411E+00  9.55249411E+00
 -1.91049882E+01  0.00000000E+00  9.55249411E+00  9.55249411E+00 -1.91049882E+01
  0.00000000E+00  9.55249411E+00  9.55249411E+00 -1.91049882E+01  0.00000000E+00
  9.55249411E+00  9.55249411E+00 -1.91049882E+01  0.00000000E+00  9.55249411E+00
  9.55249411E+00 -1.91049882E+01  0.00000000E+00  9.55249411E+00  9.55249411E+00
 -1.91049882E+01  0.00000000E+00  9.55249411E+00  9.55249411E+00 -1.91049882E+01
  0.00000000E+00  9.55249411E+00  9.55249411E+00 -1.91049882E+01  0.00000000E+00
  9.55249411E+00  9.55249411E+00 -1.91049882E+01  0.00000000E+00  9.55249411E+00
  9.55249411E+00 -1.91049882E+01  0.00000000E+00  9.55249411E+00  9.55249411E+00
 -1.91049882E+01  0.00000000E+00  9.55249411E+00  9.55249411E+00 -1.91049882E+01
  0.00000000E+00  9.55249411E+00  9.55249411E+00 -1.91049882E+01  0.00000000E+00
  9.55249411E+00  9.55249411E+00 -1.91049882E+01  0.00000000E+00  9.55249411E+00
  9.55249411E+00 -1.91049882E+01  0.00000000E+00  9.55249411E+00  9.55249411E+00
 -1.91049882E+01  0.00000000E+00  9.55249411E+00  9.55249411E+00 -1.91049882E+01
  0.00000000E+00  9.55249411E+00  9.55249411E+00 -1.91049882E+01  0.00000000E+00
  9.55249411E+00  9.55249411E+00 -1.91049882E+01  0.00000000E+00  9.55249411E+00
  9.55249411E+00 -1.91049882E+01  0.00000000E+00  9.55249411E+00  9.55249411E+00
 -1.91049882E+01  0.00000000E+00  9.55249411E+00  9.55249411E+00 -1.91049882E+01
  0.00000000E+00  9.55249411E+00  9.55249411E+00 -1.91049882E+01  0.00000000E+00
  9.55249411E+00  9.55249411E+00 -1.91049882E+01  0.00000000E+00  9.55249411E+00
  9.55249411E+00 -1.91049882E+01  0.00000000E+00  9.55249411E+00  9.55249411E+00
 -1.91049882E+01  0.00000000E+00  9.55249411E+00  9.55249411E+00 -1.91049882E+01
  0.00000000E+00  9.55249411E+00  9.55249411E+00 -1.91049882E+01  0.00000000E+00
  9.55249411E+00  9.55249411E+00 -1.91049882E+01  0.00000000E+00  9.55249411E+00
  9.55249411E+00 -1.91049882E+01  0.00000000E+00  9.55249411E+00  9.55249411E+00
 -1.91049882E+01  0.00000000E+00  9.55249411E+00  9.55249411E+00 -1.91049882E+01
  0.00000000E+00  9.55249411E+00  9.55249411E+00 -1.91049882E+01  0.00000000E+00
  9.55249411E+00  9.55249411E+00 -1.91049882E+01  0.00000000E+00  9.55249411E+00
  9.55249411E+00 -1.91049882E+01  0.00000000E+00  9.55249411E+00  9.55249411E+00
 -1.91049882E+01  0.00000000E+00  9.55249411E+00  9.55249411E+00 -1.91049882E+01
  0.00000000E+00  9.55249411E+00  9.55249411E+00 -1.91049882E+01  0.00000000E+00
  9.55249411E+00  9.55249411E+00 -1.91049882E+01  0.00000000E+00  9.55249411E+00
  9.55249411E+00 -1.91049882E+01  0.00000000E+00  9.55249411E+00  9.55249411E+00
 -1.91049882E+01  0.00000000E+00  9.55249411E+00  9.55249411E+00 -1.91049882E+01
  0.00000000E+00  9.55249411E+00  9.55249411E+00 -1.91049882E+01  0.00000000E+00
  9.55249411E+00  9.55249411E+00 -1.91049882E+01  0.00000000E+00  9.55249411E+00
  9.55249411E+00 -1.91049882E+01  0.00000000E+00  9.55249411E+00  9.55249411E+00
 -1.91049882E+01  0.00000000E+00  9.55249411E+00  9.55249411E+00 -1.91049882E+01
  0.00000000E+00  9.55249411E+00  9.55249411E+00 -1.91049882E+01  0.00000000E+00
  9.55249411E+00  9.55249411E+00 -1.91049882E+01  0.00000000E+00  9.55249411E+00
  9.55249411E+00 -1.91049882E+01  0.00000000E+00  9.55249411E+00  9.55249411E+00
 -1.91049882E+01  0.00000000E+00  9.55249411E+00  9.55249411E+00 -1.91049882E+01
  0.00000000E+00  9.55249411E+00  9.55249411E+00 -1.91049882E+01  0.00000000E+00
  9.55249411E+00  9.55249411E+00 -1.91049882E+01  0.00000000E+00  9.55249411E+00
  9.55249411E+00 -1.91049882E+01  0.00000000E+00  9.55249411E+00  9.55249411E+00
 -1.91049882E+01  0.00000000E+00  9.55249411E+00  9.55249411E+00 -1.91049882E+01
  0.00000000E+00  9.55249411E+00  9.55249411E+00 -1.91049882E+01  0.00000000E+00
  9.55249411E+00  9.55249411E+00 -1.91049882E+01  0.00000000E+00  9.55249411E+00
  9.55249411E+00 -1.91049882E+01  0.00000000E+00  9.55249411E+00  9.55249411E+00
 -1.91049882E+01  0.00000000E+00  9.55249411E+00  9.55249411E+00 -1.91049882E+01
  0.00000000E+00  9.55249411E+00  9.55249411E+00 -1.91049882E+01  0.00000000E+00
  9.55249411E+00  9.55249411E+00 -1.91049882E+01  0.00000000E+00  9.55249411E+00
  9.55249411E+00 -1.91049882E+01  0.00000000E+00  9.55249411E+00  9.55249411E+00
 -1.91049882E+01  0.00000000E+00  9.55249411E+00  9.55249411E+00 -1.91049882E+01
  0.00000000E+00  9.55249411E+00  9.55249411E+00 -1.91049882E+01  0.00000000E+00
  9.55249411E+00  9.55249411E+00 -1.91049882E+01  0.00000000E+00  9.55249411E+00
  9.55249411E+00 -1.91049882E+01  0.00000000E+00  9.55249411E+00  9.55249411E+00
 -1.91049882E+01  0.00000000E+00  9.55249411E+00  9.55249411E+00 -1.91049882E+01
  0.00000000E+00  9.55249411E+00  9.55249411E+00 -1.91049882E+01  0.00000000E+00
  9.55249411E+00  9.55249411E+00 -1.91049882E+01  0.00000000E+00  9.55249411E+00
  9.55249411E+00 -1.91049882E+01  0.00000000E+00  9.55249411E+00  9.55249411E+00
 -1.91049882E+01  0.00000000E+00  9.55249411E+00  9.55249411E+00 -1.91049882E+01
  0.00000000E+00  9.55249411E+00  9.55249411E+00 -1.91049882E+01  0.00000000E+00
  9.55249411E+00  9.55249411E+00 -1.91049882E+01  0.00000000E+00  9.55249411E+00
  9.55249411E+00 -1.91049882E+01  0.00000000E+00  9.55249411E+00  9.55249411E+00
 -1.91049882E+01  0.00000000E+00  9.55249411E+00  9.55249411E+00 -1.91049882E+01
  0.00000000E+00  9.55249411E+00  9.55249411E+00 -1.91049882E+01  0.00000000E+00
  9.55249411E+00  9.55249411E+00 -1.91049882E+01  0.00000000E+00  9.55249411E+00
  9.55249411E+00 -1.91049882E+01  0.00000000E+00  9.55249411E+00  9.55249411E+00
 -1.91049882E+01  0.00000000E+00  9.55249411E+00  9.55249411E+00 -1.91049882E+01
  0.00000000E+00  9.55249411E+00  9.55249411E+00 -1.91049882E+01  0.00000000E+00
  9.55249411E+00  9.55249411E+00 -1.91049882E+01  0.00000000E+00  9.55249411E+00
  9.55249411E+00 -1.91049882E+01  0.00000000E+00  9.55249411E+00  9.55249411E+00
 -1.91049882E+01  0.00000000E+00  9.55249411E+00  9.55249411E+00 -1.91049882E+01
  0.00000000E+00  9.55249411E+00  9.55249411E+00 -1.91049882E+01  0.00000000E+00
  9.55249411E+00  9.55249411E+00 -1.91049882E+01  0.00000000E+00  9.55249411E+00
  9.55249411E+00 -1.91049882E+01  0.00000000E+00  9.55249411E+00  9.55249411E+00
 -1.91049882E+01  0.00000000E+00  9.55249411E+00  9.55249411E+00 -1.91049882E+01
  0.00000000E+00  9.55249411E+00  9.55249411E+00 -1.91049882E+01  0.00000000E+00
  9.55249411E+00  9.55249411E+00 -1.91049882E+01  0.00000000E+00  9.55249411E+00
  9.55249411E+00 -1.91049882E+01  0.00000000E+00  9.55249411E+00  9.55249411E+00
 -1.91049882E+01  0.00000000E+00  9.55249411E+00  9.55249411E+00 -1.91049882E+01
  0.00000000E+00  9.55249411E+00  9.55249411E+00 -1.91049882E+01  0.00000000E+00
  9.55249411E+00  9.55249411E+00 -1.91049882E+01  0.00000000E+00  9.55249411E+00
  9.55249411E+00 -1.91049882E+01  0.00000000E+00  9.55249411E+00  9.55249411E+00
 -1.91049882E+01  0.00000000E+00  9.55249411E+00  9.55249411E+00 -1.91049882E+01
  0.00000000E+00  9.55249411E+00  9.55249411E+00 -1.91049882E+01  0.00000000E+00
  9.55249411E+00  9.55249411E+00 -1.91049882E+01  0.00000000E+00  9.55249411E+00
  9.55249411E+00 -1.91049882E+01  0.00000000E+00  9.55249411E+00  9.55249411E+00
 -1.91049882E+01  0.00000000E+00  9.55249411E+00  9.55249411E+00 -1.91049882E+01
  0.00000000E+00  9.55249411E+00  9.55249411E+00 -1.91049882E+01  0.00000000E+00
  9.55249411E+00  9.55249411E+00 -1.91049882E+01  0.00000000E+00  9.55249411E+00
  9.55249411E+00 -1.91049882E+01  0.00000000E+00  9.55249411E+00  9.55249411E+00
 -1.91049882E+01  0.00000000E+00  9.55249411E+00  9.55249411E+00 -1.91049882E+01
  0.00000000E+00  9.55249411E+00  9.55249411E+00 -1.91049882E+01  0.00000000E+00
  9.55249411E+00  9.55249411E+00 -1.91049882E+01  0.00000000E+00  9.55249411E+00
  9.55249411E+00 -1.91049882E+01  0.00000000E+00  9.55249411E+00  9.55249411E+00
 -1.91049882E+01  0.00000000E+00  9.55249411E+00  9.55249411E+00 -1.91049882E+01
  0.00000000E+00  9.55249411E+00  9.55249411E+00 -1.91049882E+01  0.00000000E+00
  9.55249411E+00  9.55249411E+00 -1.91049882E+01  0.00000000E+00  9.55249411E+00
  9.55249411E+00 -1.91049882E+01  0.00000000E+00  9.55249411E+00  9.55249411E+00
 -1.91049882E+01  0.00000000E+00  9.55249411E+00  9.55249411E+00 -1.91049882E+01
  0.00000000E+00  9.55249411E+00  9.55249411E+00 -1.91049882E+01  0.00000000E+00
  9.55249411E+00  9.55249411E+00 -1.91049882E+01  0.00000000E+00  9.55249411E+00
  9.55249411E+00 -1.91049882E+01  0.00000000E+00  9.55249411E+00  9.55249411E+00
 -1.91049882E+01  0.00000000E+00  9.55249411E+00  9.55249411E+00 -1.91049882E+01
  0.00000000E+00  9.55249411E+00  9.55249411E+00 -1.91049882E+01  0.00000000E+00
  9.55249411E+00  9.55249411E+00 -1.91049882E+01  0.00000000E+00  9.55249411E+00
  9.55249411E+00 -1.91049882E+01  0.00000000E+00  9.55249411E+00  9.55249411E+00
 -1.91049882E+01  0.00000000E+00  9.55249411E+00  9.55249411E+00 -1.91049882E+01
  0.00000000E+00  9.55249411E+00  9.55249411E+00 -1.91049882E+01  0.00000000E+00
  9.55249411E+00  9.55249411E+00 -1.91049882E+01  0.00000000E+00  9.55249411E+00
  9.55249411E+00 -1.91049882E+01  0.00000000E+00  9.55249411E+00  9.55249411E+00
 -1.91049882E+01  0.00000000E+00  9.55249411E+00  9.55249411E+00 -1.91049882E+01
  0.00000000E+00  9.55249411E+00  9.55249411E+00 -1.91049882E+01  0.00000000E+00
  9.55249411E+00  9.55249411E+00 -1.91049882E+01  0.00000000E+00  9.55249411E+00
  9.55249411E+00 -1.91049882E+01  0.00000000E+00  9.55249411E+00  9.55249411E+00
 -1.91049882E+01  0.00000000E+00  9.55249411E+00  9.55249411E+00 -1.91049882E+01
  0.00000000E+00  9.55249411E+00  9.55249411E+00 -1.91049882E+01  0.00000000E+00
  9.55249411E+00  9.55249411E+00 -1.91049882E+01  0.00000000E+00  9.55249411E+00
  9.55249411E+00 -1.91049882E+01  0.00000000E+00  9.55249411E+00  9.55249411E+00
 -1.91049882E+01  0.00000000E+00  9.55249411E+00  9.55249411E+00 -1.91049882E+01
  0.00000000E+00  9.55249411E+00  9.55249411E+00 -1.91049882E+01  0.00000000E+00
  9.55249411E+00  9.55249411E+00 -1.91049882E+01  0.00000000E+00  9.55249411E+00
  9.55249411E+00 -1.91049882E+01  0.00000000E+00  9.55249411E+00  9.55249411E+00
 -1.91049882E+01  0.00000000E+00  9.55249411E+00  9.55249411E+00 -1.91049882E+01
  0.00000000E+00  9.55249411E+00  9.55249411E+00 -1.91049882E+01  0.00000000E+00
  9.55249411E+00  9.55249411E+00 -1.91049882E+01  0.00000000E+00  9.55249411E+00
  9.55249411E+00 -1.91049882E+01  0.00000000E+00  9.55249411E+00  9.55249411E+00
 -1.91049882E+01  0.00000000E+00  9.55249411E+00  9.55249411E+00 -1.91049882E+01
  0.00000000E+00  9.55249411E+00  9.55249411E+00 -1.91049882E+01  0.00000000E+00
  9.55249411E+00  9.55249411E+00 -1.91049882E+01  0.00000000E+00  9.55249411E+00
  9.55249411E+00 -1.91049882E+01  0.00000000E+00  9.55249411E+00  9.55249411E+00
 -1.91049882E+01  0.00000000E+00  9.55249411E+00  9.55249411E+00 -1.91049882E+01
  0.00000000E+00  9.55249411E+00  9.55249411E+00 -1.91049882E+01  0.00000000E+00
  9.55249411E+00  9.55249411E+00 -1.91049882E+01  0.00000000E+00  9.55249411E+00
  9.55249411E+00 -1.91049882E+01  0.00000000E+00  9.55249411E+00  9.55249411E+00
 -1.91049882E+01  0.00000000E+00  9.55249411E+00  9.55249411E+00 -1.91049882E+01
  0.00000000E+00  9.55249411E+00  9.55249411E+00 -1.91049882E+01  0.00000000E+00
  9.55249411E+00  9.55249411E+00 -1.91049882E+01  0.00000000E+00  9.55249411E+00
  9.55249411E+00 -1.91049882E+01  0.00000000E+00  9.55249411E+00  9.55249411E+00
 -1.91049882E+01  0.00000000E+00  9.55249411E+00  9.55249411E+00 -1.91049882E+01
  0.00000000E+00  9.55249411E+00  9.55249411E+00 -1.91049882E+01  0.00000000E+00
  9.55249411E+00  9.55249411E+00 -1.91049882E+01  0.00000000E+00  9.55249411E+00
  9.55249411E+00 -1.91049882E+01  0.00000000E+00  9.55249411E+00  9.55249411E+00
 -1.91049882E+01  0.00000000E+00  9.55249411E+00  9.55249411E+00 -1.91049882E+01
  0.00000000E+00  9.55249411E+00  9.55249411E+00 -1.91049882E+01  0.00000000E+00
  9.55249411E+00  9.55249411E+00 -1.91049882E+01  0.00000000E+00  9.55249411E+00
  9.55249411E+00 -1.91049882E+01  0.00000000E+00  9.55249411E+00  9.55249411E+00
 -1.91049882E+01  0.00000000E+00  9.55249411E+00  9.55249411E+00 -1.91049882E+01
  0.00000000E+00  9.55249411E+00  9.55249411E+00 -1.91049882E+01  0.00000000E+00
  9.55249411E+00  9.55249411E+00 -1.91049882E+01  0.00000000E+00  9.55249411E+00
  9.55249411E+00 -1.91049882E+01  0.00000000E+00  9.55249411E+00  9.55249411E+00
 -1.91049882E+01  0.00000000E+00  9.55249411E+00  9.55249411E+00 -1.91049882E+01
  0.00000000E+00  9.55249411E+00  9.55249411E+00 -1.91049882E+01  0.00000000E+00
  9.55249411E+00  9.55249411E+00 -1.91049882E+01  0.00000000E+00  9.55249411E+00
  9.55249411E+00 -1.91049882E+01  0.00000000E+00  9.55249411E+00  9.55249411E+00
 -1.91049882E+01  0.00000000E+00  9.55249411E+00  9.55249411E+00 -1.91049882E+01
  0.00000000E+00  9.55249411E+00  9.55249411E+00 -1.91049882E+01  0.00000000E+00
  9.55249411E+00  9.55249411E+00 -1.91049882E+01  0.00000000E+00  9.55249411E+00
  9.55249411E+00 -1.91049882E+01  0.00000000E+00  9.55249411E+00  9.55249411E+00
 -1.91049882E+01  0.00000000E+00  9.55249411E+00  9.55249411E+00 -1.91049882E+01
  0.00000000E+00  9.55249411E+00  9.55249411E+00 -1.91049882E+01  0.00000000E+00
  9.55249411E+00  9.55249411E+00 -1.91049882E+01  0.00000000E+00  9.55249411E+00
  9.55249411E+00 -1.91049882E+01  0.00000000E+00  9.55249411E+00  9.55249411E+00
 -1.91049882E+01  0.00000000E+00  9.55249411E+00  9.55249411E+00 -1.91049882E+01
  0.00000000E+00  9.55249411E+00  9.55249411E+00 -1.91049882E+01  0.00000000E+00
  9.55249411E+00  9.55249411E+00 -1.91049882E+01  0.00000000E+00  9.55249411E+00
  9.55249411E+00 -1.91049882E+01  0.00000000E+00  9.55249411E+00  9.55249411E+00
 -1.91049882E+01  0.00000000E+00  9.55249411E+00  9.55249411E+00 -1.91049882E+01
  0.00000000E+00  9.55249411E+00  9.55249411E+00 -1.91049882E+01  0.00000000E+00
  9.55249411E+00  9.55249411E+00 -1.91049882E+01  0.00000000E+00  9.55249411E+00
  9.55249411E+00 -1.91049882E+01  0.00000000E+00  9.55249411E+00  9.55249411E+00
 -1.91049882E+01  0.00000000E+00  9.55249411E+00  9.55249411E+00 -1.91049882E+01
  0.00000000E+00  9.55249411E+00  9.55249411E+00 -1.91049882E+01  0.00000000E+00
  9.55249411E+00  9.55249411E+00 -1.91049882E+01  0.00000000E+00  9.55249411E+00
  9.55249411E+00 -1.91049882E+01  0.00000000E+00  9.55249411E+00  9.55249411E+00
 -1.91049882E+01  0.00000000E+00  9.55249411E+00  9.55249411E+00 -1.91049882E+01
  0.00000000E+00  9.55249411E+00  9.55249411E+00 -1.91049882E+01  0.00000000E+00
  9.55249411E+00  9.55249411E+00 -1.91049882E+01  0.00000000E+00  9.55249411E+00
  9.55249411E+00 -1.91049882E+01  0.00000000E+00  9.55249411E+00  9.55249411E+00
 -1.91049882E+01  0.00000000E+00  9.55249411E+00  9.55249411E+00 -1.91049882E+01
  0.00000000E+00  9.55249411E+00  9.55249411E+00 -1.91049882E+01  0.00000000E+00
  9.55249411E+00  9.55249411E+00 -1.91049882E+01  0.00000000E+00  9.55249411E+00
  9.55249411E+00 -1.91049882E+01  0.00000000E+00  9.55249411E+00  9.55249411E+00
 -1.91049882E+01  0.00000000E+00  9.55249411E+00  9.55249411E+00 -1.91049882E+01
  0.00000000E+00  9.55249411E+00  9.55249411E+00 -1.91049882E+01  0.00000000E+00
  9.55249411E+00  9.55249411E+00 -1.91049882E+01  0.00000000E+00  9.55249411E+00
  9.55249411E+00 -1.91049882E+01  0.00000000E+00  9.55249411E+00  9.55249411E+00
 -1.91049882E+01  0.00000000E+00  9.55249411E+00  9.55249411E+00 -1.91049882E+01
  0.00000000E+00  9.55249411E+00  9.55249411E+00 -1.91049882E+01  0.00000000E+00
  9.55249411E+00  9.55249411E+00 -1.91049882E+01  0.00000000E+00  9.55249411E+00
  9.55249411E+00 -1.91049882E+01  0.00000000E+00  9.55249411E+00  9.55249411E+00
 -1.91049882E+01  0.00000000E+00  9.55249411E+00  9.55249411E+00 -1.91049882E+01
  0.00000000E+00  9.55249411E+00  9.55249411E+00 -1.91049882E+01  0.00000000E+00
  9.55249411E+00  9.55249411E+00 -1.91049882E+01  0.00000000E+00  9.55249411E+00
  9.55249411E+00 -1.91049882E+01  0.00000000E+00  9.55249411E+00  9.55249411E+00
 -1.91049882E+01  0.00000000E+00  9.55249411E+00  9.55249411E+00 -1.91049882E+01
  0.00000000E+00  9.55249411E+00  9.55249411E+00 -1.91049882E+01  0.00000000E+00
  9.55249411E+00  9.55249411E+00 -1.91049882E+01  0.00000000E+00  9.55249411E+00
  9.55249411E+00 -1.91049882E+01  0.00000000E+00  9.55249411E+00  9.55249411E+00
 -1.91049882E+01  0.00000000E+00  9.55249411E+00  9.55249411E+00 -1.91049882E+01
  0.00000000E+00  9.55249411E+00  9.55249411E+00 -1.91049882E+01  0.00000000E+00
  9.55249411E+00  9.55249411E+00 -1.91049882E+01  0.00000000E+00  9.55249411E+00
  9.55249411E+00 -1.91049882E+01  0.00000000E+00  9.55249411E+00  9.55249411E+00
 -1.91049882E+01  0.00000000E+00  9.55249411E+00  9.55249411E+00 -1.91049882E+01
  0.00000000E+00  9.55249411E+00  9.55249411E+00 -1.91049882E+01  0.00000000E+00
  9.55249411E+00  9.55249411E+00 -1.91049882E+01  0.00000000E+00  9.55249411E+00
  9.55249411E+00 -1.91049882E+01  0.00000000E+00  9.55249411E+00  9.55249411E+00
 -1.91049882E+01  0.00000000E+00  9.55249411E+00  9.55249411E+00 -1.91049882E+01
  0.00000000E+00  9.55249411E+00  9.55249411E+00 -1.91049882E+01  0.00000000E+00
  9.55249411E+00  9.55249411E+00 -1.91049882E+01  0.00000000E+00  9.55249411E+00
  9.55249411E+00 -1.91049882E+01  0.00000000E+00  9.55249411E+00  9.55249411E+00
 -1.91049882E+01  0.00000000E+00  9.55249411E+00  9.55249411E+00 -1.91049882E+01
  0.00000000E+00  9.55249411E+00  9.55249411E+00 -1.91049882E+01  0.00000000E+00
  9.55249411E+00  9.55249411E+00 -1.91049882E+01  0.00000000E+00  9.55249411E+00
  9.55249411E+00 -1.91049882E+01  0.00000000E+00  9.55249411E+00  9.55249411E+00
 -1.91049882E+01  0.00000000E+00  9.55249411E+00  9.55249411E+00 -1.91049882E+01
  0.00000000E+00  9.55249411E+00  9.55249411E+00 -1.91049882E+01  0.00000000E+00
  9.55249411E+00  9.55249411E+00 -1.91049882E+01  0.00000000E+00  9.55249411E+00
  9.55249411E+00 -1.91049882E+01  0.00000000E+00  9.55249411E+00  9.55249411E+00
 -1.91049882E+01  0.00000000E+00  9.55249411E+00  9.55249411E+00 -1.91049882E+01
  0.00000000E+00  9.55249411E+00  9.55249411E+00 -1.91049882E+01  0.00000000E+00
  9.55249411E+00  9.55249411E+00 -1.91049882E+01  0.00000000E+00  9.55249411E+00
  9.55249411E+00 -1.91049882E+01  0.00000000E+00  9.55249411E+00  9.55249411E+00
 -1.91049882E+01  0.00000000E+00  9.55249411E+00  9.55249411E+00 -1.91049882E+01
  0.00000000E+00  9.55249411E+00  9.55249411E+00 -1.91049882E+01  0.00000000E+00
  9.55249411E+00  9.55249411E+00 -1.91049882E+01  0.00000000E+00  9.55249411E+00
  9.55249411E+00 -1.91049882E+01  0.00000000E+00  9.55249411E+00  9.55249411E+00
 -1.91049882E+01  0.00000000E+00  9.55249411E+00  9.55249411E+00 -1.91049882E+01
  0.00000000E+00  9.55249411E+00  9.55249411E+00 -1.91049882E+01  0.00000000E+00
  9.55249411E+00  9.55249411E+00 -1.91049882E+01  0.00000000E+00  9.55249411E+00
  9.55249411E+00 -1.91049882E+01  0.00000000E+00  9.55249411E+00  9.55249411E+00
 -1.91049882E+01  0.00000000E+00  9.55249411E+00  9.55249411E+00 -1.91049882E+01
  0.00000000E+00  9.55249411E+00  9.55249411E+00 -1.91049882E+01  0.00000000E+00
  9.55249411E+00  9.55249411E+00 -1.91049882E+01  0.00000000E+00  9.55249411E+00
  9.55249411E+00 -1.91049882E+01  0.00000000E+00  9.55249411E+00  9.55249411E+00
 -1.91049882E+01  0.00000000E+00  9.55249411E+00  9.55249411E+00 -1.91049882E+01
  0.00000000E+00  9.55249411E+00  9.55249411E+00 -1.91049882E+01  0.00000000E+00
  9.55249411E+00  9.55249411E+00 -1.91049882E+01  0.00000000E+00  9.55249411E+00
  9.55249411E+00 -1.91049882E+01  0.00000000E+00  9.55249411E+00  9.55249411E+00
 -1.91049882E+01  0.00000000E+00  9.55249411E+00  9.55249411E+00 -1.91049882E+01
  0.00000000E+00  9.55249411E+00  9.55249411E+00 -1.91049882E+01  0.00000000E+00
  9.55249411E+00  9.55249411E+00 -1.91049882E+01  0.00000000E+00  9.55249411E+00
  9.55249411E+00 -1.91049882E+01  0.00000000E+00  9.55249411E+00  9.55249411E+00
 -1.91049882E+01  0.00000000E+00  9.55249411E+00  9.55249411E+00 -1.91049882E+01
  0.00000000E+00  9.55249411E+00  9.55249411E+00 -1.91049882E+01  0.00000000E+00
  9.55249411E+00  9.55249411E+00 -1.91049882E+01  0.00000000E+00  9.55249411E+00
  9.55249411E+00 -1.91049882E+01  0.00000000E+00  9.55249411E+00  9.55249411E+00
 -1.91049882E+01  0.00000000E+00  9.55249411E+00  9.55249411E+00 -1.91049882E+01
  0.00000000E+00  9.55249411E+00  9.55249411E+00 -1.91049882E+01  0.00000000E+00
  9.55249411E+00  9.55249411E+00 -1.91049882E+01  0.00000000E+00  9.55249411E+00
  9.55249411E+00 -1.91049882E+01  0.00000000E+00  9.55249411E+00  9.55249411E+00
 -1.91049882E+01  0.00000000E+00  9.55249411E+00  9.55249411E+00 -1.91049882E+01
  0.00000000E+00  9.55249411E+00  9.55249411E+00 -1.91049882E+01  0.00000000E+00
  9.55249411E+00  9.55249411E+00 -1.91049882E+01  0.00000000E+00  9.55249411E+00
  9.55249411E+00 -1.91049882E+01  0.00000000E+00  9.55249411E+00  9.55249411E+00
 -1.91049882E+01  0.00000000E+00  9.55249411E+00  9.55249411E+00 -1.91049882E+01
  0.00000000E+00  9.55249411E+00  9.55249411E+00 -1.91049882E+01  0.00000000E+00
  9.55249411E+00  9.55249411E+00 -1.91049882E+01  0.00000000E+00  9.55249411E+00
  9.55249411E+00 -1.91049882E+01  0.00000000E+00  9.55249411E+00  9.55249411E+00
 -1.91049882E+01  0.00000000E+00  9.55249411E+00  9.55249411E+00 -1.91049882E+01
  0.00000000E+00  9.55249411E+00  9.55249411E+00 -1.91049882E+01  0.00000000E+00
  9.55249411E+00  9.55249411E+00 -1.91049882E+01  0.00000000E+00  9.55249411E+00
  9.55249411E+00 -1.91049882E+01  0.00000000E+00  9.55249411E+00  9.55249411E+00
 -1.91049882E+01  0.00000000E+00  9.55249411E+00  9.55249411E+00 -1.91049882E+01
  0.00000000E+00  9.55249411E+00  9.55249411E+00 -1.91049882E+01  0.00000000E+00
  9.55249411E+00  9.55249411E+00 -1.91049882E+01  0.00000000E+00  9.55249411E+00
  9.55249411E+00 -1.91049882E+01  0.00000000E+00  9.55249411E+00  9.55249411E+00
 -1.91049882E+01  0.00000000E+00  9.55249411E+00  9.55249411E+00 -1.91049882E+01
  0.00000000E+00  9.55249411E+00  9.55249411E+00 -1.91049882E+01  0.00000000E+00
  9.55249411E+00  9.55249411E+00 -1.91049882E+01  0.00000000E+00  9.55249411E+00
  9.55249411E+00 -1.91049882E+01  0.00000000E+00  9.55249411E+00  9.55249411E+00
 -1.91049882E+01  0.00000000E+00  9.55249411E+00  9.55249411E+00 -1.91049882E+01
  0.00000000E+00  9.55249411E+00  9.55249411E+00 -1.91049882E+01  0.00000000E+00
  9.55249411E+00  9.55249411E+00 -1.91049882E+01  0.00000000E+00  9.55249411E+00
  9.55249411E+00 -1.91049882E+01  0.00000000E+00  9.55249411E+00  9.55249411E+00
 -1.91049882E+01  0.00000000E+00  9.55249411E+00  9.55249411E+00 -1.91049882E+01
  0.00000000E+00  9.55249411E+00  9.55249411E+00 -1.91049882E+01  0.00000000E+00
  9.55249411E+00  9.55249411E+00 -1.91049882E+01  0.00000000E+00  9.55249411E+00
  9.55249411E+00 -1.91049882E+01  0.00000000E+00  9.55249411E+00  9.55249411E+00
 -1.91049882E+01  0.00000000E+00  9.55249411E+00  9.55249411E+00 -1.91049882E+01
  0.00000000E+00  9.55249411E+00  9.55249411E+00 -1.91049882E+01  0.00000000E+00
  9.55249411E+00  9.55249411E+00 -1.91049882E+01  0.00000000E+00  9.55249411E+00
  9.55249411E+00 -1.91049882E+01  0.00000000E+00  9.55249411E+00  9.55249411E+00
 -1.91049882E+01  0.00000000E+00  9.55249411E+00  9.55249411E+00 -1.91049882E+01
  0.00000000E+00  9.55249411E+00  9.55249411E+00 -1.91049882E+01  0.00000000E+00
  9.55249411E+00  9.55249411E+00 -1.91049882E+01  0.00000000E+00  9.55249411E+00
  9.55249411E+00 -1.91049882E+01  0.00000000E+00  9.55249411E+00  9.55249411E+00
 -1.91049882E+01  0.00000000E+00  9.55249411E+00  9.55249411E+00 -1.91049882E+01
  0.00000000E+00  9.55249411E+00  9.55249411E+00 -1.91049882E+01  0.00000000E+00
  9.55249411E+00  9.55249411E+00 -1.91049882E+01  0.00000000E+00  9.55249411E+00
  9.55249411E+00 -1.91049882E+01  0.00000000E+00  9.55249411E+00  9.55249411E+00
 -1.91049882E+01  0.00000000E+00  9.55249411E+00  9.55249411E+00 -1.91049882E+01
  0.00000000E+00  9.55249411E+00  9.55249411E+00 -1.91049882E+01  0.00000000E+00
  9.55249411E+00  9.55249411E+00 -1.91049882E+01  0.00000000E+00  9.55249411E+00
  9.55249411E+00 -1.91049882E+01  0.00000000E+00  9.55249411E+00  9.55249411E+00
 -1.91049882E+01  0.00000000E+00  9.55249411E+00  9.55249411E+00 -1.91049882E+01
  0.00000000E+00  9.55249411E+00  9.55249411E+00 -1.91049882E+01  0.00000000E+00
  9.55249411E+00  9.55249411E+00 -1.91049882E+01  0.00000000E+00  9.55249411E+00
  9.55249411E+00 -1.91049882E+01  0.00000000E+00  9.55249411E+00  9.55249411E+00
 -1.91049882E+01  0.00000000E+00  9.55249411E+00  9.55249411E+00 -1.91049882E+01
  0.00000000E+00  9.55249411E+00  9.55249411E+00 -1.91049882E+01  0.00000000E+00
  9.55249411E+00  9.55249411E+00 -1.91049882E+01  0.00000000E+00  9.55249411E+00
  9.55249411E+00 -1.91049882E+01  0.00000000E+00  9.55249411E+00  9.55249411E+00
 -1.91049882E+01  0.00000000E+00  9.55249411E+00  9.55249411E+00 -1.91049882E+01
  0.00000000E+00  9.55249411E+00  9.55249411E+00 -1.91049882E+01  0.00000000E+00
  9.55249411E+00  9.55249411E+00 -1.91049882E+01  0.00000000E+00  9.55249411E+00
  9.55249411E+00 -1.91049882E+01  0.00000000E+00  9.55249411E+00  9.55249411E+00
 -1.91049882E+01  0.00000000E+00  9.55249411E+00  9.55249411E+00 -1.91049882E+01
  0.00000000E+00  9.55249411E+00  9.55249411E+00 -1.91049882E+01  0.00000000E+00
  9.55249411E+00  9.55249411E+00 -1.91049882E+01  0.00000000E+00  9.55249411E+00
  9.55249411E+00 -1.91049882E+01  0.00000000E+00  9.55249411E+00  9.55249411E+00
 -1.91049882E+01  0.00000000E+00  9.55249411E+00  9.55249411E+00 -1.91049882E+01
  0.00000000E+00  9.55249411E+00  9.55249411E+00 -1.91049882E+01  0.00000000E+00
  9.55249411E+00  9.55249411E+00 -1.91049882E+01  0.00000000E+00  9.55249411E+00
  9.55249411E+00 -1.91049882E+01  0.00000000E+00  9.55249411E+00  9.55249411E+00
 -1.91049882E+01  0.00000000E+00  9.55249411E+00  9.55249411E+00 -1.91049882E+01
  0.00000000E+00  9.55249411E+00  9.55249411E+00 -1.91049882E+01  0.00000000E+00
  9.55249411E+00  9.55249411E+00 -1.91049882E+01  0.00000000E+00  9.55249411E+00
  9.55249411E+00 -1.91049882E+01  0.00000000E+00  9.55249411E+00  9.55249411E+00
 -1.91049882E+01  0.00000000E+00  9.55249411E+00  9.55249411E+00 -1.91049882E+01
  0.00000000E+00  9.55249411E+00  9.55249411E+00 -1.91049882E+01  0.00000000E+00
  9.55249411E+00  9.55249411E+00 -1.91049882E+01  0.00000000E+00  9.55249411E+00
  9.55249411E+00 -1.91049882E+01  0.00000000E+00  9.55249411E+00  9.55249411E+00
 -1.91049882E+01  0.00000000E+00  9.55249411E+00  9.55249411E+00 -1.91049882E+01
  0.00000000E+00  9.55249411E+00  9.55249411E+00 -1.91049882E+01  0.00000000E+00
  9.55249411E+00  9.55249411E+00 -1.91049882E+01  0.00000000E+00  9.55249411E+00
  9.55249411E+00 -1.91049882E+01  0.00000000E+00  9.55249411E+00  9.55249411E+00
 -1.91049882E+01  0.00000000E+00  9.55249411E+00  9.55249411E+00 -1.91049882E+01
  0.00000000E+00  9.55249411E+00  9.55249411E+00 -1.91049882E+01  0.00000000E+00
  9.55249411E+00  9.55249411E+00 -1.91049882E+01  0.00000000E+00  9.55249411E+00
  9.55249411E+00 -1.91049882E+01  0.00000000E+00  9.55249411E+00  9.55249411E+00
 -1.91049882E+01  0.00000000E+00  9.55249411E+00  9.55249411E+00 -1.91049882E+01
  0.00000000E+00  9.55249411E+00  9.55249411E+00 -1.91049882E+01  0.00000000E+00
  9.55249411E+00  9.55249411E+00 -1.91049882E+01  0.00000000E+00  9.55249411E+00
  9.55249411E+00 -1.91049882E+01  0.00000000E+00  9.55249411E+00  9.55249411E+00
 -1.91049882E+01  0.00000000E+00  9.55249411E+00  9.55249411E+00 -1.91049882E+01
  0.00000000E+00  9.55249411E+00  9.55249411E+00 -1.91049882E+01  0.00000000E+00
  9.55249411E+00  9.55249411E+00 -1.91049882E+01  0.00000000E+00  9.55249411E+00
  9.55249411E+00 -1.91049882E+01  0.00000000E+00  9.55249411E+00  9.55249411E+00
 -1.91049882E+01  0.00000000E+00  9.55249411E+00  9.55249411E+00 -1.91049882E+01
  0.00000000E+00  9.55249411E+00  9.55249411E+00 -1.91049882E+01  0.00000000E+00
  9.55249411E+00  9.55249411E+00 -1.91049882E+01  0.00000000E+00  9.55249411E+00
  9.55249411E+00 -1.91049882E+01  0.00000000E+00  9.55249411E+00  9.55249411E+00
 -1.91049882E+01  0.00000000E+00  9.55249411E+00  9.55249411E+00 -1.91049882E+01
  0.00000000E+00  9.55249411E+00  9.55249411E+00 -1.91049882E+01  0.00000000E+00
  9.55249411E+00  9.55249411E+00 -1.91049882E+01  0.00000000E+00  9.55249411E+00
  9.55249411E+00 -1.91049882E+01  0.00000000E+00  9.55249411E+00  9.55249411E+00
 -1.91049882E+01  0.00000000E+00  9.55249411E+00  9.55249411E+00 -1.91049882E+01
  0.00000000E+00  9.55249411E+00  9.55249411E+00 -1.91049882E+01  0.00000000E+00
  9.55249411E+00  9.55249411E+00 -1.91049882E+01  0.00000000E+00  9.55249411E+00
  9.55249411E+00 -1.91049882E+01  0.00000000E+00  9.55249411E+00  9.55249411E+00
 -1.91049882E+01  0.00000000E+00  9.55249411E+00  9.55249411E+00 -1.91049882E+01
  0.00000000E+00  9.55249411E+00  9.55249411E+00 -1.91049882E+01  0.00000000E+00
  9.55249411E+00  9.55249411E+00 -1.91049882E+01  0.00000000E+00  9.55249411E+00
  9.55249411E+00 -1.91049882E+01  0.00000000E+00  9.55249411E+00  9.55249411E+00
 -1.91049882E+01  0.00000000E+00  9.55249411E+00  9.55249411E+00 -1.91049882E+01
  0.00000000E+00  9.55249411E+00  9.55249411E+00 -1.91049882E+01  0.00000000E+00
  9.55249411E+00  9.55249411E+00 -1.91049882E+01  0.00000000E+00  9.55249411E+00
  9.55249411E+00 -1.91049882E+01  0.00000000E+00  9.55249411E+00  9.55249411E+00
 -1.91049882E+01  0.00000000E+00  9.55249411E+00  9.55249411E+00 -1.91049882E+01
  0.00000000E+00  9.55249411E+00  9.55249411E+00 -1.91049882E+01  0.00000000E+00
  9.55249411E+00  9.55249411E+00 -1.91049882E+01  0.00000000E+00  9.55249411E+00
  9.55249411E+00 -1.91049882E+01  0.00000000E+00  9.55249411E+00  9.55249411E+00
 -1.91049882E+01  0.00000000E+00  9.55249411E+00  9.55249411E+00 -1.91049882E+01
  0.00000000E+00  9.55249411E+00  9.55249411E+00 -1.91049882E+01  0.00000000E+00
  9.55249411E+00  9.55249411E+00 -1.91049882E+01  0.00000000E+00  9.55249411E+00
  9.55249411E+00 -1.91049882E+01  0.00000000E+00  9.55249411E+00  9.55249411E+00
 -1.91049882E+01  0.00000000E+00  9.55249411E+00  9.55249411E+00 -1.91049882E+01
  0.00000000E+00  9.55249411E+00  9.55249411E+00 -1.91049882E+01  0.00000000E+00
  9.55249411E+00  9.55249411E+00 -1.91049882E+01  0.00000000E+00  9.55249411E+00
  9.55249411E+00 -1.91049882E+01  0.00000000E+00  9.55249411E+00  9.55249411E+00
 -1.91049882E+01  0.00000000E+00  9.55249411E+00  9.55249411E+00 -1.91049882E+01
  0.00000000E+00  9.55249411E+00  9.55249411E+00 -1.91049882E+01  0.00000000E+00
  9.55249411E+00  9.55249411E+00 -1.91049882E+01  0.00000000E+00  9.55249411E+00
  9.55249411E+00 -1.91049882E+01  0.00000000E+00  9.55249411E+00  9.55249411E+00
 -1.91049882E+01  0.00000000E+00  9.55249411E+00  9.55249411E+00 -1.91049882E+01
  0.00000000E+00  9.55249411E+00  9.55249411E+00 -1.91049882E+01  0.00000000E+00
  9.55249411E+00  9.55249411E+00 -1.91049882E+01  0.00000000E+00  9.55249411E+00
  9.55249411E+00 -1.91049882E+01  0.00000000E+00  9.55249411E+00  9.55249411E+00
 -1.91049882E+01  0.00000000E+00  9.55249411E+00  9.55249411E+00 -1.91049882E+01
  0.00000000E+00  9.55249411E+00  9.55249411E+00 -1.91049882E+01  0.00000000E+00
  9.55249411E+00  9.55249411E+00 -1.91049882E+01  0.00000000E+00  9.55249411E+00
  9.55249411E+00 -1.91049882E+01  0.00000000E+00  9.55249411E+00  9.55249411E+00
 -1.91049882E+01  0.00000000E+00  9.55249411E+00  9.55249411E+00 -1.91049882E+01
  0.00000000E+00  9.55249411E+00  9.55249411E+00 -1.91049882E+01  0.00000000E+00
  9.55249411E+00  9.55249411E+00 -1.91049882E+01  0.00000000E+00  9.55249411E+00
  9.55249411E+00 -1.91049882E+01  0.00000000E+00  9.55249411E+00  9.55249411E+00
 -1.91049882E+01  0.00000000E+00  9.55249411E+00  9.55249411E+00 -1.91049882E+01
  0.00000000E+00  9.55249411E+00  9.55249411E+00 -1.91049882E+01  0.00000000E+00
  9.55249411E+00  9.55249411E+00 -1.91049882E+01  0.00000000E+00  9.55249411E+00
  9.55249411E+00 -1.91049882E+01  0.00000000E+00  9.55249411E+00  9.55249411E+00
 -1.91049882E+01  0.00000000E+00  9.55249411E+00  9.55249411E+00 -1.91049882E+01
  0.00000000E+00  9.55249411E+00  9.55249411E+00 -1.91049882E+01  0.00000000E+00
  9.55249411E+00  9.55249411E+00 -1.91049882E+01  0.00000000E+00  9.55249411E+00
  9.55249411E+00 -1.91049882E+01  0.00000000E+00  9.55249411E+00  9.55249411E+00
 -1.91049882E+01  0.00000000E+00  9.55249411E+00  9.55249411E+00 -1.91049882E+01
  0.00000000E+00  9.55249411E+00  9.55249411E+00 -1.91049882E+01  0.00000000E+00
  9.55249411E+00  9.55249411E+00 -1.91049882E+01  0.00000000E+00  9.55249411E+00
  9.55249411E+00 -1.91049882E+01  0.00000000E+00  9.55249411E+00  9.55249411E+00
 -1.91049882E+01  0.00000000E+00  9.55249411E+00  9.55249411E+00 -1.91049882E+01
  0.00000000E+00  9.55249411E+00  9.55249411E+00 -1.91049882E+01  0.00000000E+00
  9.55249411E+00  9.55249411E+00 -1.91049882E+01  0.00000000E+00  9.55249411E+00
  9.55249411E+00 -1.91049882E+01  0.00000000E+00  9.55249411E+00  9.55249411E+00
 -1.91049882E+01  0.00000000E+00  9.55249411E+00  9.55249411E+00 -1.91049882E+01
  0.00000000E+00  9.55249411E+00  9.55249411E+00 -1.91049882E+01  0.00000000E+00
  9.55249411E+00  9.55249411E+00 -1.91049882E+01  0.00000000E+00  9.55249411E+00
  9.55249411E+00 -1.91049882E+01  0.00000000E+00  9.55249411E+00  9.55249411E+00
 -1.91049882E+01  0.00000000E+00  9.55249411E+00  9.55249411E+00 -1.91049882E+01
  0.00000000E+00  9.55249411E+00  9.55249411E+00 -1.91049882E+01  0.00000000E+00
  9.55249411E+00  9.55249411E+00 -1.91049882E+01  0.00000000E+00  9.55249411E+00
  9.55249411E+00 -1.91049882E+01  0.00000000E+00  9.55249411E+00  9.55249411E+00
 -1.91049882E+01  0.00000000E+00  9.55249411E+00  9.55249411E+00 -1.91049882E+01
  0.00000000E+00  9.55249411E+00  9.55249411E+00 -1.91049882E+01  0.00000000E+00
  9.55249411E+00  9.55249411E+00 -1.91049882E+01  0.00000000E+00  9.55249411E+00
  9.55249411E+00 -1.91049882E+01  0.00000000E+00  9.55249411E+00  9.55249411E+00
 -1.91049882E+01  0.00000000E+00  9.55249411E+00  9.55249411E+00 -1.91049882E+01
  0.00000000E+00  9.55249411E+00  9.55249411E+00 -1.91049882E+01  0.00000000E+00
  9.55249411E+00  9.55249411E+00 -1.91049882E+01  0.00000000E+00  9.55249411E+00
  9.55249411E+00 -1.91049882E+01  0.00000000E+00  9.55249411E+00  9.55249411E+00
 -1.91049882E+01  0.00000000E+00  9.55249411E+00  9.55249411E+00 -1.91049882E+01
  0.00000000E+00  9.55249411E+00  9.55249411E+00 -1.91049882E+01  0.00000000E+00
  9.55249411E+00  9.55249411E+00 -1.91049882E+01  0.00000000E+00  9.55249411E+00
  9.55249411E+00 -1.91049882E+01  0.00000000E+00  9.55249411E+00  9.55249411E+00
 -1.91049882E+01  0.00000000E+00  9.55249411E+00  9.55249411E+00 -1.91049882E+01
  0.00000000E+00  9.55249411E+00  9.55249411E+00 -1.91049882E+01  0.00000000E+00
  9.55249411E+00  9.55249411E+00 -1.91049882E+01  0.00000000E+00  9.55249411E+00
  9.55249411E+00 -1.91049882E+01  0.00000000E+00  9.55249411E+00  9.55249411E+00
 -1.91049882E+01  0.00000000E+00  9.55249411E+00  9.55249411E+00 -1.91049882E+01
  0.00000000E+00  9.55249411E+00  9.55249411E+00 -1.91049882E+01  0.00000000E+00
  9.55249411E+00  9.55249411E+00 -1.91049882E+01  0.00000000E+00  9.55249411E+00
  9.55249411E+00 -1.91049882E+01  0.00000000E+00  9.55249411E+00  9.55249411E+00
 -1.91049882E+01  0.00000000E+00  9.55249411E+00  9.55249411E+00 -1.91049882E+01
  0.00000000E+00  9.55249411E+00  9.55249411E+00 -1.91049882E+01  0.00000000E+00
  9.55249411E+00  9.55249411E+00 -1.91049882E+01  0.00000000E+00  9.55249411E+00
  9.55249411E+00 -1.91049882E+01  0.00000000E+00  9.55249411E+00  9.55249411E+00
 -1.91049882E+01  0.00000000E+00  9.55249411E+00  9.55249411E+00 -1.91049882E+01
  0.00000000E+00  9.55249411E+00  9.55249411E+00 -1.91049882E+01  0.00000000E+00
  9.55249411E+00  9.55249411E+00 -1.91049882E+01  0.00000000E+00  9.55249411E+00
  9.55249411E+00 -1.91049882E+01  0.00000000E+00  9.55249411E+00  9.55249411E+00
 -1.91049882E+01  0.00000000E+00  9.55249411E+00  9.55249411E+00 -1.91049882E+01
  0.00000000E+00  9.55249411E+00  9.55249411E+00 -1.91049882E+01  0.00000000E+00
  9.55249411E+00  9.55249411E+00 -1.91049882E+01  0.00000000E+00  9.55249411E+00
  9.55249411E+00 -1.91049882E+01  0.00000000E+00  9.55249411E+00  9.55249411E+00
 -1.91049882E+01  0.00000000E+00  9.55249411E+00  9.55249411E+00 -1.91049882E+01
  0.00000000E+00  9.55249411E+00  9.55249411E+00 -1.91049882E+01  0.00000000E+00
  9.55249411E+00  9.55249411E+00 -1.91049882E+01  0.00000000E+00  9.55249411E+00
  9.55249411E+00 -1.91049882E+01  0.00000000E+00  9.55249411E+00  9.55249411E+00
 -1.91049882E+01  0.00000000E+00  9.55249411E+00  9.55249411E+00 -1.91049882E+01
  0.00000000E+00  9.55249411E+00  9.55249411E+00 -1.91049882E+01  0.00000000E+00
  9.55249411E+00  9.55249411E+00 -1.91049882E+01  0.00000000E+00  9.55249411E+00
  9.55249411E+00 -1.91049882E+01  0.00000000E+00  9.55249411E+00  9.55249411E+00
 -1.91049882E+01  0.00000000E+00  9.55249411E+00  9.55249411E+00 -1.91049882E+01
  0.00000000E+00  9.55249411E+00  9.55249411E+00 -1.91049882E+01  0.00000000E+00
  9.55249411E+00  9.55249411E+00 -1.91049882E+01  0.00000000E+00  9.55249411E+00
  9.55249411E+00 -1.91049882E+01  0.00000000E+00  9.55249411E+00  9.55249411E+00
 -1.91049882E+01  0.00000000E+00  9.55249411E+00  9.55249411E+00 -1.91049882E+01
  0.00000000E+00  9.55249411E+00  9.55249411E+00 -1.91049882E+01  0.00000000E+00
  9.55249411E+00  9.55249411E+00 -1.91049882E+01  0.00000000E+00  9.55249411E+00
  9.55249411E+00 -1.91049882E+01  0.00000000E+00  9.55249411E+00  9.55249411E+00
 -1.91049882E+01  0.00000000E+00  9.55249411E+00  9.55249411E+00 -1.91049882E+01
  0.00000000E+00  9.55249411E+00  9.55249411E+00 -1.91049882E+01  0.00000000E+00
  9.55249411E+00  9.55249411E+00 -1.91049882E+01  0.00000000E+00  9.55249411E+00
  9.55249411E+00 -1.91049882E+01  0.00000000E+00  9.55249411E+00  9.55249411E+00
 -1.91049882E+01  0.00000000E+00  9.55249411E+00  9.55249411E+00 -1.91049882E+01
  0.00000000E+00  9.55249411E+00  9.55249411E+00 -1.91049882E+01  0.00000000E+00
  9.55249411E+00  9.55249411E+00 -1.91049882E+01  0.00000000E+00  9.55249411E+00
  9.55249411E+00 -1.91049882E+01  0.00000000E+00  9.55249411E+00  9.55249411E+00
 -1.91049882E+01  0.00000000E+00  9.55249411E+00  9.55249411E+00 -1.91049882E+01
  0.00000000E+00  9.55249411E+00  9.55249411E+00 -1.91049882E+01  0.00000000E+00
  9.55249411E+00  9.55249411E+00 -1.91049882E+01  0.00000000E+00  9.55249411E+00
  9.55249411E+00 -1.91049882E+01  0.00000000E+00  9.55249411E+00  9.55249411E+00
 -1.91049882E+01  0.00000000E+00  9.55249411E+00  9.55249411E+00 -1.91049882E+01
  0.00000000E+00  9.55249411E+00  9.55249411E+00 -1.91049882E+01  0.00000000E+00
  9.55249411E+00  9.55249411E+00 -1.91049882E+01  0.00000000E+00  9.55249411E+00
  9.55249411E+00 -1.91049882E+01  0.00000000E+00  9.55249411E+00  9.55249411E+00
 -1.91049882E+01  0.00000000E+00  9.55249411E+00  9.55249411E+00 -1.91049882E+01
  0.00000000E+00  9.55249411E+00  9.55249411E+00 -1.91049882E+01  0.00000000E+00
  9.55249411E+00  9.55249411E+00 -1.91049882E+01  0.00000000E+00  9.55249411E+00
  9.55249411E+00 -1.91049882E+01  0.00000000E+00  9.55249411E+00  9.55249411E+00
 -1.91049882E+01  0.00000000E+00  9.55249411E+00  9.55249411E+00 -1.91049882E+01
  0.00000000E+00  9.55249411E+00  9.55249411E+00 -1.91049882E+01  0.00000000E+00
  9.55249411E+00  9.55249411E+00 -1.91049882E+01  0.00000000E+00  9.55249411E+00
  9.55249411E+00 -1.91049882E+01  0.00000000E+00  9.55249411E+00  9.55249411E+00
 -1.91049882E+01  0.00000000E+00  9.55249411E+00  9.55249411E+00 -1.91049882E+01
  0.00000000E+00  9.55249411E+00  9.55249411E+00 -1.91049882E+01  0.00000000E+00
  9.55249411E+00  9.55249411E+00 -1.91049882E+01  0.00000000E+00  9.55249411E+00
  9.55249411E+00 -1.91049882E+01  0.00000000E+00  9.55249411E+00  9.55249411E+00
 -1.91049882E+01  0.00000000E+00  9.55249411E+00  9.55249411E+00 -1.91049882E+01
  0.00000000E+00  9.55249411E+00  9.55249411E+00 -1.91049882E+01  0.00000000E+00
  9.55249411E+00  9.55249411E+00 -1.91049882E+01  0.00000000E+00  9.55249411E+00
  9.55249411E+00 -1.91049882E+01  0.00000000E+00  9.55249411E+00  9.55249411E+00
 -1.91049882E+01  0.00000000E+00  9.55249411E+00  9.55249411E+00 -1.91049882E+01
  0.00000000E+00  9.55249411E+00  9.55249411E+00 -1.91049882E+01  0.00000000E+00
  9.55249411E+00  9.55249411E+00 -1.91049882E+01  0.00000000E+00  9.55249411E+00
  9.55249411E+00 -1.91049882E+01  0.00000000E+00  9.55249411E+00  9.55249411E+00
 -1.91049882E+01  0.00000000E+00  9.55249411E+00  9.55249411E+00 -1.91049882E+01
  0.00000000E+00  9.55249411E+00  9.55249411E+00 -1.91049882E+01  0.00000000E+00
  9.55249411E+00  9.55249411E+00 -1.91049882E+01  0.00000000E+00  9.55249411E+00
  9.55249411E+00 -1.91049882E+01  0.00000000E+00  9.55249411E+00  9.55249411E+00
 -1.91049882E+01  0.00000000E+00  9.55249411E+00  9.55249411E+00 -1.91049882E+01
  0.00000000E+00  9.55249411E+00  9.55249411E+00 -1.91049882E+01  0.00000000E+00
  9.55249411E+00  9.55249411E+00 -1.91049882E+01  0.00000000E+00  9.55249411E+00
  9.55249411E+00 -1.91049882E+01  0.00000000E+00  9.55249411E+00  9.55249411E+00
 -1.91049882E+01  0.00000000E+00  9.55249411E+00  9.55249411E+00 -1.91049882E+01
  0.00000000E+00  9.55249411E+00  9.55249411E+00 -1.91049882E+01  0.00000000E+00
  9.55249411E+00  9.55249411E+00 -1.91049882E+01  0.00000000E+00  9.55249411E+00
  9.55249411E+00 -1.91049882E+01  0.00000000E+00  9.55249411E+00  9.55249411E+00
 -1.91049882E+01  0.00000000E+00  9.55249411E+00  9.55249411E+00 -1.91049882E+01
  0.00000000E+00  9.55249411E+00  9.55249411E+00 -1.91049882E+01  0.00000000E+00
  9.55249411E+00  9.55249411E+00 -1.91049882E+01  0.00000000E+00  9.55249411E+00
  9.55249411E+00 -1.91049882E+01  0.00000000E+00  9.55249411E+00  9.55249411E+00
 -1.91049882E+01  0.00000000E+00  9.55249411E+00  9.55249411E+00 -1.91049882E+01
  0.00000000E+00  9.55249411E+00  9.55249411E+00 -1.91049882E+01  0.00000000E+00
  9.55249411E+00  9.55249411E+00 -1.91049882E+01  0.00000000E+00  9.55249411E+00
  9.55249411E+00 -1.91049882E+01  0.00000000E+00  9.55249411E+00  9.55249411E+00
 -1.91049882E+01  0.00000000E+00  9.55249411E+00  9.55249411E+00 -1.91049882E+01
  0.00000000E+00  9.55249411E+00  9.55249411E+00 -1.91049882E+01  0.00000000E+00
  9.55249411E+00  9.55249411E+00 -1.91049882E+01  0.00000000E+00  9.55249411E+00
  9.55249411E+00 -1.91049882E+01  0.00000000E+00  9.55249411E+00  9.55249411E+00
 -1.91049882E+01  0.00000000E+00  9.55249411E+00  9.55249411E+00 -1.91049882E+01
  0.00000000E+00  9.55249411E+00  9.55249411E+00 -1.91049882E+01  0.00000000E+00
  9.55249411E+00  9.55249411E+00 -1.91049882E+01  0.00000000E+00  9.55249411E+00
  9.55249411E+00 -1.91049882E+01  0.00000000E+00  9.55249411E+00  9.55249411E+00
 -1.91049882E+01  0.00000000E+00  9.55249411E+00  9.55249411E+00 -1.91049882E+01
  0.00000000E+00  9.55249411E+00  9.55249411E+00 -1.91049882E+01  0.00000000E+00
  9.55249411E+00  9.55249411E+00 -1.91049882E+01  0.00000000E+00  9.55249411E+00
  9.55249411E+00 -1.91049882E+01  0.00000000E+00  9.55249411E+00  9.55249411E+00
 -1.91049882E+01  0.00000000E+00  9.55249411E+00  9.55249411E+00 -1.91049882E+01
  0.00000000E+00  9.55249411E+00  9.55249411E+00 -1.91049882E+01  0.00000000E+00
  9.55249411E+00  9.55249411E+00 -1.91049882E+01  0.00000000E+00  9.55249411E+00
  9.55249411E+00 -1.91049882E+01  0.00000000E+00  9.55249411E+00  9.55249411E+00
 -1.91049882E+01  0.00000000E+00  9.55249411E+00  9.55249411E+00 -1.91049882E+01
  0.00000000E+00  9.55249411E+00  9.55249411E+00 -1.91049882E+01  0.00000000E+00
  9.55249411E+00  9.55249411E+00 -1.91049882E+01  0.00000000E+00  9.55249411E+00
  9.55249411E+00 -1.91049882E+01  0.00000000E+00  9.55249411E+00  9.55249411E+00
 -1.91049882E+01  0.00000000E+00  9.55249411E+00  9.55249411E+00 -1.91049882E+01
  0.00000000E+00  9.55249411E+00  9.55249411E+00 -1.91049882E+01  0.00000000E+00
  9.55249411E+00  9.55249411E+00 -1.91049882E+01  0.00000000E+00  9.55249411E+00
  9.55249411E+00 -1.91049882E+01  0.00000000E+00  9.55249411E+00  9.55249411E+00
 -1.91049882E+01  0.00000000E+00  9.55249411E+00  9.55249411E+00 -1.91049882E+01
  0.00000000E+00  9.55249411E+00  9.55249411E+00 -1.91049882E+01  0.00000000E+00
  9.55249411E+00  9.55249411E+00 -1.91049882E+01  0.00000000E+00  9.55249411E+00
  9.55249411E+00 -1.91049882E+01  0.00000000E+00  9.55249411E+00  9.55249411E+00
 -1.91049882E+01  0.00000000E+00  9.55249411E+00  9.55249411E+00 -1.91049882E+01
  0.00000000E+00  9.55249411E+00  9.55249411E+00 -1.91049882E+01  0.00000000E+00
  9.55249411E+00  9.55249411E+00 -1.91049882E+01  0.00000000E+00  9.55249411E+00
  9.55249411E+00 -1.91049882E+01  0.00000000E+00  9.55249411E+00  9.55249411E+00
 -1.91049882E+01  0.00000000E+00  9.55249411E+00  9.55249411E+00 -1.91049882E+01
  0.00000000E+00  9.55249411E+00  9.55249411E+00 -1.91049882E+01  0.00000000E+00
  9.55249411E+00  9.55249411E+00 -1.91049882E+01  0.00000000E+00  9.55249411E+00
  9.55249411E+00 -1.91049882E+01  0.00000000E+00  9.55249411E+00  9.55249411E+00
 -1.91049882E+01  0.00000000E+00  9.55249411E+00  9.55249411E+00 -1.91049882E+01
  0.00000000E+00  9.55249411E+00  9.55249411E+00 -1.91049882E+01  0.00000000E+00
  9.55249411E+00  9.55249411E+00 -1.91049882E+01  0.00000000E+00  9.55249411E+00
  9.55249411E+00 -1.91049882E+01  0.00000000E+00  9.55249411E+00  9.55249411E+00
 -1.91049882E+01  0.00000000E+00  9.55249411E+00  9.55249411E+00 -1.91049882E+01
  0.00000000E+00  9.55249411E+00  9.55249411E+00 -1.91049882E+01  0.00000000E+00
  9.55249411E+00  9.55249411E+00 -1.91049882E+01  0.00000000E+00  9.55249411E+00
  9.55249411E+00 -1.91049882E+01  0.00000000E+00  9.55249411E+00  9.55249411E+00
 -1.91049882E+01  0.00000000E+00  9.55249411E+00  9.55249411E+00 -1.91049882E+01
  0.00000000E+00  9.55249411E+00  9.55249411E+00 -1.91049882E+01  0.00000000E+00
  9.55249411E+00  9.55249411E+00 -1.91049882E+01  0.00000000E+00  9.55249411E+00
  9.55249411E+00 -1.91049882E+01  0.00000000E+00  9.55249411E+00  9.55249411E+00
 -1.91049882E+01  0.00000000E+00  9.55249411E+00  9.55249411E+00 -1.91049882E+01
  0.00000000E+00  9.55249411E+00  9.55249411E+00 -1.91049882E+01  0.00000000E+00
  9.55249411E+00  9.55249411E+00 -1.91049882E+01  0.00000000E+00  9.55249411E+00
  9.55249411E+00 -1.91049882E+01  0.00000000E+00  9.55249411E+00  9.55249411E+00
 -1.91049882E+01  0.00000000E+00  9.55249411E+00  9.55249411E+00 -1.91049882E+01
  0.00000000E+00  9.55249411E+00  9.55249411E+00 -1.91049882E+01  0.00000000E+00
  9.55249411E+00  9.55249411E+00 -1.91049882E+01  0.00000000E+00  9.55249411E+00
  9.55249411E+00 -1.91049882E+01  0.00000000E+00  9.55249411E+00  9.55249411E+00
 -1.91049882E+01  0.00000000E+00  9.55249411E+00  9.55249411E+00 -1.91049882E+01
  0.00000000E+00  9.55249411E+00  9.55249411E+00 -1.91049882E+01  0.00000000E+00
  9.55249411E+00  9.55249411E+00 -1.91049882E+01  0.00000000E+00  9.55249411E+00
  9.55249411E+00 -1.91049882E+01  0.00000000E+00  9.55249411E+00  9.55249411E+00
 -1.91049882E+01  0.00000000E+00  9.55249411E+00  9.55249411E+00 -1.91049882E+01
  0.00000000E+00  9.55249411E+00  9.55249411E+00 -1.91049882E+01  0.00000000E+00
  9.55249411E+00  9.55249411E+00 -1.91049882E+01  0.00000000E+00  9.55249411E+00
  9.55249411E+00 -1.91049882E+01  0.00000000E+00  9.55249411E+00  9.55249411E+00
 -1.91049882E+01  0.00000000E+00  9.55249411E+00  9.55249411E+00 -1.91049882E+01
  0.00000000E+00  9.55249411E+00  9.55249411E+00 -1.91049882E+01  0.00000000E+00
  9.55249411E+00  9.55249411E+00 -1.91049882E+01  0.00000000E+00  9.55249411E+00
  9.55249411E+00 -1.91049882E+01  0.00000000E+00  9.55249411E+00  9.55249411E+00
 -1.91049882E+01  0.00000000E+00  9.55249411E+00  9.55249411E+00 -1.91049882E+01
  0.00000000E+00  9.55249411E+00  9.55249411E+00 -1.91049882E+01  0.00000000E+00
  9.55249411E+00  9.55249411E+00 -1.91049882E+01  0.00000000E+00  9.55249411E+00
  9.55249411E+00 -1.91049882E+01  0.00000000E+00  9.55249411E+00  9.55249411E+00
 -1.91049882E+01  0.00000000E+00  9.55249411E+00  9.55249411E+00 -1.91049882E+01
  0.00000000E+00  9.55249411E+00  9.55249411E+00 -1.91049882E+01  0.00000000E+00
  9.55249411E+00  9.55249411E+00 -1.91049882E+01  0.00000000E+00  9.55249411E+00
  9.55249411E+00 -1.91049882E+01  0.00000000E+00  9.55249411E+00  9.55249411E+00
 -1.91049882E+01  0.00000000E+00  9.55249411E+00  9.55249411E+00 -1.91049882E+01
  0.00000000E+00  9.55249411E+00  9.55249411E+00 -1.91049882E+01  0.00000000E+00
  9.55249411E+00  9.55249411E+00 -1.91049882E+01  0.00000000E+00  9.55249411E+00
  9.55249411E+00 -1.91049882E+01  0.00000000E+00  9.55249411E+00  9.55249411E+00
 -1.91049882E+01  0.00000000E+00  9.55249411E+00  9.55249411E+00 -1.91049882E+01
  0.00000000E+00  9.55249411E+00  9.55249411E+00 -1.91049882E+01  0.00000000E+00
  9.55249411E+00  9.55249411E+00 -1.91049882E+01  0.00000000E+00  9.55249411E+00
  9.55249411E+00 -1.91049882E+01  0.00000000E+00  9.55249411E+00  9.55249411E+00
 -1.91049882E+01  0.00000000E+00  9.55249411E+00  9.55249411E+00 -1.91049882E+01
  0.00000000E+00  9.55249411E+00  9.55249411E+00 -1.91049882E+01  0.00000000E+00
  9.55249411E+00  9.55249411E+00 -1.91049882E+01  0.00000000E+00  9.55249411E+00
  9.55249411E+00 -1.91049882E+01  0.00000000E+00  9.55249411E+00  9.55249411E+00
 -1.91049882E+01  0.00000000E+00  9.55249411E+00  9.55249411E+00 -1.91049882E+01
  0.00000000E+00  9.55249411E+00  9.55249411E+00 -1.91049882E+01  0.00000000E+00
  9.55249411E+00  9.55249411E+00 -1.91049882E+01  0.00000000E+00  9.55249411E+00
  9.55249411E+00 -1.91049882E+01  0.00000000E+00  9.55249411E+00  9.55249411E+00
 -1.91049882E+01  0.00000000E+00  9.55249411E+00  9.55249411E+00 -1.91049882E+01
  0.00000000E+00  9.55249411E+00  9.55249411E+00 -1.91049882E+01  0.00000000E+00
  9.55249411E+00  9.55249411E+00 -1.91049882E+01  0.00000000E+00  9.55249411E+00
  9.55249411E+00 -1.91049882E+01  0.00000000E+00  9.55249411E+00  9.55249411E+00
 -1.91049882E+01  0.00000000E+00  9.55249411E+00  9.55249411E+00 -1.91049882E+01
  0.00000000E+00  9.55249411E+00  9.55249411E+00 -1.91049882E+01  0.00000000E+00
  9.55249411E+00  9.55249411E+00 -1.91049882E+01  0.00000000E+00  9.55249411E+00
  9.55249411E+00 -1.91049882E+01  0.00000000E+00  9.55249411E+00  9.55249411E+00
 -1.91049882E+01  0.00000000E+00  9.55249411E+00  9.55249411E+00 -1.91049882E+01
  0.00000000E+00  9.55249411E+00  9.55249411E+00 -1.91049882E+01  0.00000000E+00
  9.55249411E+00  9.55249411E+00 -1.91049882E+01  0.00000000E+00  9.55249411E+00
  9.55249411E+00 -1.91049882E+01  0.00000000E+00  9.55249411E+00  9.55249411E+00
 -1.91049882E+01  0.00000000E+00  9.55249411E+00  9.55249411E+00 -1.91049882E+01
  0.00000000E+00  9.55249411E+00  9.55249411E+00 -1.91049882E+01  0.00000000E+00
  9.55249411E+00  9.55249411E+00 -1.91049882E+01  0.00000000E+00  9.55249411E+00
  9.55249411E+00 -1.91049882E+01  0.00000000E+00  9.55249411E+00  9.55249411E+00
 -1.91049882E+01  0.00000000E+00  9.55249411E+00  9.55249411E+00 -1.91049882E+01
  0.00000000E+00  9.55249411E+00  9.55249411E+00 -1.91049882E+01  0.00000000E+00
  9.55249411E+00  9.55249411E+00 -1.91049882E+01  0.00000000E+00  9.55249411E+00
  9.55249411E+00 -1.91049882E+01  0.00000000E+00  9.55249411E+00  9.55249411E+00
 -1.91049882E+01  0.00000000E+00  9.55249411E+00  9.55249411E+00 -1.91049882E+01
  0.00000000E+00  9.55249411E+00  9.55249411E+00 -1.91049882E+01  0.00000000E+00
  9.55249411E+00  9.55249411E+00 -1.91049882E+01  0.00000000E+00  9.55249411E+00
  9.55249411E+00 -1.91049882E+01  0.00000000E+00  9.55249411E+00  9.55249411E+00
 -1.91049882E+01  0.00000000E+00  9.55249411E+00  9.55249411E+00 -1.91049882E+01
  0.00000000E+00  9.55249411E+00  9.55249411E+00 -1.91049882E+01  0.00000000E+00
  9.55249411E+00  9.55249411E+00 -1.91049882E+01  0.00000000E+00  9.55249411E+00
  9.55249411E+00 -1.91049882E+01  0.00000000E+00  9.55249411E+00  9.55249411E+00
 -1.91049882E+01  0.00000000E+00  9.55249411E+00  9.55249411E+00 -1.91049882E+01
  0.00000000E+00  9.55249411E+00  9.55249411E+00 -1.91049882E+01  0.00000000E+00
  9.55249411E+00  9.55249411E+00 -1.91049882E+01  0.00000000E+00  9.55249411E+00
  9.55249411E+00 -1.91049882E+01  0.00000000E+00  9.55249411E+00  9.55249411E+00
 -1.91049882E+01  0.00000000E+00  9.55249411E+00  9.55249411E+00 -1.91049882E+01
  0.00000000E+00  9.55249411E+00  9.55249411E+00 -1.91049882E+01  0.00000000E+00
  9.55249411E+00  9.55249411E+00 -1.91049882E+01  0.00000000E+00  9.55249411E+00
  9.55249411E+00 -1.91049882E+01  0.00000000E+00  9.55249411E+00  9.55249411E+00
 -1.91049882E+01  0.00000000E+00  9.55249411E+00  9.55249411E+00 -1.91049882E+01
  0.00000000E+00  9.55249411E+00  9.55249411E+00 -1.91049882E+01  0.00000000E+00
  9.55249411E+00  9.55249411E+00 -1.91049882E+01  0.00000000E+00  9.55249411E+00
  9.55249411E+00 -1.91049882E+01  0.00000000E+00  9.55249411E+00  9.55249411E+00
 -1.91049882E+01  0.00000000E+00  9.55249411E+00  9.55249411E+00 -1.91049882E+01
  0.00000000E+00  9.55249411E+00  9.55249411E+00 -1.91049882E+01  0.00000000E+00
  9.55249411E+00  9.55249411E+00 -1.91049882E+01  0.00000000E+00  9.55249411E+00
  9.55249411E+00 -1.91049882E+01  0.00000000E+00  9.55249411E+00  9.55249411E+00
 -1.91049882E+01  0.00000000E+00  9.55249411E+00  9.55249411E+00 -1.91049882E+01
  0.00000000E+00  9.55249411E+00  9.55249411E+00 -1.91049882E+01  0.00000000E+00
  9.55249411E+00  9.55249411E+00 -1.91049882E+01  0.00000000E+00  9.55249411E+00
  9.55249411E+00 -1.91049882E+01  0.00000000E+00  9.55249411E+00  9.55249411E+00
 -1.91049882E+01  0.00000000E+00  9.55249411E+00  9.55249411E+00 -1.91049882E+01
  0.00000000E+00  9.55249411E+00  9.55249411E+00 -1.91049882E+01  0.00000000E+00
  9.55249411E+00  9.55249411E+00 -1.91049882E+01  0.00000000E+00  9.55249411E+00
  9.55249411E+00 -1.91049882E+01  0.00000000E+00  9.55249411E+00  9.55249411E+00
 -1.91049882E+01  0.00000000E+00  9.55249411E+00  9.55249411E+00 -1.91049882E+01
  0.00000000E+00  9.55249411E+00  9.55249411E+00 -1.91049882E+01  0.00000000E+00
  9.55249411E+00  9.55249411E+00 -1.91049882E+01  0.00000000E+00  9.55249411E+00
  9.55249411E+00 -1.91049882E+01  0.00000000E+00  9.55249411E+00  9.55249411E+00
 -1.91049882E+01  0.00000000E+00  9.55249411E+00  9.55249411E+00 -1.91049882E+01
  0.00000000E+00  9.55249411E+00  9.55249411E+00 -1.91049882E+01  0.00000000E+00
  9.55249411E+00  9.55249411E+00 -1.91049882E+01  0.00000000E+00  9.55249411E+00
  9.55249411E+00 -1.91049882E+01  0.00000000E+00  9.55249411E+00  9.55249411E+00
 -1.91049882E+01  0.00000000E+00  9.55249411E+00  9.55249411E+00 -1.91049882E+01
  0.00000000E+00  9.55249411E+00  9.55249411E+00 -1.91049882E+01  0.00000000E+00
  9.55249411E+00  9.55249411E+00 -1.91049882E+01  0.00000000E+00  9.55249411E+00
  9.55249411E+00 -1.91049882E+01  0.00000000E+00  9.55249411E+00  9.55249411E+00
 -1.91049882E+01  0.00000000E+00  9.55249411E+00  9.55249411E+00 -1.91049882E+01
  0.00000000E+00  9.55249411E+00  9.55249411E+00 -1.91049882E+01  0.00000000E+00
  9.55249411E+00  9.55249411E+00 -1.91049882E+01  0.00000000E+00  9.55249411E+00
  9.55249411E+00 -1.91049882E+01  0.00000000E+00  9.55249411E+00  9.55249411E+00
 -1.91049882E+01  0.00000000E+00  9.55249411E+00  9.55249411E+00 -1.91049882E+01
  0.00000000E+00  9.55249411E+00  9.55249411E+00 -1.91049882E+01  0.00000000E+00
  9.55249411E+00  9.55249411E+00 -1.91049882E+01  0.00000000E+00  9.55249411E+00
  9.55249411E+00 -1.91049882E+01  0.00000000E+00  9.55249411E+00  9.55249411E+00
 -1.91049882E+01  0.00000000E+00  9.55249411E+00  9.55249411E+00 -1.91049882E+01
  0.00000000E+00  9.55249411E+00  9.55249411E+00 -1.91049882E+01  0.00000000E+00
  9.55249411E+00  9.55249411E+00 -1.91049882E+01  0.00000000E+00  9.55249411E+00
  9.55249411E+00 -1.91049882E+01  0.00000000E+00  9.55249411E+00  9.55249411E+00
 -1.91049882E+01  0.00000000E+00  9.55249411E+00  9.55249411E+00 -1.91049882E+01
  0.00000000E+00  9.55249411E+00  9.55249411E+00 -1.91049882E+01  0.00000000E+00
  9.55249411E+00  9.55249411E+00 -1.91049882E+01  0.00000000E+00  9.55249411E+00
  9.55249411E+00 -1.91049882E+01  0.00000000E+00  9.55249411E+00  9.55249411E+00
 -1.91049882E+01  0.00000000E+00  9.55249411E+00  9.55249411E+00 -1.91049882E+01
  0.00000000E+00  9.55249411E+00  9.55249411E+00 -1.91049882E+01  0.00000000E+00
  9.55249411E+00  9.55249411E+00 -1.91049882E+01  0.00000000E+00  9.55249411E+00
  9.55249411E+00 -1.91049882E+01  0.00000000E+00  9.55249411E+00  9.55249411E+00
 -1.91049882E+01  0.00000000E+00  9.55249411E+00  9.55249411E+00 -1.91049882E+01
  0.00000000E+00  9.55249411E+00  9.55249411E+00 -1.91049882E+01  0.00000000E+00
  9.55249411E+00  9.55249411E+00 -1.91049882E+01  0.00000000E+00  9.55249411E+00
  9.55249411E+00 -1.91049882E+01  0.00000000E+00  9.55249411E+00  9.55249411E+00
 -1.91049882E+01  0.00000000E+00  9.55249411E+00  9.55249411E+00 -1.91049882E+01
  0.00000000E+00  9.55249411E+00  9.55249411E+00 -1.91049882E+01  0.00000000E+00
  9.55249411E+00  9.55249411E+00 -1.91049882E+01  0.00000000E+00  9.55249411E+00
  9.55249411E+00 -1.91049882E+01  0.00000000E+00  9.55249411E+00  9.55249411E+00
 -1.91049882E+01  0.00000000E+00  9.55249411E+00  9.55249411E+00 -1.91049882E+01
  0.00000000E+00  9.55249411E+00  9.55249411E+00 -1.91049882E+01  0.00000000E+00
  9.55249411E+00  9.55249411E+00 -1.91049882E+01  0.00000000E+00  9.55249411E+00
  9.55249411E+00 -1.91049882E+01  0.00000000E+00  9.55249411E+00  9.55249411E+00
 -1.91049882E+01  0.00000000E+00  9.55249411E+00  9.55249411E+00 -1.91049882E+01
  0.00000000E+00  9.55249411E+00  9.55249411E+00 -1.91049882E+01  0.00000000E+00
  9.55249411E+00  9.55249411E+00 -1.91049882E+01  0.00000000E+00  9.55249411E+00
  9.55249411E+00 -1.91049882E+01  0.00000000E+00  9.55249411E+00  9.55249411E+00
 -1.91049882E+01  0.00000000E+00  9.55249411E+00  9.55249411E+00 -1.91049882E+01
  0.00000000E+00  9.55249411E+00  9.55249411E+00 -1.91049882E+01  0.00000000E+00
  9.55249411E+00  9.55249411E+00 -1.91049882E+01  0.00000000E+00  9.55249411E+00
  9.55249411E+00 -1.91049882E+01  0.00000000E+00  9.55249411E+00  9.55249411E+00
 -1.91049882E+01  0.00000000E+00  9.55249411E+00  9.55249411E+00 -1.91049882E+01
  0.00000000E+00  9.55249411E+00  9.55249411E+00 -1.91049882E+01  0.00000000E+00
  9.55249411E+00  9.55249411E+00 -1.91049882E+01  0.00000000E+00  9.55249411E+00
  9.55249411E+00 -1.91049882E+01  0.00000000E+00  9.55249411E+00  9.55249411E+00
 -1.91049882E+01  0.00000000E+00  9.55249411E+00  9.55249411E+00 -1.91049882E+01
  0.00000000E+00  9.55249411E+00  9.55249411E+00 -1.91049882E+01  0.00000000E+00
  9.55249411E+00  9.55249411E+00 -1.91049882E+01  0.00000000E+00  9.55249411E+00
  9.55249411E+00 -1.91049882E+01  0.00000000E+00  9.55249411E+00  9.55249411E+00
 -1.91049882E+01  0.00000000E+00  9.55249411E+00  9.55249411E+00 -1.91049882E+01
  0.00000000E+00  9.55249411E+00  9.55249411E+00 -1.91049882E+01  0.00000000E+00
  9.55249411E+00  9.55249411E+00 -1.91049882E+01  0.00000000E+00  9.55249411E+00
  9.55249411E+00 -1.91049882E+01  0.00000000E+00  9.55249411E+00  9.55249411E+00
 -1.91049882E+01  0.00000000E+00  9.55249411E+00  9.55249411E+00 -1.91049882E+01
  0.00000000E+00  9.55249411E+00  9.55249411E+00 -1.91049882E+01  0.00000000E+00
  9.55249411E+00  9.55249411E+00 -1.91049882E+01  0.00000000E+00  9.55249411E+00
  9.55249411E+00 -1.91049882E+01  0.00000000E+00  9.55249411E+00  9.55249411E+00
 -1.91049882E+01  0.00000000E+00  9.55249411E+00  9.55249411E+00 -1.91049882E+01
  0.00000000E+00  9.55249411E+00  9.55249411E+00 -1.91049882E+01  0.00000000E+00
  9.55249411E+00  9.55249411E+00 -1.91049882E+01  0.00000000E+00  9.55249411E+00
  9.55249411E+00 -1.91049882E+01  0.00000000E+00  9.55249411E+00  9.55249411E+00
 -1.91049882E+01  0.00000000E+00  9.55249411E+00  9.55249411E+00 -1.91049882E+01
  0.00000000E+00  9.55249411E+00  9.55249411E+00 -1.91049882E+01  0.00000000E+00
  9.55249411E+00  9.55249411E+00 -1.91049882E+01  0.00000000E+00  9.55249411E+00
  9.55249411E+00 -1.91049882E+01  0.00000000E+00  9.55249411E+00  9.55249411E+00
 -1.91049882E+01  0.00000000E+00  9.55249411E+00  9.55249411E+00 -1.91049882E+01
  0.00000000E+00  9.55249411E+00  9.55249411E+00 -1.91049882E+01  0.00000000E+00
  9.55249411E+00  9.55249411E+00 -1.91049882E+01  0.00000000E+00  9.55249411E+00
  9.55249411E+00 -1.91049882E+01  0.00000000E+00  9.55249411E+00  9.55249411E+00
 -1.91049882E+01  0.00000000E+00  9.55249411E+00  9.55249411E+00 -1.91049882E+01
  0.00000000E+00  9.55249411E+00  9.55249411E+00 -1.91049882E+01  0.00000000E+00
  9.55249411E+00  9.55249411E+00 -1.91049882E+01  0.00000000E+00  9.55249411E+00
  9.55249411E+00 -1.91049882E+01  0.00000000E+00  9.55249411E+00  9.55249411E+00
 -1.91049882E+01  0.00000000E+00  9.55249411E+00  9.55249411E+00 -1.91049882E+01
  0.00000000E+00  9.55249411E+00  9.55249411E+00 -1.91049882E+01  0.00000000E+00
  9.55249411E+00  9.55249411E+00 -1.91049882E+01  0.00000000E+00  9.55249411E+00
  9.55249411E+00 -1.91049882E+01  0.00000000E+00  9.55249411E+00  9.55249411E+00
 -1.91049882E+01  0.00000000E+00  9.55249411E+00  9.55249411E+00 -1.91049882E+01
  0.00000000E+00  9.55249411E+00  9.55249411E+00 -1.91049882E+01  0.00000000E+00
  9.55249411E+00  9.55249411E+00 -1.91049882E+01  0.00000000E+00  9.55249411E+00
  9.55249411E+00 -1.91049882E+01  0.00000000E+00  9.55249411E+00  9.55249411E+00
 -1.91049882E+01  0.00000000E+00  9.55249411E+00  9.55249411E+00 -1.91049882E+01
  0.00000000E+00  9.55249411E+00  9.55249411E+00 -1.91049882E+01  0.00000000E+00
  9.55249411E+00  9.55249411E+00 -1.91049882E+01  0.00000000E+00  9.55249411E+00
  9.55249411E+00 -1.91049882E+01  0.00000000E+00  9.55249411E+00  9.55249411E+00
 -1.91049882E+01  0.00000000E+00  9.55249411E+00  9.55249411E+00 -1.91049882E+01
  0.00000000E+00  9.55249411E+00  9.55249411E+00 -1.91049882E+01  0.00000000E+00
  9.55249411E+00  9.55249411E+00 -1.91049882E+01  0.00000000E+00  9.55249411E+00
  9.55249411E+00 -1.91049882E+01  0.00000000E+00  9.55249411E+00  9.55249411E+00
 -1.91049882E+01  0.00000000E+00  9.55249411E+00  9.55249411E+00 -1.91049882E+01
  0.00000000E+00  9.55249411E+00  9.55249411E+00 -1.91049882E+01  0.00000000E+00
  9.55249411E+00  9.55249411E+00 -1.91049882E+01  0.00000000E+00  9.55249411E+00
  9.55249411E+00 -1.91049882E+01  0.00000000E+00  9.55249411E+00  9.55249411E+00
 -1.91049882E+01  0.00000000E+00  9.55249411E+00  9.55249411E+00 -1.91049882E+01
  0.00000000E+00  9.55249411E+00  9.55249411E+00 -1.91049882E+01  0.00000000E+00
  9.55249411E+00  9.55249411E+00 -1.91049882E+01  0.00000000E+00  9.55249411E+00
  9.55249411E+00 -1.91049882E+01  0.00000000E+00  9.55249411E+00  9.55249411E+00
 -1.91049882E+01  0.00000000E+00  9.55249411E+00  9.55249411E+00 -1.91049882E+01
  0.00000000E+00  9.55249411E+00  9.55249411E+00 -1.91049882E+01  0.00000000E+00
  9.55249411E+00  9.55249411E+00 -1.91049882E+01  0.00000000E+00  9.55249411E+00
  9.55249411E+00 -1.91049882E+01  0.00000000E+00  9.55249411E+00  9.55249411E+00
 -1.91049882E+01  0.00000000E+00  9.55249411E+00  9.55249411E+00 -1.91049882E+01
  0.00000000E+00  9.55249411E+00  9.55249411E+00 -1.91049882E+01  0.00000000E+00
  9.55249411E+00  9.55249411E+00 -1.91049882E+01  0.00000000E+00  9.55249411E+00
  9.55249411E+00 -1.91049882E+01  0.00000000E+00  9.55249411E+00  9.55249411E+00
 -1.91049882E+01  0.00000000E+00  9.55249411E+00  9.55249411E+00 -1.91049882E+01
  0.00000000E+00  9.55249411E+00  9.55249411E+00 -1.91049882E+01  0.00000000E+00
  9.55249411E+00  9.55249411E+00 -1.91049882E+01  0.00000000E+00  9.55249411E+00
  9.55249411E+00 -1.91049882E+01  0.00000000E+00  9.55249411E+00  9.55249411E+00
 -1.91049882E+01  0.00000000E+00  9.55249411E+00  9.55249411E+00 -1.91049882E+01
  0.00000000E+00  9.55249411E+00  9.55249411E+00 -1.91049882E+01  0.00000000E+00
  9.55249411E+00  9.55249411E+00 -1.91049882E+01  0.00000000E+00  9.55249411E+00
  9.55249411E+00 -1.91049882E+01  0.00000000E+00  9.55249411E+00  9.55249411E+00
 -1.91049882E+01  0.00000000E+00  9.55249411E+00  9.55249411E+00 -1.91049882E+01
  0.00000000E+00  9.55249411E+00  9.55249411E+00 -1.91049882E+01  0.00000000E+00
  9.55249411E+00  9.55249411E+00 -1.91049882E+01  0.00000000E+00  9.55249411E+00
  9.55249411E+00 -1.91049882E+01  0.00000000E+00  9.55249411E+00  9.55249411E+00
 -1.91049882E+01  0.00000000E+00  9.55249411E+00  9.55249411E+00 -1.91049882E+01
  0.00000000E+00  9.55249411E+00  9.55249411E+00 -1.91049882E+01  0.00000000E+00
  9.55249411E+00  9.55249411E+00 -1.91049882E+01  0.00000000E+00  9.55249411E+00
  9.55249411E+00 -1.91049882E+01  0.00000000E+00  9.55249411E+00  9.55249411E+00
 -1.91049882E+01  0.00000000E+00  9.55249411E+00  9.55249411E+00 -1.91049882E+01
  0.00000000E+00  9.55249411E+00  9.55249411E+00 -1.91049882E+01  0.00000000E+00
  9.55249411E+00  9.55249411E+00 -1.91049882E+01  0.00000000E+00  9.55249411E+00
  9.55249411E+00 -1.91049882E+01  0.00000000E+00  9.55249411E+00  9.55249411E+00
 -1.91049882E+01  0.00000000E+00  9.55249411E+00  9.55249411E+00 -1.91049882E+01
  0.00000000E+00  9.55249411E+00  9.55249411E+00 -1.91049882E+01  0.00000000E+00
  9.55249411E+00  9.55249411E+00 -1.91049882E+01  0.00000000E+00  9.55249411E+00
  9.55249411E+00 -1.91049882E+01  0.00000000E+00  9.55249411E+00  9.55249411E+00
 -1.91049882E+01  0.00000000E+00  9.55249411E+00  9.55249411E+00 -1.91049882E+01
  0.00000000E+00  9.55249411E+00  9.55249411E+00 -1.91049882E+01  0.00000000E+00
  9.55249411E+00  9.55249411E+00 -1.91049882E+01  0.00000000E+00  9.55249411E+00
  9.55249411E+00 -1.91049882E+01  0.00000000E+00  9.55249411E+00  9.55249411E+00
 -1.91049882E+01  0.00000000E+00  9.55249411E+00  9.55249411E+00 -1.91049882E+01
  0.00000000E+00  9.55249411E+00  9.55249411E+00 -1.91049882E+01  0.00000000E+00
  9.55249411E+00  9.55249411E+00 -1.91049882E+01  0.00000000E+00  9.55249411E+00
  9.55249411E+00 -1.91049882E+01  0.00000000E+00  9.55249411E+00  9.55249411E+00
 -1.91049882E+01  0.00000000E+00  9.55249411E+00  9.55249411E+00 -1.91049882E+01
  0.00000000E+00  9.55249411E+00  9.55249411E+00 -1.91049882E+01  0.00000000E+00
  9.55249411E+00  9.55249411E+00 -1.91049882E+01  0.00000000E+00  9.55249411E+00
  9.55249411E+00 -1.91049882E+01  0.00000000E+00  9.55249411E+00  9.55249411E+00
 -1.91049882E+01  0.00000000E+00  9.55249411E+00  9.55249411E+00 -1.91049882E+01
  0.00000000E+00  9.55249411E+00  9.55249411E+00 -1.91049882E+01  0.00000000E+00
  9.55249411E+00  9.55249411E+00 -1.91049882E+01  0.00000000E+00  9.55249411E+00
  9.55249411E+00 -1.91049882E+01  0.00000000E+00  9.55249411E+00  9.55249411E+00
 -1.91049882E+01  0.00000000E+00  9.55249411E+00  9.55249411E+00 -1.91049882E+01
  0.00000000E+00  9.55249411E+00  9.55249411E+00 -1.91049882E+01  0.00000000E+00
  9.55249411E+00  9.55249411E+00 -1.91049882E+01  0.00000000E+00  9.55249411E+00
  9.55249411E+00 -1.91049882E+01  0.00000000E+00  9.55249411E+00  9.55249411E+00
 -1.91049882E+01  0.00000000E+00  9.55249411E+00  9.55249411E+00 -1.91049882E+01
  0.00000000E+00  9.55249411E+00  9.55249411E+00 -1.91049882E+01  0.00000000E+00
  9.55249411E+00  9.55249411E+00 -1.91049882E+01  0.00000000E+00  9.55249411E+00
  9.55249411E+00 -1.91049882E+01  0.00000000E+00  9.55249411E+00  9.55249411E+00
 -1.91049882E+01  0.00000000E+00  9.55249411E+00  9.55249411E+00 -1.91049882E+01
  0.00000000E+00  9.55249411E+00  9.55249411E+00 -1.91049882E+01  0.00000000E+00
  9.55249411E+00  9.55249411E+00 -1.91049882E+01  0.00000000E+00  9.55249411E+00
  9.55249411E+00 -1.91049882E+01  0.00000000E+00  9.55249411E+00  9.55249411E+00
 -1.91049882E+01  0.00000000E+00  9.55249411E+00  9.55249411E+00 -1.91049882E+01
  0.00000000E+00  9.55249411E+00  9.55249411E+00 -1.91049882E+01  0.00000000E+00
  9.55249411E+00  9.55249411E+00 -1.91049882E+01  0.00000000E+00  9.55249411E+00
  9.55249411E+00 -1.91049882E+01  0.00000000E+00  9.55249411E+00  9.55249411E+00
 -1.91049882E+01  0.00000000E+00  9.55249411E+00  9.55249411E+00 -1.91049882E+01
  0.00000000E+00  9.55249411E+00  9.55249411E+00 -1.91049882E+01  0.00000000E+00
  9.55249411E+00  9.55249411E+00 -1.91049882E+01  0.00000000E+00  9.55249411E+00
  9.55249411E+00 -1.91049882E+01  0.00000000E+00  9.55249411E+00  9.55249411E+00
 -1.91049882E+01  0.00000000E+00  9.55249411E+00  9.55249411E+00 -1.91049882E+01
  0.00000000E+00  9.55249411E+00  9.55249411E+00 -1.91049882E+01  0.00000000E+00
  9.55249411E+00  9.55249411E+00 -1.91049882E+01  0.00000000E+00  9.55249411E+00
  9.55249411E+00 -1.91049882E+01  0.00000000E+00  9.55249411E+00  9.55249411E+00
 -1.91049882E+01  0.00000000E+00  9.55249411E+00  9.55249411E+00 -1.91049882E+01
  0.00000000E+00  9.55249411E+00  9.55249411E+00 -1.91049882E+01  0.00000000E+00
  9.55249411E+00  9.55249411E+00 -1.91049882E+01  0.00000000E+00  9.55249411E+00
  9.55249411E+00 -1.91049882E+01  0.00000000E+00  9.55249411E+00  9.55249411E+00
 -1.91049882E+01  0.00000000E+00  9.55249411E+00  9.55249411E+00 -1.91049882E+01
  0.00000000E+00  9.55249411E+00  9.55249411E+00 -1.91049882E+01  0.00000000E+00
  9.55249411E+00  9.55249411E+00 -1.91049882E+01  0.00000000E+00  9.55249411E+00
  9.55249411E+00 -1.91049882E+01  0.00000000E+00  9.55249411E+00  9.55249411E+00
 -1.91049882E+01  0.00000000E+00  9.55249411E+00  9.55249411E+00 -1.91049882E+01
  0.00000000E+00  9.55249411E+00  9.55249411E+00 -1.91049882E+01  0.00000000E+00
  9.55249411E+00  9.55249411E+00 -1.91049882E+01  0.00000000E+00  9.55249411E+00
  9.55249411E+00 -1.91049882E+01  0.00000000E+00  9.55249411E+00  9.55249411E+00
 -1.91049882E+01  0.00000000E+00  9.55249411E+00  9.55249411E+00 -1.91049882E+01
  0.00000000E+00  9.55249411E+00  9.55249411E+00 -1.91049882E+01  0.00000000E+00
  9.55249411E+00  9.55249411E+00 -1.91049882E+01  0.00000000E+00  9.55249411E+00
  9.55249411E+00 -1.91049882E+01  0.00000000E+00  9.55249411E+00  9.55249411E+00
 -1.91049882E+01  0.00000000E+00  9.55249411E+00  9.55249411E+00 -1.91049882E+01
  0.00000000E+00  9.55249411E+00  9.55249411E+00 -1.91049882E+01  0.00000000E+00
  9.55249411E+00  9.55249411E+00 -1.91049882E+01  0.00000000E+00  9.55249411E+00
  9.55249411E+00 -1.91049882E+01  0.00000000E+00  9.55249411E+00  9.55249411E+00
 -1.91049882E+01  0.00000000E+00  9.55249411E+00  9.55249411E+00 -1.91049882E+01
  0.00000000E+00  9.55249411E+00  9.55249411E+00 -1.91049882E+01  0.00000000E+00
  9.55249411E+00  9.55249411E+00 -1.91049882E+01  0.00000000E+00  9.55249411E+00
  9.55249411E+00 -1.91049882E+01  0.00000000E+00  9.55249411E+00  9.55249411E+00
 -1.91049882E+01  0.00000000E+00  9.55249411E+00  9.55249411E+00 -1.91049882E+01
  0.00000000E+00  9.55249411E+00  9.55249411E+00 -1.91049882E+01  0.00000000E+00
  9.55249411E+00  9.55249411E+00 -1.91049882E+01  0.00000000E+00  9.55249411E+00
  9.55249411E+00 -1.91049882E+01  0.00000000E+00  9.55249411E+00  9.55249411E+00
 -1.91049882E+01  0.00000000E+00  9.55249411E+00  9.55249411E+00 -1.91049882E+01
  0.00000000E+00  9.55249411E+00  9.55249411E+00 -1.91049882E+01  0.00000000E+00
  9.55249411E+00  9.55249411E+00 -1.91049882E+01  0.00000000E+00  9.55249411E+00
  9.55249411E+00 -1.91049882E+01  0.00000000E+00  9.55249411E+00  9.55249411E+00
 -1.91049882E+01  0.00000000E+00  9.55249411E+00  9.55249411E+00 -1.91049882E+01
  0.00000000E+00  9.55249411E+00  9.55249411E+00 -1.91049882E+01  0.00000000E+00
  9.55249411E+00  9.55249411E+00 -1.91049882E+01  0.00000000E+00  9.55249411E+00
  9.55249411E+00 -1.91049882E+01  0.00000000E+00  9.55249411E+00  9.55249411E+00
 -1.91049882E+01  0.00000000E+00  9.55249411E+00  9.55249411E+00 -1.91049882E+01
  0.00000000E+00  9.55249411E+00  9.55249411E+00 -1.91049882E+01  0.00000000E+00
  9.55249411E+00  9.55249411E+00 -1.91049882E+01  0.00000000E+00  9.55249411E+00
  9.55249411E+00 -1.91049882E+01  0.00000000E+00  9.55249411E+00  9.55249411E+00
 -1.91049882E+01  0.00000000E+00  9.55249411E+00  9.55249411E+00 -1.91049882E+01
  0.00000000E+00  9.55249411E+00  9.55249411E+00 -1.91049882E+01  0.00000000E+00
  9.55249411E+00  9.55249411E+00 -1.91049882E+01  0.00000000E+00  9.55249411E+00
  9.55249411E+00 -1.91049882E+01  0.00000000E+00  9.55249411E+00  9.55249411E+00
 -1.91049882E+01  0.00000000E+00  9.55249411E+00  9.55249411E+00 -1.91049882E+01
  0.00000000E+00  9.55249411E+00  9.55249411E+00 -1.91049882E+01  0.00000000E+00
  9.55249411E+00  9.55249411E+00 -1.91049882E+01  0.00000000E+00  9.55249411E+00
  9.55249411E+00 -1.91049882E+01  0.00000000E+00  9.55249411E+00  9.55249411E+00
 -1.91049882E+01  0.00000000E+00  9.55249411E+00  9.55249411E+00 -1.91049882E+01
  0.00000000E+00  9.55249411E+00  9.55249411E+00 -1.91049882E+01  0.00000000E+00
  9.55249411E+00  9.55249411E+00 -1.91049882E+01  0.00000000E+00  9.55249411E+00
  9.55249411E+00 -1.91049882E+01  0.00000000E+00  9.55249411E+00  9.55249411E+00
 -1.91049882E+01  0.00000000E+00  9.55249411E+00  9.55249411E+00 -1.91049882E+01
  0.00000000E+00  9.55249411E+00  9.55249411E+00 -1.91049882E+01  0.00000000E+00
  9.55249411E+00  9.55249411E+00 -1.91049882E+01  0.00000000E+00  9.55249411E+00
  9.55249411E+00 -1.91049882E+01  0.00000000E+00  9.55249411E+00  9.55249411E+00
 -1.91049882E+01  0.00000000E+00  9.55249411E+00  9.55249411E+00 -1.91049882E+01
  0.00000000E+00  9.55249411E+00  9.55249411E+00 -1.91049882E+01  0.00000000E+00
  9.55249411E+00  9.55249411E+00 -1.91049882E+01  0.00000000E+00  9.55249411E+00
  9.55249411E+00 -1.91049882E+01  0.00000000E+00  9.55249411E+00  9.55249411E+00
 -1.91049882E+01  0.00000000E+00  9.55249411E+00  9.55249411E+00 -1.91049882E+01
  0.00000000E+00  9.55249411E+00  9.55249411E+00 -1.91049882E+01  0.00000000E+00
  9.55249411E+00  9.55249411E+00 -1.91049882E+01  0.00000000E+00  9.55249411E+00
  9.55249411E+00 -1.91049882E+01  0.00000000E+00  9.55249411E+00  9.55249411E+00
 -1.91049882E+01  0.00000000E+00  9.55249411E+00  9.55249411E+00 -1.91049882E+01
  0.00000000E+00  9.55249411E+00  9.55249411E+00 -1.91049882E+01  0.00000000E+00
  9.55249411E+00  9.55249411E+00 -1.91049882E+01  0.00000000E+00  9.55249411E+00
  9.55249411E+00 -1.91049882E+01  0.00000000E+00  9.55249411E+00  9.55249411E+00
 -1.91049882E+01  0.00000000E+00  9.55249411E+00  9.55249411E+00 -1.91049882E+01
  0.00000000E+00  9.55249411E+00  9.55249411E+00 -1.91049882E+01  0.00000000E+00
  9.55249411E+00  9.55249411E+00 -1.91049882E+01  0.00000000E+00  9.55249411E+00
  9.55249411E+00 -1.91049882E+01  0.00000000E+00  9.55249411E+00  9.55249411E+00
 -1.91049882E+01  0.00000000E+00  9.55249411E+00  9.55249411E+00 -1.91049882E+01
  0.00000000E+00  9.55249411E+00  9.55249411E+00 -1.91049882E+01  0.00000000E+00
  9.55249411E+00  9.55249411E+00 -1.91049882E+01  0.00000000E+00  9.55249411E+00
  9.55249411E+00 -1.91049882E+01  0.00000000E+00  9.55249411E+00  9.55249411E+00
 -1.91049882E+01  0.00000000E+00  9.55249411E+00  9.55249411E+00 -1.91049882E+01
  0.00000000E+00  9.55249411E+00  9.55249411E+00 -1.91049882E+01  0.00000000E+00
  9.55249411E+00  9.55249411E+00 -1.91049882E+01  0.00000000E+00  9.55249411E+00
  9.55249411E+00 -1.91049882E+01  0.00000000E+00  9.55249411E+00  9.55249411E+00
 -1.91049882E+01  0.00000000E+00  9.55249411E+00  9.55249411E+00 -1.91049882E+01
  0.00000000E+00  9.55249411E+00  9.55249411E+00 -1.91049882E+01  0.00000000E+00
  9.55249411E+00  9.55249411E+00 -1.91049882E+01  0.00000000E+00  9.55249411E+00
  9.55249411E+00 -1.91049882E+01  0.00000000E+00  9.55249411E+00  9.55249411E+00
 -1.91049882E+01  0.00000000E+00  9.55249411E+00  9.55249411E+00 -1.91049882E+01
  0.00000000E+00  9.55249411E+00  9.55249411E+00 -1.91049882E+01  0.00000000E+00
  9.55249411E+00  9.55249411E+00 -1.91049882E+01  0.00000000E+00  9.55249411E+00
  9.55249411E+00 -1.91049882E+01  0.00000000E+00  9.55249411E+00  9.55249411E+00
 -1.91049882E+01  0.00000000E+00  9.55249411E+00  9.55249411E+00 -1.91049882E+01
  0.00000000E+00  9.55249411E+00  9.55249411E+00 -1.91049882E+01  0.00000000E+00
  9.55249411E+00  9.55249411E+00 -1.91049882E+01  0.00000000E+00  9.55249411E+00
  9.55249411E+00 -1.91049882E+01  0.00000000E+00  9.55249411E+00  9.55249411E+00
 -1.91049882E+01  0.00000000E+00  9.55249411E+00  9.55249411E+00 -1.91049882E+01
  0.00000000E+00  9.55249411E+00  9.55249411E+00 -1.91049882E+01  0.00000000E+00
  9.55249411E+00  9.55249411E+00 -1.91049882E+01  0.00000000E+00  9.55249411E+00
  9.55249411E+00 -1.91049882E+01  0.00000000E+00  9.55249411E+00  9.55249411E+00
 -1.91049882E+01  0.00000000E+00  9.55249411E+00  9.55249411E+00 -1.91049882E+01
  0.00000000E+00  9.55249411E+00  9.55249411E+00 -1.91049882E+01  0.00000000E+00
  9.55249411E+00  9.55249411E+00 -1.91049882E+01  0.00000000E+00  9.55249411E+00
  9.55249411E+00 -1.91049882E+01  0.00000000E+00  9.55249411E+00  9.55249411E+00
 -1.91049882E+01  0.00000000E+00  9.55249411E+00  9.55249411E+00 -1.91049882E+01
  0.00000000E+00  9.55249411E+00  9.55249411E+00 -1.91049882E+01  0.00000000E+00
  9.55249411E+00  9.55249411E+00 -1.91049882E+01  0.00000000E+00  9.55249411E+00
  9.55249411E+00 -1.91049882E+01  0.00000000E+00  9.55249411E+00  9.55249411E+00
 -1.91049882E+01  0.00000000E+00  9.55249411E+00  9.55249411E+00 -1.91049882E+01
  0.00000000E+00  9.55249411E+00  9.55249411E+00 -1.91049882E+01  0.00000000E+00
  9.55249411E+00  9.55249411E+00 -1.91049882E+01  0.00000000E+00  9.55249411E+00
  9.55249411E+00 -1.91049882E+01  0.00000000E+00  9.55249411E+00  9.55249411E+00
 -1.91049882E+01  0.00000000E+00  9.55249411E+00  9.55249411E+00 -1.91049882E+01
  0.00000000E+00  9.55249411E+00  9.55249411E+00 -1.91049882E+01  0.00000000E+00
  9.55249411E+00  9.55249411E+00 -1.91049882E+01  0.00000000E+00  9.55249411E+00
  9.55249411E+00 -1.91049882E+01  0.00000000E+00  9.55249411E+00  9.55249411E+00
 -1.91049882E+01  0.00000000E+00  9.55249411E+00  9.55249411E+00 -1.91049882E+01
  0.00000000E+00  9.55249411E+00  9.55249411E+00 -1.91049882E+01  0.00000000E+00
  9.55249411E+00  9.55249411E+00 -1.91049882E+01  0.00000000E+00  9.55249411E+00
  9.55249411E+00 -1.91049882E+01  0.00000000E+00  9.55249411E+00  9.55249411E+00
 -1.91049882E+01  0.00000000E+00  9.55249411E+00  9.55249411E+00 -1.91049882E+01
  0.00000000E+00  9.55249411E+00  9.55249411E+00 -1.91049882E+01  0.00000000E+00
  9.55249411E+00  9.55249411E+00 -1.91049882E+01  0.00000000E+00  9.55249411E+00
  9.55249411E+00 -1.91049882E+01  0.00000000E+00  9.55249411E+00  9.55249411E+00
 -1.91049882E+01  0.00000000E+00  9.55249411E+00  9.55249411E+00 -1.91049882E+01
  0.00000000E+00  9.55249411E+00  9.55249411E+00 -1.91049882E+01  0.00000000E+00
  9.55249411E+00  9.55249411E+00 -1.91049882E+01  0.00000000E+00  9.55249411E+00
  9.55249411E+00 -1.91049882E+01  0.00000000E+00  9.55249411E+00  9.55249411E+00
 -1.91049882E+01  0.00000000E+00  9.55249411E+00  9.55249411E+00 -1.91049882E+01
  0.00000000E+00  9.55249411E+00  9.55249411E+00 -1.91049882E+01  0.00000000E+00
  9.55249411E+00  9.55249411E+00 -1.91049882E+01  0.00000000E+00  9.55249411E+00
  9.55249411E+00 -1.91049882E+01  0.00000000E+00  9.55249411E+00  9.55249411E+00
 -1.91049882E+01  0.00000000E+00  9.55249411E+00  9.55249411E+00 -1.91049882E+01
  0.00000000E+00  9.55249411E+00  9.55249411E+00 -1.91049882E+01  0.00000000E+00
  9.55249411E+00  9.55249411E+00 -1.91049882E+01  0.00000000E+00  9.55249411E+00
  9.55249411E+00 -1.91049882E+01  0.00000000E+00  9.55249411E+00  9.55249411E+00
 -1.91049882E+01  0.00000000E+00  9.55249411E+00  9.55249411E+00 -1.91049882E+01
  0.00000000E+00  9.55249411E+00  9.55249411E+00 -1.91049882E+01  0.00000000E+00
  9.55249411E+00  9.55249411E+00 -1.91049882E+01  0.00000000E+00  9.55249411E+00
  9.55249411E+00 -1.91049882E+01  0.00000000E+00  9.55249411E+00  9.55249411E+00
 -1.91049882E+01  0.00000000E+00  9.55249411E+00  9.55249411E+00 -1.91049882E+01
  0.00000000E+00  9.55249411E+00  9.55249411E+00 -1.91049882E+01  0.00000000E+00
  9.55249411E+00  9.55249411E+00 -1.91049882E+01  0.00000000E+00  9.55249411E+00
  9.55249411E+00 -1.91049882E+01  0.00000000E+00  9.55249411E+00  9.55249411E+00
 -1.91049882E+01  0.00000000E+00  9.55249411E+00  9.55249411E+00 -1.91049882E+01
  0.00000000E+00  9.55249411E+00  9.55249411E+00 -1.91049882E+01  0.00000000E+00
  9.55249411E+00  9.55249411E+00 -1.91049882E+01  0.00000000E+00  9.55249411E+00
  9.55249411E+00 -1.91049882E+01  0.00000000E+00  9.55249411E+00  9.55249411E+00
 -1.91049882E+01  0.00000000E+00  9.55249411E+00  9.55249411E+00 -1.91049882E+01
  0.00000000E+00  9.55249411E+00  9.55249411E+00 -1.91049882E+01  0.00000000E+00
  9.55249411E+00  9.55249411E+00 -1.91049882E+01  0.00000000E+00  9.55249411E+00
  9.55249411E+00 -1.91049882E+01  0.00000000E+00  9.55249411E+00  9.55249411E+00
 -1.91049882E+01  0.00000000E+00  9.55249411E+00  9.55249411E+00 -1.91049882E+01
  0.00000000E+00  9.55249411E+00  9.55249411E+00 -1.91049882E+01  0.00000000E+00
  9.55249411E+00  9.55249411E+00 -1.91049882E+01  0.00000000E+00  9.55249411E+00
  9.55249411E+00 -1.91049882E+01  0.00000000E+00  9.55249411E+00  9.55249411E+00
 -1.91049882E+01  0.00000000E+00  9.55249411E+00  9.55249411E+00 -1.91049882E+01
  0.00000000E+00  9.55249411E+00  9.55249411E+00 -1.91049882E+01  0.00000000E+00
  9.55249411E+00  9.55249411E+00 -1.91049882E+01  0.00000000E+00  9.55249411E+00
  9.55249411E+00 -1.91049882E+01  0.00000000E+00  9.55249411E+00  9.55249411E+00
 -1.91049882E+01  0.00000000E+00  9.55249411E+00  9.55249411E+00 -1.91049882E+01
  0.00000000E+00  9.55249411E+00  9.55249411E+00 -1.91049882E+01  0.00000000E+00
  9.55249411E+00  9.55249411E+00 -1.91049882E+01  0.00000000E+00  9.55249411E+00
  9.55249411E+00 -1.91049882E+01  0.00000000E+00  9.55249411E+00  9.55249411E+00
 -1.91049882E+01  0.00000000E+00  9.55249411E+00  9.55249411E+00 -1.91049882E+01
  0.00000000E+00  9.55249411E+00  9.55249411E+00 -1.91049882E+01  0.00000000E+00
  9.55249411E+00  9.55249411E+00 -1.91049882E+01  0.00000000E+00  9.55249411E+00
  9.55249411E+00 -1.91049882E+01  0.00000000E+00  9.55249411E+00  9.55249411E+00
 -1.91049882E+01  0.00000000E+00  9.55249411E+00  9.55249411E+00 -1.91049882E+01
  0.00000000E+00  9.55249411E+00  9.55249411E+00 -1.91049882E+01  0.00000000E+00
  9.55249411E+00  9.55249411E+00 -1.91049882E+01  0.00000000E+00  9.55249411E+00
  9.55249411E+00 -1.91049882E+01  0.00000000E+00  9.55249411E+00  9.55249411E+00
 -1.91049882E+01  0.00000000E+00  9.55249411E+00  9.55249411E+00 -1.91049882E+01
  0.00000000E+00  9.55249411E+00  9.55249411E+00 -1.91049882E+01  0.00000000E+00
  9.55249411E+00  9.55249411E+00 -1.91049882E+01  0.00000000E+00  9.55249411E+00
  9.55249411E+00 -1.91049882E+01  0.00000000E+00  9.55249411E+00  9.55249411E+00
 -1.91049882E+01  0.00000000E+00  9.55249411E+00  9.55249411E+00 -1.91049882E+01
  0.00000000E+00  9.55249411E+00  9.55249411E+00 -1.91049882E+01  0.00000000E+00
  9.55249411E+00  9.55249411E+00 -1.91049882E+01  0.00000000E+00  9.55249411E+00
  9.55249411E+00 -1.91049882E+01  0.00000000E+00  9.55249411E+00  9.55249411E+00
 -1.91049882E+01  0.00000000E+00  9.55249411E+00  9.55249411E+00 -1.91049882E+01
  0.00000000E+00  9.55249411E+00  9.55249411E+00 -1.91049882E+01  0.00000000E+00
  9.55249411E+00  9.55249411E+00 -1.91049882E+01  0.00000000E+00  9.55249411E+00
  9.55249411E+00 -1.91049882E+01  0.00000000E+00  9.55249411E+00  9.55249411E+00
 -1.91049882E+01  0.00000000E+00  9.55249411E+00  9.55249411E+00 -1.91049882E+01
  0.00000000E+00  9.55249411E+00  9.55249411E+00 -1.91049882E+01  0.00000000E+00
  9.55249411E+00  9.55249411E+00 -1.91049882E+01  0.00000000E+00  9.55249411E+00
  9.55249411E+00 -1.91049882E+01  0.00000000E+00  9.55249411E+00  9.55249411E+00
 -1.91049882E+01  0.00000000E+00  9.55249411E+00  9.55249411E+00 -1.91049882E+01
  0.00000000E+00  9.55249411E+00  9.55249411E+00 -1.91049882E+01  0.00000000E+00
  9.55249411E+00  9.55249411E+00 -1.91049882E+01  0.00000000E+00  9.55249411E+00
  9.55249411E+00 -1.91049882E+01  0.00000000E+00  9.55249411E+00  9.55249411E+00
 -1.91049882E+01  0.00000000E+00  9.55249411E+00  9.55249411E+00 -1.91049882E+01
  0.00000000E+00  9.55249411E+00  9.55249411E+00 -1.91049882E+01  0.00000000E+00
  9.55249411E+00  9.55249411E+00 -1.91049882E+01  0.00000000E+00  9.55249411E+00
  9.55249411E+00 -1.91049882E+01  0.00000000E+00  9.55249411E+00  9.55249411E+00
 -1.91049882E+01  0.00000000E+00  9.55249411E+00  9.55249411E+00 -1.91049882E+01
  0.00000000E+00  9.55249411E+00  9.55249411E+00 -1.91049882E+01  0.00000000E+00
  9.55249411E+00  9.55249411E+00 -1.91049882E+01  0.00000000E+00  9.55249411E+00
  9.55249411E+00 -1.91049882E+01  0.00000000E+00  9.55249411E+00  9.55249411E+00
 -1.91049882E+01  0.00000000E+00  9.55249411E+00  9.55249411E+00 -1.91049882E+01
  0.00000000E+00  9.55249411E+00  9.55249411E+00 -1.91049882E+01  0.00000000E+00
  9.55249411E+00  9.55249411E+00 -1.91049882E+01  0.00000000E+00  9.55249411E+00
  9.55249411E+00 -1.91049882E+01  0.00000000E+00  9.55249411E+00  9.55249411E+00
 -1.91049882E+01  0.00000000E+00  9.55249411E+00  9.55249411E+00 -1.91049882E+01
  0.00000000E+00  9.55249411E+00  9.55249411E+00 -1.91049882E+01  0.00000000E+00
  9.55249411E+00  9.55249411E+00 -1.91049882E+01  0.00000000E+00  9.55249411E+00
  9.55249411E+00 -1.91049882E+01  0.00000000E+00  9.55249411E+00  9.55249411E+00
 -1.91049882E+01  0.00000000E+00  9.55249411E+00  9.55249411E+00 -1.91049882E+01
  0.00000000E+00  9.55249411E+00  9.55249411E+00 -1.91049882E+01  0.00000000E+00
  9.55249411E+00  9.55249411E+00 -1.91049882E+01  0.00000000E+00  9.55249411E+00
  9.55249411E+00 -1.91049882E+01  0.00000000E+00  9.55249411E+00  9.55249411E+00
 -1.91049882E+01  0.00000000E+00  9.55249411E+00  9.55249411E+00 -1.91049882E+01
  0.00000000E+00  9.55249411E+00  9.55249411E+00 -1.91049882E+01  0.00000000E+00
  9.55249411E+00  9.55249411E+00 -1.91049882E+01  0.00000000E+00  9.55249411E+00
  9.55249411E+00 -1.91049882E+01  0.00000000E+00  9.55249411E+00  9.55249411E+00
 -1.91049882E+01  0.00000000E+00  9.55249411E+00  9.55249411E+00 -1.91049882E+01
  0.00000000E+00  9.55249411E+00  9.55249411E+00 -1.91049882E+01  0.00000000E+00
  9.55249411E+00  9.55249411E+00 -1.91049882E+01  0.00000000E+00  9.55249411E+00
  9.55249411E+00 -1.91049882E+01  0.00000000E+00  9.55249411E+00  9.55249411E+00
 -1.91049882E+01  0.00000000E+00  9.55249411E+00  9.55249411E+00 -1.91049882E+01
  0.00000000E+00  9.55249411E+00  9.55249411E+00 -1.91049882E+01  0.00000000E+00
  9.55249411E+00  9.55249411E+00 -1.91049882E+01  0.00000000E+00  9.55249411E+00
  9.55249411E+00 -1.91049882E+01  0.00000000E+00  9.55249411E+00  9.55249411E+00
 -1.91049882E+01  0.00000000E+00  9.55249411E+00  9.55249411E+00 -1.91049882E+01
  0.00000000E+00  9.55249411E+00  9.55249411E+00 -1.91049882E+01  0.00000000E+00
  9.55249411E+00  9.55249411E+00 -1.91049882E+01  0.00000000E+00  9.55249411E+00
  9.55249411E+00 -1.91049882E+01  0.00000000E+00  9.55249411E+00  9.55249411E+00
 -1.91049882E+01  0.00000000E+00  9.55249411E+00  9.55249411E+00 -1.91049882E+01
  0.00000000E+00  9.55249411E+00  9.55249411E+00 -1.91049882E+01  0.00000000E+00
  9.55249411E+00  9.55249411E+00 -1.91049882E+01  0.00000000E+00  9.55249411E+00
  9.55249411E+00 -1.91049882E+01  0.00000000E+00  9.55249411E+00  9.55249411E+00
 -1.91049882E+01  0.00000000E+00  9.55249411E+00  9.55249411E+00 -1.91049882E+01
  0.00000000E+00  9.55249411E+00  9.55249411E+00 -1.91049882E+01  0.00000000E+00
  9.55249411E+00  9.55249411E+00 -1.91049882E+01  0.00000000E+00  9.55249411E+00
  9.55249411E+00 -1.91049882E+01  0.00000000E+00  9.55249411E+00  9.55249411E+00
 -1.91049882E+01  0.00000000E+00  9.55249411E+00  9.55249411E+00 -1.91049882E+01
  0.00000000E+00  9.55249411E+00  9.55249411E+00 -1.91049882E+01  0.00000000E+00
  9.55249411E+00  9.55249411E+00 -1.91049882E+01  0.00000000E+00  9.55249411E+00
  9.55249411E+00 -1.91049882E+01  0.00000000E+00  9.55249411E+00  9.55249411E+00
 -1.91049882E+01  0.00000000E+00  9.55249411E+00  9.55249411E+00 -1.91049882E+01
  0.00000000E+00  9.55249411E+00  9.55249411E+00 -1.91049882E+01  0.00000000E+00
  9.55249411E+00  9.55249411E+00 -1.91049882E+01  0.00000000E+00  9.55249411E+00
  9.55249411E+00 -1.91049882E+01  0.00000000E+00  9.55249411E+00  9.55249411E+00
 -1.91049882E+01  0.00000000E+00  9.55249411E+00  9.55249411E+00 -1.91049882E+01
  0.00000000E+00  9.55249411E+00  9.55249411E+00 -1.91049882E+01  0.00000000E+00
  9.55249411E+00  9.55249411E+00 -1.91049882E+01  0.00000000E+00  9.55249411E+00
  9.55249411E+00 -1.91049882E+01  0.00000000E+00  9.55249411E+00  9.55249411E+00
 -1.91049882E+01  0.00000000E+00  9.55249411E+00  9.55249411E+00 -1.91049882E+01
  0.00000000E+00  9.55249411E+00  9.55249411E+00 -1.91049882E+01  0.00000000E+00
  9.55249411E+00  9.55249411E+00 -1.91049882E+01  0.00000000E+00  9.55249411E+00
  9.55249411E+00 -1.91049882E+01  0.00000000E+00  9.55249411E+00  9.55249411E+00
 -1.91049882E+01  0.00000000E+00  9.55249411E+00  9.55249411E+00 -1.91049882E+01
  0.00000000E+00  9.55249411E+00  9.55249411E+00 -1.91049882E+01  0.00000000E+00
  9.55249411E+00  9.55249411E+00 -1.91049882E+01  0.00000000E+00  9.55249411E+00
  9.55249411E+00 -1.91049882E+01  0.00000000E+00  9.55249411E+00  9.55249411E+00
 -1.91049882E+01  0.00000000E+00  9.55249411E+00  9.55249411E+00 -1.91049882E+01
  0.00000000E+00  9.55249411E+00  9.55249411E+00 -1.91049882E+01  0.00000000E+00
  9.55249411E+00  9.55249411E+00 -1.91049882E+01  0.00000000E+00  9.55249411E+00
  9.55249411E+00 -1.91049882E+01  0.00000000E+00  9.55249411E+00  9.55249411E+00
 -1.91049882E+01  0.00000000E+00  9.55249411E+00  9.55249411E+00 -1.91049882E+01
  0.00000000E+00  9.55249411E+00  9.55249411E+00 -1.91049882E+01  0.00000000E+00
  9.55249411E+00  9.55249411E+00 -1.91049882E+01  0.00000000E+00  9.55249411E+00
  9.55249411E+00 -1.91049882E+01  0.00000000E+00  9.55249411E+00  9.55249411E+00
 -1.91049882E+01  0.00000000E+00  9.55249411E+00  9.55249411E+00 -1.91049882E+01
  0.00000000E+00  9.55249411E+00  9.55249411E+00 -1.91049882E+01  0.00000000E+00
  9.55249411E+00  9.55249411E+00 -1.91049882E+01  0.00000000E+00  9.55249411E+00
  9.55249411E+00 -1.91049882E+01  0.00000000E+00  9.55249411E+00  9.55249411E+00
 -1.91049882E+01  0.00000000E+00  9.55249411E+00  9.55249411E+00 -1.91049882E+01
  0.00000000E+00  9.55249411E+00  9.55249411E+00 -1.91049882E+01  0.00000000E+00
  9.55249411E+00  9.55249411E+00 -1.91049882E+01  0.00000000E+00  9.55249411E+00
  9.55249411E+00 -1.91049882E+01  0.00000000E+00  9.55249411E+00  9.55249411E+00
 -1.91049882E+01  0.00000000E+00  9.55249411E+00  9.55249411E+00 -1.91049882E+01
  0.00000000E+00  9.55249411E+00  9.55249411E+00 -1.91049882E+01  0.00000000E+00
  9.55249411E+00  9.55249411E+00 -1.91049882E+01  0.00000000E+00  9.55249411E+00
  9.55249411E+00 -1.91049882E+01  0.00000000E+00  9.55249411E+00  9.55249411E+00
 -1.91049882E+01  0.00000000E+00  9.55249411E+00  9.55249411E+00 -1.91049882E+01
  0.00000000E+00  9.55249411E+00  9.55249411E+00 -1.91049882E+01  0.00000000E+00
  9.55249411E+00  9.55249411E+00 -1.91049882E+01  0.00000000E+00  9.55249411E+00
  9.55249411E+00 -1.91049882E+01  0.00000000E+00  9.55249411E+00  9.55249411E+00
 -1.91049882E+01  0.00000000E+00  9.55249411E+00  9.55249411E+00 -1.91049882E+01
  0.00000000E+00  9.55249411E+00  9.55249411E+00 -1.91049882E+01  0.00000000E+00
  9.55249411E+00  9.55249411E+00 -1.91049882E+01  0.00000000E+00  9.55249411E+00
  9.55249411E+00 -1.91049882E+01  0.00000000E+00  9.55249411E+00  9.55249411E+00
 -1.91049882E+01  0.00000000E+00  9.55249411E+00  9.55249411E+00 -1.91049882E+01
  0.00000000E+00  9.55249411E+00  9.55249411E+00 -1.91049882E+01  0.00000000E+00
  9.55249411E+00  9.55249411E+00 -1.91049882E+01  0.00000000E+00  9.55249411E+00
  9.55249411E+00 -1.91049882E+01  0.00000000E+00  9.55249411E+00  9.55249411E+00
 -1.91049882E+01  0.00000000E+00  9.55249411E+00  9.55249411E+00 -1.91049882E+01
  0.00000000E+00  9.55249411E+00  9.55249411E+00 -1.91049882E+01  0.00000000E+00
  9.55249411E+00  9.55249411E+00 -1.91049882E+01  0.00000000E+00  9.55249411E+00
  9.55249411E+00 -1.91049882E+01  0.00000000E+00  9.55249411E+00  9.55249411E+00
 -1.91049882E+01  0.00000000E+00  9.55249411E+00  9.55249411E+00 -1.91049882E+01
  0.00000000E+00  9.55249411E+00  9.55249411E+00 -1.91049882E+01  0.00000000E+00
  9.55249411E+00  9.55249411E+00 -1.91049882E+01  0.00000000E+00  9.55249411E+00
  9.55249411E+00 -1.91049882E+01  0.00000000E+00  9.55249411E+00  9.55249411E+00
 -1.91049882E+01  0.00000000E+00  9.55249411E+00  9.55249411E+00 -1.91049882E+01
  0.00000000E+00  9.55249411E+00  9.55249411E+00 -1.91049882E+01  0.00000000E+00
  9.55249411E+00  9.55249411E+00 -1.91049882E+01  0.00000000E+00  9.55249411E+00
  9.55249411E+00 -1.91049882E+01  0.00000000E+00  9.55249411E+00  9.55249411E+00
 -1.91049882E+01  0.00000000E+00  9.55249411E+00  9.55249411E+00 -1.91049882E+01
  0.00000000E+00  9.55249411E+00  9.55249411E+00 -1.91049882E+01  0.00000000E+00
  9.55249411E+00  9.55249411E+00 -1.91049882E+01  0.00000000E+00  9.55249411E+00
  9.55249411E+00 -1.91049882E+01  0.00000000E+00  9.55249411E+00  9.55249411E+00
 -1.91049882E+01  0.00000000E+00  9.55249411E+00  9.55249411E+00 -1.91049882E+01
  0.00000000E+00  9.55249411E+00  9.55249411E+00 -1.91049882E+01  0.00000000E+00
  9.55249411E+00  9.55249411E+00 -1.91049882E+01  0.00000000E+00  9.55249411E+00
  9.55249411E+00 -1.91049882E+01  0.00000000E+00  9.55249411E+00  9.55249411E+00
 -1.91049882E+01  0.00000000E+00  9.55249411E+00  9.55249411E+00 -1.91049882E+01
  0.00000000E+00  9.55249411E+00  9.55249411E+00 -1.91049882E+01  0.00000000E+00
  9.55249411E+00  9.55249411E+00 -1.91049882E+01  0.00000000E+00  9.55249411E+00
  9.55249411E+00 -1.91049882E+01  0.00000000E+00  9.55249411E+00  9.55249411E+00
 -1.91049882E+01  0.00000000E+00  9.55249411E+00  9.55249411E+00 -1.91049882E+01
  0.00000000E+00  9.55249411E+00  9.55249411E+00 -1.91049882E+01  0.00000000E+00
  9.55249411E+00  9.55249411E+00 -1.91049882E+01  0.00000000E+00  9.55249411E+00
  9.55249411E+00 -1.91049882E+01  0.00000000E+00  9.55249411E+00  9.55249411E+00
 -1.91049882E+01  0.00000000E+00  9.55249411E+00  9.55249411E+00 -1.91049882E+01
  0.00000000E+00  9.55249411E+00  9.55249411E+00 -1.91049882E+01  0.00000000E+00
  9.55249411E+00  9.55249411E+00 -1.91049882E+01  0.00000000E+00  9.55249411E+00
  9.55249411E+00 -1.91049882E+01  0.00000000E+00  9.55249411E+00  9.55249411E+00
 -1.91049882E+01  0.00000000E+00  9.55249411E+00  9.55249411E+00 -1.91049882E+01
  0.00000000E+00  9.55249411E+00  9.55249411E+00 -1.91049882E+01  0.00000000E+00
  9.55249411E+00  9.55249411E+00 -1.91049882E+01  0.00000000E+00  9.55249411E+00
  9.55249411E+00 -1.91049882E+01  0.00000000E+00  9.55249411E+00  9.55249411E+00
 -1.91049882E+01  0.00000000E+00  9.55249411E+00  9.55249411E+00 -1.91049882E+01
  0.00000000E+00  9.55249411E+00  9.55249411E+00 -1.91049882E+01  0.00000000E+00
  9.55249411E+00  9.55249411E+00 -1.91049882E+01  0.00000000E+00  9.55249411E+00
  9.55249411E+00 -1.91049882E+01  0.00000000E+00  9.55249411E+00  9.55249411E+00
 -1.91049882E+01  0.00000000E+00  9.55249411E+00  9.55249411E+00 -1.91049882E+01
  0.00000000E+00  9.55249411E+00  9.55249411E+00 -1.91049882E+01  0.00000000E+00
  9.55249411E+00  9.55249411E+00 -1.91049882E+01  0.00000000E+00  9.55249411E+00
  9.55249411E+00 -1.91049882E+01  0.00000000E+00  9.55249411E+00  9.55249411E+00
 -1.91049882E+01  0.00000000E+00  9.55249411E+00  9.55249411E+00 -1.91049882E+01
  0.00000000E+00  9.55249411E+00  9.55249411E+00 -1.91049882E+01  0.00000000E+00
  9.55249411E+00  9.55249411E+00 -1.91049882E+01  0.00000000E+00  9.55249411E+00
  9.55249411E+00 -1.91049882E+01  0.00000000E+00  9.55249411E+00  9.55249411E+00
 -1.91049882E+01  0.00000000E+00  9.55249411E+00  9.55249411E+00 -1.91049882E+01
  0.00000000E+00  9.55249411E+00  9.55249411E+00 -1.91049882E+01  0.00000000E+00
  9.55249411E+00  9.55249411E+00 -1.91049882E+01  0.00000000E+00  9.55249411E+00
  9.55249411E+00 -1.91049882E+01  0.00000000E+00  9.55249411E+00  9.55249411E+00
 -1.91049882E+01  0.00000000E+00  9.55249411E+00  9.55249411E+00 -1.91049882E+01
  0.00000000E+00  9.55249411E+00  9.55249411E+00 -1.91049882E+01  0.00000000E+00
  9.55249411E+00  9.55249411E+00 -1.91049882E+01  0.00000000E+00  9.55249411E+00
  9.55249411E+00 -1.91049882E+01  0.00000000E+00  9.55249411E+00  9.55249411E+00
 -1.91049882E+01  0.00000000E+00  9.55249411E+00  9.55249411E+00 -1.91049882E+01
  0.00000000E+00  9.55249411E+00  9.55249411E+00 -1.91049882E+01  0.00000000E+00
  9.55249411E+00  9.55249411E+00 -1.91049882E+01  0.00000000E+00  9.55249411E+00
  9.55249411E+00 -1.91049882E+01  0.00000000E+00  9.55249411E+00  9.55249411E+00
 -1.91049882E+01  0.00000000E+00  9.55249411E+00  9.55249411E+00 -1.91049882E+01
  0.00000000E+00  9.55249411E+00  9.55249411E+00 -1.91049882E+01  0.00000000E+00
  9.55249411E+00  9.55249411E+00 -1.91049882E+01  0.00000000E+00  9.55249411E+00
  9.55249411E+00 -1.91049882E+01  0.00000000E+00  9.55249411E+00  9.55249411E+00
 -1.91049882E+01  0.00000000E+00  9.55249411E+00  9.55249411E+00 -1.91049882E+01
  0.00000000E+00  9.55249411E+00  9.55249411E+00 -1.91049882E+01  0.00000000E+00
  9.55249411E+00  9.55249411E+00 -1.91049882E+01  0.00000000E+00  9.55249411E+00
  9.55249411E+00 -1.91049882E+01  0.00000000E+00  9.55249411E+00  9.55249411E+00
 -1.91049882E+01  0.00000000E+00  9.55249411E+00  9.55249411E+00 -1.91049882E+01
  0.00000000E+00  9.55249411E+00  9.55249411E+00 -1.91049882E+01  0.00000000E+00
  9.55249411E+00  9.55249411E+00 -1.91049882E+01  0.00000000E+00  9.55249411E+00
  9.55249411E+00 -1.91049882E+01  0.00000000E+00  9.55249411E+00  9.55249411E+00
 -1.91049882E+01  0.00000000E+00  9.55249411E+00  9.55249411E+00 -1.91049882E+01
  0.00000000E+00  9.55249411E+00  9.55249411E+00 -1.91049882E+01  0.00000000E+00
  9.55249411E+00  9.55249411E+00 -1.91049882E+01  0.00000000E+00  9.55249411E+00
  9.55249411E+00 -1.91049882E+01  0.00000000E+00  9.55249411E+00  9.55249411E+00
 -1.91049882E+01  0.00000000E+00  9.55249411E+00  9.55249411E+00 -1.91049882E+01
  0.00000000E+00  9.55249411E+00  9.55249411E+00 -1.91049882E+01  0.00000000E+00
  9.55249411E+00  9.55249411E+00 -1.91049882E+01  0.00000000E+00  9.55249411E+00
  9.55249411E+00 -1.91049882E+01  0.00000000E+00  9.55249411E+00  9.55249411E+00
 -1.91049882E+01  0.00000000E+00  9.55249411E+00  9.55249411E+00 -1.91049882E+01
  0.00000000E+00  9.55249411E+00  9.55249411E+00 -1.91049882E+01  0.00000000E+00
  9.55249411E+00  9.55249411E+00 -1.91049882E+01  0.00000000E+00  9.55249411E+00
  9.55249411E+00 -1.91049882E+01  0.00000000E+00  9.55249411E+00  9.55249411E+00
 -1.91049882E+01  0.00000000E+00  9.55249411E+00  9.55249411E+00 -1.91049882E+01
  0.00000000E+00  9.55249411E+00  9.55249411E+00 -1.91049882E+01  0.00000000E+00
  9.55249411E+00  9.55249411E+00 -1.91049882E+01  0.00000000E+00  9.55249411E+00
  9.55249411E+00 -1.91049882E+01  0.00000000E+00  9.55249411E+00  9.55249411E+00
 -1.91049882E+01  0.00000000E+00  9.55249411E+00  9.55249411E+00 -1.91049882E+01
  0.00000000E+00  9.55249411E+00  9.55249411E+00 -1.91049882E+01  0.00000000E+00
  9.55249411E+00  9.55249411E+00 -1.91049882E+01  0.00000000E+00  9.55249411E+00
  9.55249411E+00 -1.91049882E+01  0.00000000E+00  9.55249411E+00  9.55249411E+00
 -1.91049882E+01  0.00000000E+00  9.55249411E+00  9.55249411E+00 -1.91049882E+01
  0.00000000E+00  9.55249411E+00  9.55249411E+00 -1.91049882E+01  0.00000000E+00
  9.55249411E+00  9.55249411E+00 -1.91049882E+01  0.00000000E+00  9.55249411E+00
  9.55249411E+00 -1.91049882E+01  0.00000000E+00  9.55249411E+00  9.55249411E+00
 -1.91049882E+01  0.00000000E+00  9.55249411E+00  9.55249411E+00 -1.91049882E+01
  0.00000000E+00  9.55249411E+00  9.55249411E+00 -1.91049882E+01  0.00000000E+00
  9.55249411E+00  9.55249411E+00 -1.91049882E+01  0.00000000E+00  9.55249411E+00
  9.55249411E+00 -1.91049882E+01  0.00000000E+00  9.55249411E+00  9.55249411E+00
 -1.91049882E+01  0.00000000E+00  9.55249411E+00  9.55249411E+00 -1.91049882E+01
  0.00000000E+00  9.55249411E+00  9.55249411E+00 -1.91049882E+01  0.00000000E+00
  9.55249411E+00  9.55249411E+00 -1.91049882E+01  0.00000000E+00  9.55249411E+00
  9.55249411E+00 -1.91049882E+01  0.00000000E+00  9.55249411E+00  9.55249411E+00
 -1.91049882E+01  0.00000000E+00  9.55249411E+00  9.55249411E+00 -1.91049882E+01
  0.00000000E+00  9.55249411E+00  9.55249411E+00 -1.91049882E+01  0.00000000E+00
  9.55249411E+00  9.55249411E+00 -1.91049882E+01  0.00000000E+00  9.55249411E+00
  9.55249411E+00 -1.91049882E+01  0.00000000E+00  9.55249411E+00  9.55249411E+00
 -1.91049882E+01  0.00000000E+00  9.55249411E+00  9.55249411E+00 -1.91049882E+01
  0.00000000E+00  9.55249411E+00  9.55249411E+00 -1.91049882E+01  0.00000000E+00
  9.55249411E+00  9.55249411E+00 -1.91049882E+01  0.00000000E+00  9.55249411E+00
  9.55249411E+00 -1.91049882E+01  0.00000000E+00  9.55249411E+00  9.55249411E+00
 -1.91049882E+01  0.00000000E+00  9.55249411E+00  9.55249411E+00 -1.91049882E+01
  0.00000000E+00  9.55249411E+00  9.55249411E+00 -1.91049882E+01  0.00000000E+00
  9.55249411E+00  9.55249411E+00 -1.91049882E+01  0.00000000E+00  9.55249411E+00
  9.55249411E+00 -1.91049882E+01  0.00000000E+00  9.55249411E+00  9.55249411E+00
 -1.91049882E+01  0.00000000E+00  9.55249411E+00  9.55249411E+00 -1.91049882E+01
  0.00000000E+00  9.55249411E+00  9.55249411E+00 -1.91049882E+01  0.00000000E+00
  9.55249411E+00  9.55249411E+00 -1.91049882E+01  0.00000000E+00  9.55249411E+00
  9.55249411E+00 -1.91049882E+01  0.00000000E+00  9.55249411E+00  9.55249411E+00
 -1.91049882E+01  0.00000000E+00  9.55249411E+00  9.55249411E+00 -1.91049882E+01
  0.00000000E+00  9.55249411E+00  9.55249411E+00 -1.91049882E+01  0.00000000E+00
  9.55249411E+00  9.55249411E+00 -1.91049882E+01  0.00000000E+00  9.55249411E+00
  9.55249411E+00 -1.91049882E+01  0.00000000E+00  9.55249411E+00  9.55249411E+00
 -1.91049882E+01  0.00000000E+00  9.55249411E+00  9.55249411E+00 -1.91049882E+01
  0.00000000E+00  9.55249411E+00  9.55249411E+00 -1.91049882E+01  0.00000000E+00
  9.55249411E+00  9.55249411E+00 -1.91049882E+01  0.00000000E+00  9.55249411E+00
  9.55249411E+00 -1.91049882E+01  0.00000000E+00  9.55249411E+00  9.55249411E+00
 -1.91049882E+01  0.00000000E+00  9.55249411E+00  9.55249411E+00 -1.91049882E+01
  0.00000000E+00  9.55249411E+00  9.55249411E+00 -1.91049882E+01  0.00000000E+00
  9.55249411E+00  9.55249411E+00 -1.91049882E+01  0.00000000E+00  9.55249411E+00
  9.55249411E+00 -1.91049882E+01  0.00000000E+00  9.55249411E+00  9.55249411E+00
 -1.91049882E+01  0.00000000E+00  9.55249411E+00  9.55249411E+00 -1.91049882E+01
  0.00000000E+00  9.55249411E+00  9.55249411E+00 -1.91049882E+01  0.00000000E+00
  9.55249411E+00  9.55249411E+00 -1.91049882E+01  0.00000000E+00  9.55249411E+00
  9.55249411E+00 -1.91049882E+01  0.00000000E+00  9.55249411E+00  9.55249411E+00
 -1.91049882E+01  0.00000000E+00  9.55249411E+00  9.55249411E+00 -1.91049882E+01
  0.00000000E+00  9.55249411E+00  9.55249411E+00 -1.91049882E+01  0.00000000E+00
  9.55249411E+00  9.55249411E+00 -1.91049882E+01  0.00000000E+00  9.55249411E+00
  9.55249411E+00 -1.91049882E+01  0.00000000E+00  9.55249411E+00  9.55249411E+00
 -1.91049882E+01  0.00000000E+00  9.55249411E+00  9.55249411E+00 -1.91049882E+01
  0.00000000E+00  9.55249411E+00  9.55249411E+00 -1.91049882E+01  0.00000000E+00
  9.55249411E+00  9.55249411E+00 -1.91049882E+01  0.00000000E+00  9.55249411E+00
  9.55249411E+00 -1.91049882E+01  0.00000000E+00  9.55249411E+00  9.55249411E+00
 -1.91049882E+01  0.00000000E+00  9.55249411E+00  9.55249411E+00 -1.91049882E+01
  0.00000000E+00  9.55249411E+00  9.55249411E+00 -1.91049882E+01  0.00000000E+00
  9.55249411E+00  9.55249411E+00 -1.91049882E+01  0.00000000E+00  9.55249411E+00
  9.55249411E+00 -1.91049882E+01  0.00000000E+00  9.55249411E+00  9.55249411E+00
 -1.91049882E+01  0.00000000E+00  9.55249411E+00  9.55249411E+00 -1.91049882E+01
  0.00000000E+00  9.55249411E+00  9.55249411E+00 -1.91049882E+01  0.00000000E+00
  9.55249411E+00  9.55249411E+00 -1.91049882E+01  0.00000000E+00  9.55249411E+00
  9.55249411E+00 -1.91049882E+01  0.00000000E+00  9.55249411E+00  9.55249411E+00
 -1.91049882E+01  0.00000000E+00  9.55249411E+00  9.55249411E+00 -1.91049882E+01
  0.00000000E+00  9.55249411E+00  9.55249411E+00 -1.91049882E+01  0.00000000E+00
  9.55249411E+00  9.55249411E+00 -1.91049882E+01  0.00000000E+00  9.55249411E+00
  9.55249411E+00 -1.91049882E+01  0.00000000E+00  9.55249411E+00  9.55249411E+00
 -1.91049882E+01  0.00000000E+00  9.55249411E+00  9.55249411E+00 -1.91049882E+01
  0.00000000E+00  9.55249411E+00  9.55249411E+00 -1.91049882E+01  0.00000000E+00
  9.55249411E+00  9.55249411E+00 -1.91049882E+01  0.00000000E+00  9.55249411E+00
  9.55249411E+00 -1.91049882E+01  0.00000000E+00  9.55249411E+00  9.55249411E+00
 -1.91049882E+01  0.00000000E+00  9.55249411E+00  9.55249411E+00 -1.91049882E+01
  0.00000000E+00  9.55249411E+00  9.55249411E+00 -1.91049882E+01  0.00000000E+00
  9.55249411E+00  9.55249411E+00 -1.91049882E+01  0.00000000E+00  9.55249411E+00
  9.55249411E+00 -1.91049882E+01  0.00000000E+00  9.55249411E+00  9.55249411E+00
 -1.91049882E+01  0.00000000E+00  9.55249411E+00  9.55249411E+00 -1.91049882E+01
  0.00000000E+00  9.55249411E+00  9.55249411E+00 -1.91049882E+01  0.00000000E+00
  9.55249411E+00  9.55249411E+00 -1.91049882E+01  0.00000000E+00  9.55249411E+00
  9.55249411E+00 -1.91049882E+01  0.00000000E+00  9.55249411E+00  9.55249411E+00
 -1.91049882E+01  0.00000000E+00  9.55249411E+00  9.55249411E+00 -1.91049882E+01
  0.00000000E+00  9.55249411E+00  9.55249411E+00 -1.91049882E+01  0.00000000E+00
  9.55249411E+00  9.55249411E+00 -1.91049882E+01  0.00000000E+00  9.55249411E+00
  9.55249411E+00 -1.91049882E+01  0.00000000E+00  9.55249411E+00  9.55249411E+00
 -1.91049882E+01  0.00000000E+00  9.55249411E+00  9.55249411E+00 -1.91049882E+01
  0.00000000E+00  9.55249411E+00  9.55249411E+00 -1.91049882E+01  0.00000000E+00
  9.55249411E+00  9.55249411E+00 -1.91049882E+01  0.00000000E+00  9.55249411E+00
  9.55249411E+00 -1.91049882E+01  0.00000000E+00  9.55249411E+00  9.55249411E+00
 -1.91049882E+01  0.00000000E+00  9.55249411E+00  9.55249411E+00 -1.91049882E+01
  0.00000000E+00  9.55249411E+00  9.55249411E+00 -1.91049882E+01  0.00000000E+00
  9.55249411E+00  9.55249411E+00 -1.91049882E+01  0.00000000E+00  9.55249411E+00
  9.55249411E+00 -1.91049882E+01  0.00000000E+00  9.55249411E+00  9.55249411E+00
 -1.91049882E+01  0.00000000E+00  9.55249411E+00  9.55249411E+00 -1.91049882E+01
  0.00000000E+00  9.55249411E+00  9.55249411E+00 -1.91049882E+01  0.00000000E+00
  9.55249411E+00  9.55249411E+00 -1.91049882E+01  0.00000000E+00  9.55249411E+00
  9.55249411E+00 -1.91049882E+01  0.00000000E+00  9.55249411E+00  9.55249411E+00
 -1.91049882E+01  0.00000000E+00  9.55249411E+00  9.55249411E+00 -1.91049882E+01
  0.00000000E+00  9.55249411E+00  9.55249411E+00 -1.91049882E+01  0.00000000E+00
  9.55249411E+00  9.55249411E+00 -1.91049882E+01  0.00000000E+00  9.55249411E+00
  9.55249411E+00 -1.91049882E+01  0.00000000E+00  9.55249411E+00  9.55249411E+00
 -1.91049882E+01  0.00000000E+00  9.55249411E+00  9.55249411E+00 -1.91049882E+01
  0.00000000E+00  9.55249411E+00  9.55249411E+00 -1.91049882E+01  0.00000000E+00
  9.55249411E+00  9.55249411E+00 -1.91049882E+01  0.00000000E+00  9.55249411E+00
  9.55249411E+00 -1.91049882E+01  0.00000000E+00  9.55249411E+00  9.55249411E+00
 -1.91049882E+01  0.00000000E+00  9.55249411E+00  9.55249411E+00 -1.91049882E+01
  0.00000000E+00  9.55249411E+00  9.55249411E+00 -1.91049882E+01  0.00000000E+00
  9.55249411E+00  9.55249411E+00 -1.91049882E+01  0.00000000E+00  9.55249411E+00
  9.55249411E+00 -1.91049882E+01  0.00000000E+00  9.55249411E+00  9.55249411E+00
 -1.91049882E+01  0.00000000E+00  9.55249411E+00  9.55249411E+00 -1.91049882E+01
  0.00000000E+00  9.55249411E+00  9.55249411E+00 -1.91049882E+01  0.00000000E+00
  9.55249411E+00  9.55249411E+00 -1.91049882E+01  0.00000000E+00  9.55249411E+00
  9.55249411E+00 -1.91049882E+01  0.00000000E+00  9.55249411E+00  9.55249411E+00
 -1.91049882E+01  0.00000000E+00  9.55249411E+00  9.55249411E+00 -1.91049882E+01
  0.00000000E+00  9.55249411E+00  9.55249411E+00 -1.91049882E+01  0.00000000E+00
  9.55249411E+00  9.55249411E+00 -1.91049882E+01  0.00000000E+00  9.55249411E+00
  9.55249411E+00 -1.91049882E+01  0.00000000E+00  9.55249411E+00  9.55249411E+00
 -1.91049882E+01  0.00000000E+00  9.55249411E+00  9.55249411E+00 -1.91049882E+01
  0.00000000E+00  9.55249411E+00  9.55249411E+00 -1.91049882E+01  0.00000000E+00
  9.55249411E+00  9.55249411E+00 -1.91049882E+01  0.00000000E+00  9.55249411E+00
  9.55249411E+00 -1.91049882E+01  0.00000000E+00  9.55249411E+00  9.55249411E+00
 -1.91049882E+01  0.00000000E+00  9.55249411E+00  9.55249411E+00 -1.91049882E+01
  0.00000000E+00  9.55249411E+00  9.55249411E+00 -1.91049882E+01  0.00000000E+00
  9.55249411E+00  9.55249411E+00 -1.91049882E+01  0.00000000E+00  9.55249411E+00
  9.55249411E+00 -1.91049882E+01  0.00000000E+00  9.55249411E+00  9.55249411E+00
 -1.91049882E+01  0.00000000E+00  9.55249411E+00  9.55249411E+00 -1.91049882E+01
  0.00000000E+00  9.55249411E+00  9.55249411E+00 -1.91049882E+01  0.00000000E+00
  9.55249411E+00  9.55249411E+00 -1.91049882E+01  0.00000000E+00  9.55249411E+00
  9.55249411E+00 -1.91049882E+01  0.00000000E+00  9.55249411E+00  9.55249411E+00
 -1.91049882E+01  0.00000000E+00  9.55249411E+00  9.55249411E+00 -1.91049882E+01
  0.00000000E+00  9.55249411E+00  9.55249411E+00 -1.91049882E+01  0.00000000E+00
  9.55249411E+00  9.55249411E+00 -1.91049882E+01  0.00000000E+00  9.55249411E+00
  9.55249411E+00 -1.91049882E+01  0.00000000E+00  9.55249411E+00  9.55249411E+00
 -1.91049882E+01  0.00000000E+00  9.55249411E+00  9.55249411E+00 -1.91049882E+01
  0.00000000E+00  9.55249411E+00  9.55249411E+00 -1.91049882E+01  0.00000000E+00
  9.55249411E+00  9.55249411E+00 -1.91049882E+01  0.00000000E+00  9.55249411E+00
  9.55249411E+00 -1.91049882E+01  0.00000000E+00  9.55249411E+00  9.55249411E+00
 -1.91049882E+01  0.00000000E+00  9.55249411E+00  9.55249411E+00 -1.91049882E+01
  0.00000000E+00  9.55249411E+00  9.55249411E+00 -1.91049882E+01  0.00000000E+00
  9.55249411E+00  9.55249411E+00 -1.91049882E+01  0.00000000E+00  9.55249411E+00
  9.55249411E+00 -1.91049882E+01  0.00000000E+00  9.55249411E+00  9.55249411E+00
 -1.91049882E+01  0.00000000E+00  9.55249411E+00  9.55249411E+00 -1.91049882E+01
  0.00000000E+00  9.55249411E+00  9.55249411E+00 -1.91049882E+01  0.00000000E+00
  9.55249411E+00  9.55249411E+00 -1.91049882E+01  0.00000000E+00  9.55249411E+00
  9.55249411E+00 -1.91049882E+01  0.00000000E+00  9.55249411E+00  9.55249411E+00
 -1.91049882E+01  0.00000000E+00  9.55249411E+00  9.55249411E+00 -1.91049882E+01
  0.00000000E+00  9.55249411E+00  9.55249411E+00 -1.91049882E+01  0.00000000E+00
  9.55249411E+00  9.55249411E+00 -1.91049882E+01  0.00000000E+00  9.55249411E+00
  9.55249411E+00 -1.91049882E+01  0.00000000E+00  9.55249411E+00  9.55249411E+00
 -1.91049882E+01  0.00000000E+00  9.55249411E+00  9.55249411E+00 -1.91049882E+01
  0.00000000E+00  9.55249411E+00  9.55249411E+00 -1.91049882E+01  0.00000000E+00
  9.55249411E+00  9.55249411E+00 -1.91049882E+01  0.00000000E+00  9.55249411E+00
  9.55249411E+00 -1.91049882E+01  0.00000000E+00  9.55249411E+00  9.55249411E+00
 -1.91049882E+01  0.00000000E+00  9.55249411E+00  9.55249411E+00 -1.91049882E+01
  0.00000000E+00  9.55249411E+00  9.55249411E+00 -1.91049882E+01  0.00000000E+00
  9.55249411E+00  9.55249411E+00 -1.91049882E+01  0.00000000E+00  9.55249411E+00
  9.55249411E+00 -1.91049882E+01  0.00000000E+00  9.55249411E+00  9.55249411E+00
 -1.91049882E+01  0.00000000E+00  9.55249411E+00  9.55249411E+00 -1.91049882E+01
  0.00000000E+00  9.55249411E+00  9.55249411E+00 -1.91049882E+01  0.00000000E+00
  9.55249411E+00  9.55249411E+00 -1.91049882E+01  0.00000000E+00  9.55249411E+00
  9.55249411E+00 -1.91049882E+01  0.00000000E+00  9.55249411E+00  9.55249411E+00
 -1.91049882E+01  0.00000000E+00  9.55249411E+00  9.55249411E+00 -1.91049882E+01
  0.00000000E+00  9.55249411E+00  9.55249411E+00 -1.91049882E+01  0.00000000E+00
  9.55249411E+00  9.55249411E+00 -1.91049882E+01  0.00000000E+00  9.55249411E+00
  9.55249411E+00 -1.91049882E+01  0.00000000E+00  9.55249411E+00  9.55249411E+00
 -1.91049882E+01  0.00000000E+00  9.55249411E+00  9.55249411E+00 -1.91049882E+01
  0.00000000E+00  9.55249411E+00  9.55249411E+00 -1.91049882E+01  0.00000000E+00
  9.55249411E+00  9.55249411E+00 -1.91049882E+01  0.00000000E+00  9.55249411E+00
  9.55249411E+00 -1.91049882E+01  0.00000000E+00  9.55249411E+00  9.55249411E+00
 -1.91049882E+01  0.00000000E+00  9.55249411E+00  9.55249411E+00 -1.91049882E+01
  0.00000000E+00  9.55249411E+00  9.55249411E+00 -1.91049882E+01  0.00000000E+00
  9.55249411E+00  9.55249411E+00 -1.91049882E+01  0.00000000E+00  9.55249411E+00
  9.55249411E+00 -1.91049882E+01  0.00000000E+00  9.55249411E+00  9.55249411E+00
 -1.91049882E+01  0.00000000E+00  9.55249411E+00  9.55249411E+00 -1.91049882E+01
  0.00000000E+00  9.55249411E+00  9.55249411E+00 -1.91049882E+01  0.00000000E+00
  9.55249411E+00  9.55249411E+00 -1.91049882E+01  0.00000000E+00  9.55249411E+00
  9.55249411E+00 -1.91049882E+01  0.00000000E+00  9.55249411E+00  9.55249411E+00
 -1.91049882E+01  0.00000000E+00  9.55249411E+00  9.55249411E+00 -1.91049882E+01
  0.00000000E+00  9.55249411E+00  9.55249411E+00 -1.91049882E+01  0.00000000E+00
  9.55249411E+00  9.55249411E+00 -1.91049882E+01  0.00000000E+00  9.55249411E+00
  9.55249411E+00 -1.91049882E+01  0.00000000E+00  9.55249411E+00  9.55249411E+00
 -1.91049882E+01  0.00000000E+00  9.55249411E+00  9.55249411E+00 -1.91049882E+01
  0.00000000E+00  9.55249411E+00  9.55249411E+00 -1.91049882E+01  0.00000000E+00
  9.55249411E+00  9.55249411E+00 -1.91049882E+01  0.00000000E+00  9.55249411E+00
  9.55249411E+00 -1.91049882E+01  0.00000000E+00  9.55249411E+00  9.55249411E+00
 -1.91049882E+01  0.00000000E+00  9.55249411E+00  9.55249411E+00 -1.91049882E+01
  0.00000000E+00  9.55249411E+00  9.55249411E+00 -1.91049882E+01  0.00000000E+00
  9.55249411E+00  9.55249411E+00 -1.91049882E+01  0.00000000E+00  9.55249411E+00
  9.55249411E+00 -1.91049882E+01  0.00000000E+00  9.55249411E+00  9.55249411E+00
 -1.91049882E+01  0.00000000E+00  9.55249411E+00  9.55249411E+00 -1.91049882E+01
  0.00000000E+00  9.55249411E+00  9.55249411E+00 -1.91049882E+01  0.00000000E+00
  9.55249411E+00  9.55249411E+00 -1.91049882E+01  0.00000000E+00  9.55249411E+00
  9.55249411E+00 -1.91049882E+01  0.00000000E+00  9.55249411E+00  9.55249411E+00
 -1.91049882E+01  0.00000000E+00  9.55249411E+00  9.55249411E+00 -1.91049882E+01
  0.00000000E+00  9.55249411E+00  9.55249411E+00 -1.91049882E+01  0.00000000E+00
  9.55249411E+00  9.55249411E+00 -1.91049882E+01  0.00000000E+00  9.55249411E+00
  9.55249411E+00 -1.91049882E+01  0.00000000E+00  9.55249411E+00  9.55249411E+00
 -1.91049882E+01  0.00000000E+00  9.55249411E+00  9.55249411E+00 -1.91049882E+01
  0.00000000E+00  9.55249411E+00  9.55249411E+00 -1.91049882E+01  0.00000000E+00
  9.55249411E+00  9.55249411E+00 -1.91049882E+01  0.00000000E+00  9.55249411E+00
  9.55249411E+00 -1.91049882E+01  0.00000000E+00  9.55249411E+00  9.55249411E+00
 -1.91049882E+01  0.00000000E+00  9.55249411E+00  9.55249411E+00 -1.91049882E+01
  0.00000000E+00  9.55249411E+00  9.55249411E+00 -1.91049882E+01  0.00000000E+00
  9.55249411E+00  9.55249411E+00 -1.91049882E+01  0.00000000E+00  9.55249411E+00
  9.55249411E+00 -1.91049882E+01  0.00000000E+00  9.55249411E+00  9.55249411E+00
 -1.91049882E+01  0.00000000E+00  9.55249411E+00  9.55249411E+00 -1.91049882E+01
  0.00000000E+00  9.55249411E+00  9.55249411E+00 -1.91049882E+01  0.00000000E+00
  9.55249411E+00  9.55249411E+00 -1.91049882E+01  0.00000000E+00  9.55249411E+00
  9.55249411E+00 -1.91049882E+01  0.00000000E+00  9.55249411E+00  9.55249411E+00
 -1.91049882E+01  0.00000000E+00  9.55249411E+00  9.55249411E+00 -1.91049882E+01
  0.00000000E+00  9.55249411E+00  9.55249411E+00 -1.91049882E+01  0.00000000E+00
  9.55249411E+00  9.55249411E+00 -1.91049882E+01  0.00000000E+00  9.55249411E+00
  9.55249411E+00 -1.91049882E+01  0.00000000E+00  9.55249411E+00  9.55249411E+00
 -1.91049882E+01  0.00000000E+00  9.55249411E+00  9.55249411E+00 -1.91049882E+01
  0.00000000E+00  9.55249411E+00  9.55249411E+00 -1.91049882E+01  0.00000000E+00
  9.55249411E+00  9.55249411E+00 -1.91049882E+01  0.00000000E+00  9.55249411E+00
  9.55249411E+00 -1.91049882E+01  0.00000000E+00  9.55249411E+00  9.55249411E+00
 -1.91049882E+01  0.00000000E+00  9.55249411E+00  9.55249411E+00 -1.91049882E+01
  0.00000000E+00  9.55249411E+00  9.55249411E+00 -1.91049882E+01  0.00000000E+00
  9.55249411E+00  9.55249411E+00 -1.91049882E+01  0.00000000E+00  9.55249411E+00
  9.55249411E+00 -1.91049882E+01  0.00000000E+00  9.55249411E+00  9.55249411E+00
 -1.91049882E+01  0.00000000E+00  9.55249411E+00  9.55249411E+00 -1.91049882E+01
  0.00000000E+00  9.55249411E+00  9.55249411E+00 -1.91049882E+01  0.00000000E+00
  9.55249411E+00  9.55249411E+00 -1.91049882E+01  0.00000000E+00  9.55249411E+00
  9.55249411E+00 -1.91049882E+01  0.00000000E+00  9.55249411E+00  9.55249411E+00
 -1.91049882E+01  0.00000000E+00  9.55249411E+00  9.55249411E+00 -1.91049882E+01
  0.00000000E+00  9.55249411E+00  9.55249411E+00 -1.91049882E+01  0.00000000E+00
  9.55249411E+00  9.55249411E+00 -1.91049882E+01  0.00000000E+00  9.55249411E+00
  9.55249411E+00 -1.91049882E+01  0.00000000E+00  9.55249411E+00  9.55249411E+00
 -1.91049882E+01  0.00000000E+00  9.55249411E+00  9.55249411E+00 -1.91049882E+01
  0.00000000E+00  9.55249411E+00  9.55249411E+00 -1.91049882E+01  0.00000000E+00
  9.55249411E+00  9.55249411E+00 -1.91049882E+01  0.00000000E+00  9.55249411E+00
  9.55249411E+00 -1.91049882E+01  0.00000000E+00  9.55249411E+00  9.55249411E+00
 -1.91049882E+01  0.00000000E+00  9.55249411E+00  9.55249411E+00 -1.91049882E+01
  0.00000000E+00  9.55249411E+00  9.55249411E+00 -1.91049882E+01  0.00000000E+00
  9.55249411E+00  9.55249411E+00 -1.91049882E+01  0.00000000E+00  9.55249411E+00
  9.55249411E+00 -1.91049882E+01  0.00000000E+00  9.55249411E+00  9.55249411E+00
 -1.91049882E+01  0.00000000E+00  9.55249411E+00  9.55249411E+00 -1.91049882E+01
  0.00000000E+00  9.55249411E+00  9.55249411E+00 -1.91049882E+01  0.00000000E+00
  9.55249411E+00  9.55249411E+00 -1.91049882E+01  0.00000000E+00  9.55249411E+00
  9.55249411E+00 -1.91049882E+01  0.00000000E+00  9.55249411E+00  9.55249411E+00
 -1.91049882E+01  0.00000000E+00  9.55249411E+00  9.55249411E+00 -1.91049882E+01
  0.00000000E+00  9.55249411E+00  9.55249411E+00 -1.91049882E+01  0.00000000E+00
  9.55249411E+00  9.55249411E+00 -1.91049882E+01  0.00000000E+00  9.55249411E+00
  9.55249411E+00 -1.91049882E+01  0.00000000E+00  9.55249411E+00  9.55249411E+00
 -1.91049882E+01  0.00000000E+00  9.55249411E+00  9.55249411E+00 -1.91049882E+01
  0.00000000E+00  9.55249411E+00  9.55249411E+00 -1.91049882E+01  0.00000000E+00
  9.55249411E+00  9.55249411E+00 -1.91049882E+01  0.00000000E+00  9.55249411E+00
  9.55249411E+00 -1.91049882E+01  0.00000000E+00  9.55249411E+00  9.55249411E+00
 -1.91049882E+01  0.00000000E+00  9.55249411E+00  9.55249411E+00 -1.91049882E+01
  0.00000000E+00  9.55249411E+00  9.55249411E+00 -1.91049882E+01  0.00000000E+00
  9.55249411E+00  9.55249411E+00 -1.91049882E+01  0.00000000E+00  9.55249411E+00
  9.55249411E+00 -1.91049882E+01  0.00000000E+00  9.55249411E+00  9.55249411E+00
 -1.91049882E+01  0.00000000E+00  9.55249411E+00  9.55249411E+00 -1.91049882E+01
  0.00000000E+00  9.55249411E+00  9.55249411E+00 -1.91049882E+01  0.00000000E+00
  9.55249411E+00  9.55249411E+00 -1.91049882E+01  0.00000000E+00  9.55249411E+00
  9.55249411E+00 -1.91049882E+01  0.00000000E+00  9.55249411E+00  9.55249411E+00
 -1.91049882E+01  0.00000000E+00  9.55249411E+00  9.55249411E+00 -1.91049882E+01
  0.00000000E+00  9.55249411E+00  9.55249411E+00 -1.91049882E+01  0.00000000E+00
  9.55249411E+00  9.55249411E+00 -1.91049882E+01  0.00000000E+00  9.55249411E+00
  9.55249411E+00 -1.91049882E+01  0.00000000E+00  9.55249411E+00  9.55249411E+00
 -1.91049882E+01  0.00000000E+00  9.55249411E+00  9.55249411E+00 -1.91049882E+01
  0.00000000E+00  9.55249411E+00  9.55249411E+00 -1.91049882E+01  0.00000000E+00
  9.55249411E+00  9.55249411E+00 -1.91049882E+01  0.00000000E+00  9.55249411E+00
  9.55249411E+00 -1.91049882E+01  0.00000000E+00  9.55249411E+00  9.55249411E+00
 -1.91049882E+01  0.00000000E+00  9.55249411E+00  9.55249411E+00 -1.91049882E+01
  0.00000000E+00  9.55249411E+00  9.55249411E+00 -1.91049882E+01  0.00000000E+00
  9.55249411E+00  9.55249411E+00 -1.91049882E+01  0.00000000E+00  9.55249411E+00
  9.55249411E+00 -1.91049882E+01  0.00000000E+00  9.55249411E+00  9.55249411E+00
 -1.91049882E+01  0.00000000E+00  9.55249411E+00  9.55249411E+00 -1.91049882E+01
  0.00000000E+00  9.55249411E+00  9.55249411E+00 -1.91049882E+01  0.00000000E+00
  9.55249411E+00  9.55249411E+00 -1.91049882E+01  0.00000000E+00  9.55249411E+00
  9.55249411E+00 -1.91049882E+01  0.00000000E+00  9.55249411E+00  9.55249411E+00
 -1.91049882E+01  0.00000000E+00  9.55249411E+00  9.55249411E+00 -1.91049882E+01
  0.00000000E+00  9.55249411E+00  9.55249411E+00 -1.91049882E+01  0.00000000E+00
  9.55249411E+00  9.55249411E+00 -1.91049882E+01  0.00000000E+00  9.55249411E+00
  9.55249411E+00 -1.91049882E+01  0.00000000E+00  9.55249411E+00  9.55249411E+00
 -1.91049882E+01  0.00000000E+00  9.55249411E+00  9.55249411E+00 -1.91049882E+01
  0.00000000E+00  9.55249411E+00  9.55249411E+00 -1.91049882E+01  0.00000000E+00
  9.55249411E+00  9.55249411E+00 -1.91049882E+01  0.00000000E+00  9.55249411E+00
  9.55249411E+00 -1.91049882E+01  0.00000000E+00  9.55249411E+00  9.55249411E+00
 -1.91049882E+01  0.00000000E+00  9.55249411E+00  9.55249411E+00 -1.91049882E+01
  0.00000000E+00  9.55249411E+00  9.55249411E+00 -1.91049882E+01  0.00000000E+00
  9.55249411E+00  9.55249411E+00 -1.91049882E+01  0.00000000E+00  9.55249411E+00
  9.55249411E+00 -1.91049882E+01  0.00000000E+00  9.55249411E+00  9.55249411E+00
 -1.91049882E+01  0.00000000E+00  9.55249411E+00  9.55249411E+00 -1.91049882E+01
  0.00000000E+00  9.55249411E+00  9.55249411E+00 -1.91049882E+01  0.00000000E+00
  9.55249411E+00  9.55249411E+00 -1.91049882E+01  0.00000000E+00  9.55249411E+00
  9.55249411E+00 -1.91049882E+01  0.00000000E+00  9.55249411E+00  9.55249411E+00
 -1.91049882E+01  0.00000000E+00  9.55249411E+00  9.55249411E+00 -1.91049882E+01
  0.00000000E+00  9.55249411E+00  9.55249411E+00 -1.91049882E+01  0.00000000E+00
  9.55249411E+00  9.55249411E+00 -1.91049882E+01  0.00000000E+00  9.55249411E+00
  9.55249411E+00 -1.91049882E+01  0.00000000E+00  9.55249411E+00  9.55249411E+00
 -1.91049882E+01  0.00000000E+00  9.55249411E+00  9.55249411E+00 -1.91049882E+01
  0.00000000E+00  9.55249411E+00  9.55249411E+00 -1.91049882E+01  0.00000000E+00
  9.55249411E+00  9.55249411E+00 -1.91049882E+01  0.00000000E+00  9.55249411E+00
  9.55249411E+00 -1.91049882E+01  0.00000000E+00  9.55249411E+00  9.55249411E+00
 -1.91049882E+01  0.00000000E+00  9.55249411E+00  9.55249411E+00 -1.91049882E+01
  0.00000000E+00  9.55249411E+00  9.55249411E+00 -1.91049882E+01  0.00000000E+00
  9.55249411E+00  9.55249411E+00 -1.91049882E+01  0.00000000E+00  9.55249411E+00
  9.55249411E+00 -1.91049882E+01  0.00000000E+00  9.55249411E+00  9.55249411E+00
 -1.91049882E+01  0.00000000E+00  9.55249411E+00  9.55249411E+00 -1.91049882E+01
  0.00000000E+00  9.55249411E+00  9.55249411E+00 -1.91049882E+01  0.00000000E+00
  9.55249411E+00  9.55249411E+00 -1.91049882E+01  0.00000000E+00  9.55249411E+00
  9.55249411E+00 -1.91049882E+01  0.00000000E+00  9.55249411E+00  9.55249411E+00
 -1.91049882E+01  0.00000000E+00  9.55249411E+00  9.55249411E+00 -1.91049882E+01
  0.00000000E+00  9.55249411E+00  9.55249411E+00 -1.91049882E+01  0.00000000E+00
  9.55249411E+00  9.55249411E+00 -1.91049882E+01  0.00000000E+00  9.55249411E+00
  9.55249411E+00 -1.91049882E+01  0.00000000E+00  9.55249411E+00  9.55249411E+00
 -1.91049882E+01  0.00000000E+00  9.55249411E+00  9.55249411E+00 -1.91049882E+01
  0.00000000E+00  9.55249411E+00  9.55249411E+00 -1.91049882E+01  0.00000000E+00
  9.55249411E+00  9.55249411E+00 -1.91049882E+01  0.00000000E+00  9.55249411E+00
  9.55249411E+00 -1.91049882E+01  0.00000000E+00  9.55249411E+00  9.55249411E+00
 -1.91049882E+01  0.00000000E+00  9.55249411E+00  9.55249411E+00 -1.91049882E+01
  0.00000000E+00  9.55249411E+00  9.55249411E+00 -1.91049882E+01  0.00000000E+00
  9.55249411E+00  9.55249411E+00 -1.91049882E+01  0.00000000E+00  9.55249411E+00
  9.55249411E+00 -1.91049882E+01  0.00000000E+00  9.55249411E+00  9.55249411E+00
 -1.91049882E+01  0.00000000E+00  9.55249411E+00  9.55249411E+00 -1.91049882E+01
  0.00000000E+00  9.55249411E+00  9.55249411E+00 -1.91049882E+01  0.00000000E+00
  9.55249411E+00  9.55249411E+00 -1.91049882E+01  0.00000000E+00  9.55249411E+00
  9.55249411E+00 -1.91049882E+01  0.00000000E+00  9.55249411E+00  9.55249411E+00
 -1.91049882E+01  0.00000000E+00  9.55249411E+00  9.55249411E+00 -1.91049882E+01
  0.00000000E+00  9.55249411E+00  9.55249411E+00 -1.91049882E+01  0.00000000E+00
  9.55249411E+00  9.55249411E+00 -1.91049882E+01  0.00000000E+00  9.55249411E+00
  9.55249411E+00 -1.91049882E+01  0.00000000E+00  9.55249411E+00  9.55249411E+00
 -1.91049882E+01  0.00000000E+00  9.55249411E+00  9.55249411E+00 -1.91049882E+01
  0.00000000E+00  9.55249411E+00  9.55249411E+00 -1.91049882E+01  0.00000000E+00
  9.55249411E+00  9.55249411E+00 -1.91049882E+01  0.00000000E+00  9.55249411E+00
  9.55249411E+00 -1.91049882E+01  0.00000000E+00  9.55249411E+00  9.55249411E+00
 -1.91049882E+01  0.00000000E+00  9.55249411E+00  9.55249411E+00 -1.91049882E+01
  0.00000000E+00  9.55249411E+00  9.55249411E+00 -1.91049882E+01  0.00000000E+00
  9.55249411E+00  9.55249411E+00 -1.91049882E+01  0.00000000E+00  9.55249411E+00
  9.55249411E+00 -1.91049882E+01  0.00000000E+00  9.55249411E+00  9.55249411E+00
 -1.91049882E+01  0.00000000E+00  9.55249411E+00  9.55249411E+00 -1.91049882E+01
  0.00000000E+00  9.55249411E+00  9.55249411E+00 -1.91049882E+01  0.00000000E+00
  9.55249411E+00  9.55249411E+00 -1.91049882E+01  0.00000000E+00  9.55249411E+00
  9.55249411E+00 -1.91049882E+01  0.00000000E+00  9.55249411E+00  9.55249411E+00
 -1.91049882E+01  0.00000000E+00  9.55249411E+00  9.55249411E+00 -1.91049882E+01
  0.00000000E+00  9.55249411E+00  9.55249411E+00 -1.91049882E+01  0.00000000E+00
  9.55249411E+00  9.55249411E+00 -1.91049882E+01  0.00000000E+00  9.55249411E+00
  9.55249411E+00 -1.91049882E+01  0.00000000E+00  9.55249411E+00  9.55249411E+00
 -1.91049882E+01  0.00000000E+00  9.55249411E+00  9.55249411E+00 -1.91049882E+01
  0.00000000E+00  9.55249411E+00  9.55249411E+00 -1.91049882E+01  0.00000000E+00
  9.55249411E+00  9.55249411E+00 -1.91049882E+01  0.00000000E+00  9.55249411E+00
  9.55249411E+00 -1.91049882E+01  0.00000000E+00  9.55249411E+00  9.55249411E+00
 -1.91049882E+01  0.00000000E+00  9.55249411E+00  9.55249411E+00 -1.91049882E+01
  0.00000000E+00  9.55249411E+00  9.55249411E+00 -1.91049882E+01  0.00000000E+00
  9.55249411E+00  9.55249411E+00 -1.91049882E+01  0.00000000E+00  9.55249411E+00
  9.55249411E+00 -1.91049882E+01  0.00000000E+00  9.55249411E+00  9.55249411E+00
 -1.91049882E+01  0.00000000E+00  9.55249411E+00  9.55249411E+00 -1.91049882E+01
  0.00000000E+00  9.55249411E+00  9.55249411E+00 -1.91049882E+01  0.00000000E+00
  9.55249411E+00  9.55249411E+00 -1.91049882E+01  0.00000000E+00  9.55249411E+00
  9.55249411E+00 -1.91049882E+01  0.00000000E+00  9.55249411E+00  9.55249411E+00
 -1.91049882E+01  0.00000000E+00  9.55249411E+00  9.55249411E+00 -1.91049882E+01
  0.00000000E+00  9.55249411E+00  9.55249411E+00 -1.91049882E+01  0.00000000E+00
  9.55249411E+00  9.55249411E+00 -1.91049882E+01  0.00000000E+00  9.55249411E+00
  9.55249411E+00 -1.91049882E+01  0.00000000E+00  9.55249411E+00  9.55249411E+00
 -1.91049882E+01  0.00000000E+00  9.55249411E+00  9.55249411E+00 -1.91049882E+01
  0.00000000E+00  9.55249411E+00  9.55249411E+00 -1.91049882E+01  0.00000000E+00
  9.55249411E+00  9.55249411E+00 -1.91049882E+01  0.00000000E+00  9.55249411E+00
  9.55249411E+00 -1.91049882E+01  0.00000000E+00  9.55249411E+00  9.55249411E+00
 -1.91049882E+01  0.00000000E+00  9.55249411E+00  9.55249411E+00 -1.91049882E+01
  0.00000000E+00  9.55249411E+00  9.55249411E+00 -1.91049882E+01  0.00000000E+00
  9.55249411E+00  9.55249411E+00 -1.91049882E+01  0.00000000E+00  9.55249411E+00
  9.55249411E+00 -1.91049882E+01  0.00000000E+00  9.55249411E+00  9.55249411E+00
 -1.91049882E+01  0.00000000E+00  9.55249411E+00  9.55249411E+00 -1.91049882E+01
  0.00000000E+00  9.55249411E+00  9.55249411E+00 -1.91049882E+01  0.00000000E+00
  9.55249411E+00  9.55249411E+00 -1.91049882E+01  0.00000000E+00  9.55249411E+00
  9.55249411E+00 -1.91049882E+01  0.00000000E+00  9.55249411E+00  9.55249411E+00
 -1.91049882E+01  0.00000000E+00  9.55249411E+00  9.55249411E+00 -1.91049882E+01
  0.00000000E+00  9.55249411E+00  9.55249411E+00 -1.91049882E+01  0.00000000E+00
  9.55249411E+00  9.55249411E+00 -1.91049882E+01  0.00000000E+00  9.55249411E+00
  9.55249411E+00 -1.91049882E+01  0.00000000E+00  9.55249411E+00  9.55249411E+00
 -1.91049882E+01  0.00000000E+00  9.55249411E+00  9.55249411E+00 -1.91049882E+01
  0.00000000E+00  9.55249411E+00  9.55249411E+00 -1.91049882E+01  0.00000000E+00
  9.55249411E+00  9.55249411E+00 -1.91049882E+01  0.00000000E+00  9.55249411E+00
  9.55249411E+00 -1.91049882E+01  0.00000000E+00  9.55249411E+00  9.55249411E+00
 -1.91049882E+01  0.00000000E+00  9.55249411E+00  9.55249411E+00 -1.91049882E+01
  0.00000000E+00  9.55249411E+00  9.55249411E+00 -1.91049882E+01  0.00000000E+00
  9.55249411E+00  9.55249411E+00 -1.91049882E+01  0.00000000E+00  9.55249411E+00
  9.55249411E+00 -1.91049882E+01  0.00000000E+00  9.55249411E+00  9.55249411E+00
 -1.91049882E+01  0.00000000E+00  9.55249411E+00  9.55249411E+00 -1.91049882E+01
  0.00000000E+00  9.55249411E+00  9.55249411E+00 -1.91049882E+01  0.00000000E+00
  9.55249411E+00  9.55249411E+00 -1.91049882E+01  0.00000000E+00  9.55249411E+00
  9.55249411E+00 -1.91049882E+01  0.00000000E+00  9.55249411E+00  9.55249411E+00
 -1.91049882E+01  0.00000000E+00  9.55249411E+00  9.55249411E+00 -1.91049882E+01
  0.00000000E+00  9.55249411E+00  9.55249411E+00 -1.91049882E+01  0.00000000E+00
  9.55249411E+00  9.55249411E+00 -1.91049882E+01  0.00000000E+00  9.55249411E+00
  9.55249411E+00 -1.91049882E+01  0.00000000E+00  9.55249411E+00  9.55249411E+00
 -1.91049882E+01  0.00000000E+00  9.55249411E+00  9.55249411E+00 -1.91049882E+01
  0.00000000E+00  9.55249411E+00  9.55249411E+00 -1.91049882E+01  0.00000000E+00
  9.55249411E+00  9.55249411E+00 -1.91049882E+01  0.00000000E+00  9.55249411E+00
  9.55249411E+00 -1.91049882E+01  0.00000000E+00  9.55249411E+00  9.55249411E+00
 -1.91049882E+01  0.00000000E+00  9.55249411E+00  9.55249411E+00 -1.91049882E+01
  0.00000000E+00  9.55249411E+00  9.55249411E+00 -1.91049882E+01  0.00000000E+00
  9.55249411E+00  9.55249411E+00 -1.91049882E+01  0.00000000E+00  9.55249411E+00
  9.55249411E+00 -1.91049882E+01  0.00000000E+00  9.55249411E+00  9.55249411E+00
 -1.91049882E+01  0.00000000E+00  9.55249411E+00  9.55249411E+00 -1.91049882E+01
  0.00000000E+00  9.55249411E+00  9.55249411E+00 -1.91049882E+01  0.00000000E+00
  9.55249411E+00  9.55249411E+00 -1.91049882E+01  0.00000000E+00  9.55249411E+00
  9.55249411E+00 -1.91049882E+01  0.00000000E+00  9.55249411E+00  9.55249411E+00
 -1.91049882E+01  0.00000000E+00  9.55249411E+00  9.55249411E+00 -1.91049882E+01
  0.00000000E+00  9.55249411E+00  9.55249411E+00 -1.91049882E+01  0.00000000E+00
  9.55249411E+00  9.55249411E+00 -1.91049882E+01  0.00000000E+00  9.55249411E+00
  9.55249411E+00 -1.91049882E+01  0.00000000E+00  9.55249411E+00  9.55249411E+00
 -1.91049882E+01  0.00000000E+00  9.55249411E+00  9.55249411E+00 -1.91049882E+01
  0.00000000E+00  9.55249411E+00  9.55249411E+00 -1.91049882E+01  0.00000000E+00
  9.55249411E+00  9.55249411E+00 -1.91049882E+01  0.00000000E+00  9.55249411E+00
  9.55249411E+00 -1.91049882E+01  0.00000000E+00  9.55249411E+00  9.55249411E+00
 -1.91049882E+01  0.00000000E+00  9.55249411E+00  9.55249411E+00 -1.91049882E+01
  0.00000000E+00  9.55249411E+00  9.55249411E+00 -1.91049882E+01  0.00000000E+00
  9.55249411E+00  9.55249411E+00 -1.91049882E+01  0.00000000E+00  9.55249411E+00
  9.55249411E+00 -1.91049882E+01  0.00000000E+00  9.55249411E+00  9.55249411E+00
 -1.91049882E+01  0.00000000E+00  9.55249411E+00  9.55249411E+00 -1.91049882E+01
  0.00000000E+00  9.55249411E+00  9.55249411E+00 -1.91049882E+01  0.00000000E+00
  9.55249411E+00  9.55249411E+00 -1.91049882E+01  0.00000000E+00  9.55249411E+00
  9.55249411E+00 -1.91049882E+01  0.00000000E+00  9.55249411E+00  9.55249411E+00
 -1.91049882E+01  0.00000000E+00  9.55249411E+00  9.55249411E+00 -1.91049882E+01
  0.00000000E+00  9.55249411E+00  9.55249411E+00 -1.91049882E+01  0.00000000E+00
  9.55249411E+00  9.55249411E+00 -1.91049882E+01  0.00000000E+00  9.55249411E+00
  9.55249411E+00 -1.91049882E+01  0.00000000E+00  9.55249411E+00  9.55249411E+00
 -1.91049882E+01  0.00000000E+00  9.55249411E+00  9.55249411E+00 -1.91049882E+01
  0.00000000E+00  9.55249411E+00  9.55249411E+00 -1.91049882E+01  0.00000000E+00
  9.55249411E+00  9.55249411E+00 -1.91049882E+01  0.00000000E+00  9.55249411E+00
  9.55249411E+00 -1.91049882E+01  0.00000000E+00  9.55249411E+00  9.55249411E+00
 -1.91049882E+01  0.00000000E+00  9.55249411E+00  9.55249411E+00 -1.91049882E+01
  0.00000000E+00  9.55249411E+00  9.55249411E+00 -1.91049882E+01  0.00000000E+00
  9.55249411E+00  9.55249411E+00 -1.91049882E+01  0.00000000E+00  9.55249411E+00
  9.55249411E+00 -1.91049882E+01  0.00000000E+00  9.55249411E+00  9.55249411E+00
 -1.91049882E+01  0.00000000E+00  9.55249411E+00  9.55249411E+00 -1.91049882E+01
  0.00000000E+00  9.55249411E+00  9.55249411E+00 -1.91049882E+01  0.00000000E+00
  9.55249411E+00  9.55249411E+00 -1.91049882E+01  0.00000000E+00  9.55249411E+00
  9.55249411E+00 -1.91049882E+01  0.00000000E+00  9.55249411E+00  9.55249411E+00
 -1.91049882E+01  0.00000000E+00  9.55249411E+00  9.55249411E+00 -1.91049882E+01
  0.00000000E+00  9.55249411E+00  9.55249411E+00 -1.91049882E+01  0.00000000E+00
  9.55249411E+00  9.55249411E+00 -1.91049882E+01  0.00000000E+00  9.55249411E+00
  9.55249411E+00 -1.91049882E+01  0.00000000E+00  9.55249411E+00  9.55249411E+00
 -1.91049882E+01  0.00000000E+00  9.55249411E+00  9.55249411E+00 -1.91049882E+01
  0.00000000E+00  9.55249411E+00  9.55249411E+00 -1.91049882E+01  0.00000000E+00
  9.55249411E+00  9.55249411E+00 -1.91049882E+01  0.00000000E+00  9.55249411E+00
  9.55249411E+00 -1.91049882E+01  0.00000000E+00  9.55249411E+00  9.55249411E+00
 -1.91049882E+01  0.00000000E+00  9.55249411E+00  9.55249411E+00 -1.91049882E+01
  0.00000000E+00  9.55249411E+00  9.55249411E+00 -1.91049882E+01  0.00000000E+00
  9.55249411E+00  9.55249411E+00 -1.91049882E+01  0.00000000E+00  9.55249411E+00
  9.55249411E+00 -1.91049882E+01  0.00000000E+00  9.55249411E+00  9.55249411E+00
 -1.91049882E+01  0.00000000E+00  9.55249411E+00  9.55249411E+00 -1.91049882E+01
  0.00000000E+00  9.55249411E+00  9.55249411E+00 -1.91049882E+01  0.00000000E+00
  9.55249411E+00  9.55249411E+00 -1.91049882E+01  0.00000000E+00  9.55249411E+00
  9.55249411E+00 -1.91049882E+01  0.00000000E+00  9.55249411E+00  9.55249411E+00
 -1.91049882E+01  0.00000000E+00  9.55249411E+00  9.55249411E+00 -1.91049882E+01
  0.00000000E+00  9.55249411E+00  9.55249411E+00 -1.91049882E+01  0.00000000E+00
  9.55249411E+00  9.55249411E+00 -1.91049882E+01  0.00000000E+00  9.55249411E+00
  9.55249411E+00 -1.91049882E+01  0.00000000E+00  9.55249411E+00  9.55249411E+00
 -1.91049882E+01  0.00000000E+00  9.55249411E+00  9.55249411E+00 -1.91049882E+01
  0.00000000E+00  9.55249411E+00  9.55249411E+00 -1.91049882E+01  0.00000000E+00
  9.55249411E+00  9.55249411E+00 -1.91049882E+01  0.00000000E+00  9.55249411E+00
  9.55249411E+00 -1.91049882E+01  0.00000000E+00  9.55249411E+00  9.55249411E+00
 -1.91049882E+01  0.00000000E+00  9.55249411E+00  9.55249411E+00 -1.91049882E+01
  0.00000000E+00  9.55249411E+00  9.55249411E+00 -1.91049882E+01  0.00000000E+00
  9.55249411E+00  9.55249411E+00 -1.91049882E+01  0.00000000E+00  9.55249411E+00
  9.55249411E+00 -1.91049882E+01  0.00000000E+00  9.55249411E+00  9.55249411E+00
 -1.91049882E+01  0.00000000E+00  9.55249411E+00  9.55249411E+00 -1.91049882E+01
  0.00000000E+00  9.55249411E+00  9.55249411E+00 -1.91049882E+01  0.00000000E+00
  9.55249411E+00  9.55249411E+00 -1.91049882E+01  0.00000000E+00  9.55249411E+00
  9.55249411E+00 -1.91049882E+01  0.00000000E+00  9.55249411E+00  9.55249411E+00
 -1.91049882E+01  0.00000000E+00  9.55249411E+00  9.55249411E+00 -1.91049882E+01
  0.00000000E+00  9.55249411E+00  9.55249411E+00 -1.91049882E+01  0.00000000E+00
  9.55249411E+00  9.55249411E+00 -1.91049882E+01  0.00000000E+00  9.55249411E+00
  9.55249411E+00 -1.91049882E+01  0.00000000E+00  9.55249411E+00  9.55249411E+00
 -1.91049882E+01  0.00000000E+00  9.55249411E+00  9.55249411E+00 -1.91049882E+01
  0.00000000E+00  9.55249411E+00  9.55249411E+00 -1.91049882E+01  0.00000000E+00
  9.55249411E+00  9.55249411E+00 -1.91049882E+01  0.00000000E+00  9.55249411E+00
  9.55249411E+00 -1.91049882E+01  0.00000000E+00  9.55249411E+00  9.55249411E+00
 -1.91049882E+01  0.00000000E+00  9.55249411E+00  9.55249411E+00 -1.91049882E+01
  0.00000000E+00  9.55249411E+00  9.55249411E+00 -1.91049882E+01  0.00000000E+00
  9.55249411E+00  9.55249411E+00 -1.91049882E+01  0.00000000E+00  9.55249411E+00
  9.55249411E+00 -1.91049882E+01  0.00000000E+00  9.55249411E+00  9.55249411E+00
 -1.91049882E+01  0.00000000E+00  9.55249411E+00  9.55249411E+00 -1.91049882E+01
  0.00000000E+00  9.55249411E+00  9.55249411E+00 -1.91049882E+01  0.00000000E+00
  9.55249411E+00  9.55249411E+00 -1.91049882E+01  0.00000000E+00  9.55249411E+00
  9.55249411E+00 -1.91049882E+01  0.00000000E+00  9.55249411E+00  9.55249411E+00
 -1.91049882E+01  0.00000000E+00  9.55249411E+00  9.55249411E+00 -1.91049882E+01
  0.00000000E+00  9.55249411E+00  9.55249411E+00 -1.91049882E+01  0.00000000E+00
  9.55249411E+00  9.55249411E+00 -1.91049882E+01  0.00000000E+00  9.55249411E+00
  9.55249411E+00 -1.91049882E+01  0.00000000E+00  9.55249411E+00  9.55249411E+00
 -1.91049882E+01  0.00000000E+00  9.55249411E+00  9.55249411E+00 -1.91049882E+01
  0.00000000E+00  9.55249411E+00  9.55249411E+00 -1.91049882E+01  0.00000000E+00
  9.55249411E+00  9.55249411E+00 -1.91049882E+01  0.00000000E+00  9.55249411E+00
  9.55249411E+00 -1.91049882E+01  0.00000000E+00  9.55249411E+00  9.55249411E+00
 -1.91049882E+01  0.00000000E+00  9.55249411E+00  9.55249411E+00 -1.91049882E+01
  0.00000000E+00  9.55249411E+00  9.55249411E+00 -1.91049882E+01  0.00000000E+00
  9.55249411E+00  9.55249411E+00 -1.91049882E+01  0.00000000E+00  9.55249411E+00
  9.55249411E+00 -1.91049882E+01  0.00000000E+00  9.55249411E+00  9.55249411E+00
 -1.91049882E+01  0.00000000E+00  9.55249411E+00  9.55249411E+00 -1.91049882E+01
  0.00000000E+00  9.55249411E+00  9.55249411E+00 -1.91049882E+01  0.00000000E+00
  9.55249411E+00  9.55249411E+00 -1.91049882E+01  0.00000000E+00  9.55249411E+00
  9.55249411E+00 -1.91049882E+01  0.00000000E+00  9.55249411E+00  9.55249411E+00
 -1.91049882E+01  0.00000000E+00  9.55249411E+00  9.55249411E+00 -1.91049882E+01
  0.00000000E+00  9.55249411E+00  9.55249411E+00 -1.91049882E+01  0.00000000E+00
  9.55249411E+00  9.55249411E+00 -1.91049882E+01  0.00000000E+00  9.55249411E+00
  9.55249411E+00 -1.91049882E+01  0.00000000E+00  9.55249411E+00  9.55249411E+00
 -1.91049882E+01  0.00000000E+00  9.55249411E+00  9.55249411E+00 -1.91049882E+01
  0.00000000E+00  9.55249411E+00  9.55249411E+00 -1.91049882E+01  0.00000000E+00
  9.55249411E+00  9.55249411E+00 -1.91049882E+01  0.00000000E+00  9.55249411E+00
  9.55249411E+00 -1.91049882E+01  0.00000000E+00  9.55249411E+00  9.55249411E+00
 -1.91049882E+01  0.00000000E+00  9.55249411E+00  9.55249411E+00 -1.91049882E+01
  0.00000000E+00  9.55249411E+00  9.55249411E+00 -1.91049882E+01  0.00000000E+00
  9.55249411E+00  9.55249411E+00 -1.91049882E+01  0.00000000E+00  9.55249411E+00
  9.55249411E+00 -1.91049882E+01  0.00000000E+00  9.55249411E+00  9.55249411E+00
 -1.91049882E+01  0.00000000E+00  9.55249411E+00  9.55249411E+00 -1.91049882E+01
  0.00000000E+00  9.55249411E+00  9.55249411E+00 -1.91049882E+01  0.00000000E+00
  9.55249411E+00  9.55249411E+00 -1.91049882E+01  0.00000000E+00  9.55249411E+00
  9.55249411E+00 -1.91049882E+01  0.00000000E+00  9.55249411E+00  9.55249411E+00
 -1.91049882E+01  0.00000000E+00  9.55249411E+00  9.55249411E+00 -1.91049882E+01
  0.00000000E+00  9.55249411E+00  9.55249411E+00 -1.91049882E+01  0.00000000E+00
  9.55249411E+00  9.55249411E+00 -1.91049882E+01  0.00000000E+00  9.55249411E+00
  9.55249411E+00 -1.91049882E+01  0.00000000E+00  9.55249411E+00  9.55249411E+00
 -1.91049882E+01  0.00000000E+00  9.55249411E+00  9.55249411E+00 -1.91049882E+01
  0.00000000E+00  9.55249411E+00  9.55249411E+00 -1.91049882E+01  0.00000000E+00
  9.55249411E+00  9.55249411E+00 -1.91049882E+01  0.00000000E+00  9.55249411E+00
  9.55249411E+00 -1.91049882E+01  0.00000000E+00  9.55249411E+00  9.55249411E+00
 -1.91049882E+01  0.00000000E+00  9.55249411E+00  9.55249411E+00 -1.91049882E+01
  0.00000000E+00  9.55249411E+00  9.55249411E+00 -1.91049882E+01  0.00000000E+00
  9.55249411E+00  9.55249411E+00 -1.91049882E+01  0.00000000E+00  9.55249411E+00
  9.55249411E+00 -1.91049882E+01  0.00000000E+00  9.55249411E+00  9.55249411E+00
 -1.91049882E+01  0.00000000E+00  9.55249411E+00  9.55249411E+00 -1.91049882E+01
  0.00000000E+00  9.55249411E+00  9.55249411E+00 -1.91049882E+01  0.00000000E+00
  9.55249411E+00  9.55249411E+00 -1.91049882E+01  0.00000000E+00  9.55249411E+00
  9.55249411E+00 -1.91049882E+01  0.00000000E+00  9.55249411E+00  9.55249411E+00
 -1.91049882E+01  0.00000000E+00  9.55249411E+00  9.55249411E+00 -1.91049882E+01
  0.00000000E+00  9.55249411E+00  9.55249411E+00 -1.91049882E+01  0.00000000E+00
  9.55249411E+00  9.55249411E+00 -1.91049882E+01  0.00000000E+00  9.55249411E+00
  9.55249411E+00 -1.91049882E+01  0.00000000E+00  9.55249411E+00  9.55249411E+00
 -1.91049882E+01  0.00000000E+00  9.55249411E+00  9.55249411E+00 -1.91049882E+01
  0.00000000E+00  9.55249411E+00  9.55249411E+00 -1.91049882E+01  0.00000000E+00
  9.55249411E+00  9.55249411E+00 -1.91049882E+01  0.00000000E+00  9.55249411E+00
  9.55249411E+00 -1.91049882E+01  0.00000000E+00  9.55249411E+00  9.55249411E+00
 -1.91049882E+01  0.00000000E+00  9.55249411E+00  9.55249411E+00 -1.91049882E+01
  0.00000000E+00  9.55249411E+00  9.55249411E+00 -1.91049882E+01  0.00000000E+00
  9.55249411E+00  9.55249411E+00 -1.91049882E+01  0.00000000E+00  9.55249411E+00
  9.55249411E+00 -1.91049882E+01  0.00000000E+00  9.55249411E+00  9.55249411E+00
 -1.91049882E+01  0.00000000E+00  9.55249411E+00  9.55249411E+00 -1.91049882E+01
  0.00000000E+00  9.55249411E+00  9.55249411E+00 -1.91049882E+01  0.00000000E+00
  9.55249411E+00  9.55249411E+00 -1.91049882E+01  0.00000000E+00  9.55249411E+00
  9.55249411E+00 -1.91049882E+01  0.00000000E+00  9.55249411E+00  9.55249411E+00
 -1.91049882E+01  0.00000000E+00  9.55249411E+00  9.55249411E+00 -1.91049882E+01
  0.00000000E+00  9.55249411E+00  9.55249411E+00 -1.91049882E+01  0.00000000E+00
  9.55249411E+00  9.55249411E+00 -1.91049882E+01  0.00000000E+00  9.55249411E+00
  9.55249411E+00 -1.91049882E+01  0.00000000E+00  9.55249411E+00  9.55249411E+00
 -1.91049882E+01  0.00000000E+00  9.55249411E+00  9.55249411E+00 -1.91049882E+01
  0.00000000E+00  9.55249411E+00  9.55249411E+00 -1.91049882E+01  0.00000000E+00
  9.55249411E+00  9.55249411E+00 -1.91049882E+01  0.00000000E+00  9.55249411E+00
  9.55249411E+00 -1.91049882E+01  0.00000000E+00  9.55249411E+00  9.55249411E+00
 -1.91049882E+01  0.00000000E+00  9.55249411E+00  9.55249411E+00 -1.91049882E+01
  0.00000000E+00  9.55249411E+00  9.55249411E+00 -1.91049882E+01  0.00000000E+00
  9.55249411E+00  9.55249411E+00 -1.91049882E+01  0.00000000E+00  9.55249411E+00
  9.55249411E+00 -1.91049882E+01  0.00000000E+00  9.55249411E+00  9.55249411E+00
 -1.91049882E+01  0.00000000E+00  9.55249411E+00  9.55249411E+00 -1.91049882E+01
  0.00000000E+00  9.55249411E+00  9.55249411E+00 -1.91049882E+01  0.00000000E+00
  9.55249411E+00  9.55249411E+00 -1.91049882E+01  0.00000000E+00  9.55249411E+00
  9.55249411E+00 -1.91049882E+01  0.00000000E+00  9.55249411E+00  9.55249411E+00
 -1.91049882E+01  0.00000000E+00  9.55249411E+00  9.55249411E+00 -1.91049882E+01
  0.00000000E+00  9.55249411E+00  9.55249411E+00 -1.91049882E+01  0.00000000E+00
  9.55249411E+00  9.55249411E+00 -1.91049882E+01  0.00000000E+00  9.55249411E+00
  9.55249411E+00 -1.91049882E+01  0.00000000E+00  9.55249411E+00  9.55249411E+00
 -1.91049882E+01  0.00000000E+00  9.55249411E+00  9.55249411E+00 -1.91049882E+01
  0.00000000E+00  9.55249411E+00  9.55249411E+00 -1.91049882E+01  0.00000000E+00
  9.55249411E+00  9.55249411E+00 -1.91049882E+01  0.00000000E+00  9.55249411E+00
  9.55249411E+00 -1.91049882E+01  0.00000000E+00  9.55249411E+00  9.55249411E+00
 -1.91049882E+01  0.00000000E+00  9.55249411E+00  9.55249411E+00 -1.91049882E+01
  0.00000000E+00  9.55249411E+00  9.55249411E+00 -1.91049882E+01  0.00000000E+00
  9.55249411E+00  9.55249411E+00 -1.91049882E+01  0.00000000E+00  9.55249411E+00
  9.55249411E+00 -1.91049882E+01  0.00000000E+00  9.55249411E+00  9.55249411E+00
 -1.91049882E+01  0.00000000E+00  9.55249411E+00  9.55249411E+00 -1.91049882E+01
  0.00000000E+00  9.55249411E+00  9.55249411E+00 -1.91049882E+01  0.00000000E+00
  9.55249411E+00  9.55249411E+00 -1.91049882E+01  0.00000000E+00  9.55249411E+00
  9.55249411E+00 -1.91049882E+01  0.00000000E+00  9.55249411E+00  9.55249411E+00
 -1.91049882E+01  0.00000000E+00  9.55249411E+00  9.55249411E+00 -1.91049882E+01
  0.00000000E+00  9.55249411E+00  9.55249411E+00 -1.91049882E+01  0.00000000E+00
  9.55249411E+00  9.55249411E+00 -1.91049882E+01  0.00000000E+00  9.55249411E+00
  9.55249411E+00 -1.91049882E+01  0.00000000E+00  9.55249411E+00  9.55249411E+00
 -1.91049882E+01  0.00000000E+00  9.55249411E+00  9.55249411E+00 -1.91049882E+01
  0.00000000E+00  9.55249411E+00  9.55249411E+00 -1.91049882E+01  0.00000000E+00
  9.55249411E+00  9.55249411E+00 -1.91049882E+01  0.00000000E+00  9.55249411E+00
  9.55249411E+00 -1.91049882E+01  0.00000000E+00  9.55249411E+00  9.55249411E+00
 -1.91049882E+01  0.00000000E+00  9.55249411E+00  9.55249411E+00 -1.91049882E+01
  0.00000000E+00  9.55249411E+00  9.55249411E+00 -1.91049882E+01  0.00000000E+00
  9.55249411E+00  9.55249411E+00 -1.91049882E+01  0.00000000E+00  9.55249411E+00
  9.55249411E+00 -1.91049882E+01  0.00000000E+00  9.55249411E+00  9.55249411E+00
 -1.91049882E+01  0.00000000E+00  9.55249411E+00  9.55249411E+00 -1.91049882E+01
  0.00000000E+00  9.55249411E+00  9.55249411E+00 -1.91049882E+01  0.00000000E+00
  9.55249411E+00  9.55249411E+00 -1.91049882E+01  0.00000000E+00  9.55249411E+00
  9.55249411E+00 -1.91049882E+01  0.00000000E+00  9.55249411E+00  9.55249411E+00
 -1.91049882E+01  0.00000000E+00  9.55249411E+00  9.55249411E+00 -1.91049882E+01
  0.00000000E+00  9.55249411E+00  9.55249411E+00 -1.91049882E+01  0.00000000E+00
  9.55249411E+00  9.55249411E+00 -1.91049882E+01  0.00000000E+00  9.55249411E+00
  9.55249411E+00 -1.91049882E+01  0.00000000E+00  9.55249411E+00  9.55249411E+00
 -1.91049882E+01  0.00000000E+00  9.55249411E+00  9.55249411E+00 -1.91049882E+01
  0.00000000E+00  9.55249411E+00  9.55249411E+00 -1.91049882E+01  0.00000000E+00
  9.55249411E+00  9.55249411E+00 -1.91049882E+01  0.00000000E+00  9.55249411E+00
  9.55249411E+00 -1.91049882E+01  0.00000000E+00  9.55249411E+00  9.55249411E+00
 -1.91049882E+01  0.00000000E+00  9.55249411E+00  9.55249411E+00 -1.91049882E+01
  0.00000000E+00  9.55249411E+00  9.55249411E+00 -1.91049882E+01  0.00000000E+00
  9.55249411E+00  9.55249411E+00 -1.91049882E+01  0.00000000E+00  9.55249411E+00
  9.55249411E+00 -1.91049882E+01  0.00000000E+00  9.55249411E+00  9.55249411E+00
 -1.91049882E+01  0.00000000E+00  9.55249411E+00  9.55249411E+00 -1.91049882E+01
  0.00000000E+00  9.55249411E+00  9.55249411E+00 -1.91049882E+01  0.00000000E+00
  9.55249411E+00  9.55249411E+00 -1.91049882E+01  0.00000000E+00  9.55249411E+00
  9.55249411E+00 -1.91049882E+01  0.00000000E+00  9.55249411E+00  9.55249411E+00
 -1.91049882E+01  0.00000000E+00  9.55249411E+00  9.55249411E+00 -1.91049882E+01
  0.00000000E+00  9.55249411E+00  9.55249411E+00 -1.91049882E+01  0.00000000E+00
  9.55249411E+00  9.55249411E+00 -1.91049882E+01  0.00000000E+00  9.55249411E+00
  9.55249411E+00 -1.91049882E+01  0.00000000E+00  9.55249411E+00  9.55249411E+00
 -1.91049882E+01  0.00000000E+00  9.55249411E+00  9.55249411E+00 -1.91049882E+01
  0.00000000E+00  9.55249411E+00  9.55249411E+00 -1.91049882E+01  0.00000000E+00
  9.55249411E+00  9.55249411E+00 -1.91049882E+01  0.00000000E+00  9.55249411E+00
  9.55249411E+00 -1.91049882E+01  0.00000000E+00  9.55249411E+00  9.55249411E+00
 -1.91049882E+01  0.00000000E+00  9.55249411E+00  9.55249411E+00 -1.91049882E+01
  0.00000000E+00  9.55249411E+00  9.55249411E+00 -1.91049882E+01  0.00000000E+00
  9.55249411E+00  9.55249411E+00 -1.91049882E+01  0.00000000E+00  9.55249411E+00
  9.55249411E+00 -1.91049882E+01  0.00000000E+00  9.55249411E+00  9.55249411E+00
 -1.91049882E+01  0.00000000E+00  9.55249411E+00  9.55249411E+00 -1.91049882E+01
  0.00000000E+00  9.55249411E+00  9.55249411E+00 -1.91049882E+01  0.00000000E+00
  9.55249411E+00  9.55249411E+00 -1.91049882E+01  0.00000000E+00  9.55249411E+00
  9.55249411E+00 -1.91049882E+01  0.00000000E+00  9.55249411E+00  9.55249411E+00
 -1.91049882E+01  0.00000000E+00  9.55249411E+00  9.55249411E+00 -1.91049882E+01
  0.00000000E+00  9.55249411E+00  9.55249411E+00 -1.91049882E+01  0.00000000E+00
  9.55249411E+00  9.55249411E+00 -1.91049882E+01  0.00000000E+00  9.55249411E+00
  9.55249411E+00 -1.91049882E+01  0.00000000E+00  9.55249411E+00  9.55249411E+00
 -1.91049882E+01  0.00000000E+00  9.55249411E+00  9.55249411E+00 -1.91049882E+01
  0.00000000E+00  9.55249411E+00  9.55249411E+00 -1.91049882E+01  0.00000000E+00
  9.55249411E+00  9.55249411E+00 -1.91049882E+01  0.00000000E+00  9.55249411E+00
  9.55249411E+00 -1.91049882E+01  0.00000000E+00  9.55249411E+00  9.55249411E+00
 -1.91049882E+01  0.00000000E+00  9.55249411E+00  9.55249411E+00 -1.91049882E+01
  0.00000000E+00  9.55249411E+00  9.55249411E+00 -1.91049882E+01  0.00000000E+00
  9.55249411E+00  9.55249411E+00 -1.91049882E+01  0.00000000E+00  9.55249411E+00
  9.55249411E+00 -1.91049882E+01  0.00000000E+00  9.55249411E+00  9.55249411E+00
 -1.91049882E+01  0.00000000E+00  9.55249411E+00  9.55249411E+00 -1.91049882E+01
  0.00000000E+00  9.55249411E+00  9.55249411E+00 -1.91049882E+01  0.00000000E+00
  9.55249411E+00  9.55249411E+00 -1.91049882E+01  0.00000000E+00  9.55249411E+00
  9.55249411E+00 -1.91049882E+01  0.00000000E+00  9.55249411E+00  9.55249411E+00
 -1.91049882E+01  0.00000000E+00  9.55249411E+00  9.55249411E+00 -1.91049882E+01
  0.00000000E+00  9.55249411E+00  9.55249411E+00 -1.91049882E+01  0.00000000E+00
  9.55249411E+00  9.55249411E+00 -1.91049882E+01  0.00000000E+00  9.55249411E+00
  9.55249411E+00 -1.91049882E+01  0.00000000E+00  9.55249411E+00  9.55249411E+00
 -1.91049882E+01  0.00000000E+00  9.55249411E+00  9.55249411E+00 -1.91049882E+01
  0.00000000E+00  9.55249411E+00  9.55249411E+00 -1.91049882E+01  0.00000000E+00
  9.55249411E+00  9.55249411E+00 -1.91049882E+01  0.00000000E+00  9.55249411E+00
  9.55249411E+00 -1.91049882E+01  0.00000000E+00  9.55249411E+00  9.55249411E+00
 -1.91049882E+01  0.00000000E+00  9.55249411E+00  9.55249411E+00 -1.91049882E+01
  0.00000000E+00  9.55249411E+00  9.55249411E+00 -1.91049882E+01  0.00000000E+00
  9.55249411E+00  9.55249411E+00 -1.91049882E+01  0.00000000E+00  9.55249411E+00
  9.55249411E+00 -1.91049882E+01  0.00000000E+00  9.55249411E+00  9.55249411E+00
 -1.91049882E+01  0.00000000E+00  9.55249411E+00  9.55249411E+00 -1.91049882E+01
  0.00000000E+00  9.55249411E+00  9.55249411E+00 -1.91049882E+01  0.00000000E+00
  9.55249411E+00  9.55249411E+00 -1.91049882E+01  0.00000000E+00  9.55249411E+00
  9.55249411E+00 -1.91049882E+01  0.00000000E+00  9.55249411E+00  9.55249411E+00
 -1.91049882E+01  0.00000000E+00  9.55249411E+00  9.55249411E+00 -1.91049882E+01
  0.00000000E+00  9.55249411E+00  9.55249411E+00 -1.91049882E+01  0.00000000E+00
  9.55249411E+00  9.55249411E+00 -1.91049882E+01  0.00000000E+00  9.55249411E+00
  9.55249411E+00 -1.91049882E+01  0.00000000E+00  9.55249411E+00  9.55249411E+00
 -1.91049882E+01  0.00000000E+00  9.55249411E+00  9.55249411E+00 -1.91049882E+01
  0.00000000E+00  9.55249411E+00  9.55249411E+00 -1.91049882E+01  0.00000000E+00
  9.55249411E+00  9.55249411E+00 -1.91049882E+01  0.00000000E+00  9.55249411E+00
  9.55249411E+00 -1.91049882E+01  0.00000000E+00  9.55249411E+00  9.55249411E+00
 -1.91049882E+01  0.00000000E+00  9.55249411E+00  9.55249411E+00 -1.91049882E+01
  0.00000000E+00  9.55249411E+00  9.55249411E+00 -1.91049882E+01  0.00000000E+00
  9.55249411E+00  9.55249411E+00 -1.91049882E+01  0.00000000E+00  9.55249411E+00
  9.55249411E+00 -1.91049882E+01  0.00000000E+00  9.55249411E+00  9.55249411E+00
 -1.91049882E+01  0.00000000E+00  9.55249411E+00  9.55249411E+00 -1.91049882E+01
  0.00000000E+00  9.55249411E+00  9.55249411E+00 -1.91049882E+01  0.00000000E+00
  9.55249411E+00  9.55249411E+00 -1.91049882E+01  0.00000000E+00  9.55249411E+00
  9.55249411E+00 -1.91049882E+01  0.00000000E+00  9.55249411E+00  9.55249411E+00
 -1.91049882E+01  0.00000000E+00  9.55249411E+00  9.55249411E+00 -1.91049882E+01
  0.00000000E+00  9.55249411E+00  9.55249411E+00 -1.91049882E+01  0.00000000E+00
  9.55249411E+00  9.55249411E+00 -1.91049882E+01  0.00000000E+00  9.55249411E+00
  9.55249411E+00 -1.91049882E+01  0.00000000E+00  9.55249411E+00  9.55249411E+00
 -1.91049882E+01  0.00000000E+00  9.55249411E+00  9.55249411E+00 -1.91049882E+01
  0.00000000E+00  9.55249411E+00  9.55249411E+00 -1.91049882E+01  0.00000000E+00
  9.55249411E+00  9.55249411E+00 -1.91049882E+01  0.00000000E+00  9.55249411E+00
  9.55249411E+00 -1.91049882E+01  0.00000000E+00  9.55249411E+00  9.55249411E+00
 -1.91049882E+01  0.00000000E+00  9.55249411E+00  9.55249411E+00 -1.91049882E+01
  0.00000000E+00  9.55249411E+00  9.55249411E+00 -1.91049882E+01  0.00000000E+00
  9.55249411E+00  9.55249411E+00 -1.91049882E+01  0.00000000E+00  9.55249411E+00
  9.55249411E+00 -1.91049882E+01  0.00000000E+00  9.55249411E+00  9.55249411E+00
 -1.91049882E+01  0.00000000E+00  9.55249411E+00  9.55249411E+00 -1.91049882E+01
  0.00000000E+00  9.55249411E+00  9.55249411E+00 -1.91049882E+01  0.00000000E+00
  9.55249411E+00  9.55249411E+00 -1.91049882E+01  0.00000000E+00  9.55249411E+00
  9.55249411E+00 -1.91049882E+01  0.00000000E+00  9.55249411E+00  9.55249411E+00
 -1.91049882E+01  0.00000000E+00  9.55249411E+00  9.55249411E+00 -1.91049882E+01
  0.00000000E+00  9.55249411E+00  9.55249411E+00 -1.91049882E+01  0.00000000E+00
  9.55249411E+00  9.55249411E+00 -1.91049882E+01  0.00000000E+00  9.55249411E+00
  9.55249411E+00 -1.91049882E+01  0.00000000E+00  9.55249411E+00  9.55249411E+00
 -1.91049882E+01  0.00000000E+00  9.55249411E+00  9.55249411E+00 -1.91049882E+01
  0.00000000E+00  9.55249411E+00  9.55249411E+00 -1.91049882E+01  0.00000000E+00
  9.55249411E+00  9.55249411E+00 -1.91049882E+01  0.00000000E+00  9.55249411E+00
  9.55249411E+00 -1.91049882E+01  0.00000000E+00  9.55249411E+00  9.55249411E+00
 -1.91049882E+01  0.00000000E+00  9.55249411E+00  9.55249411E+00 -1.91049882E+01
  0.00000000E+00  9.55249411E+00  9.55249411E+00 -1.91049882E+01  0.00000000E+00
  9.55249411E+00  9.55249411E+00 -1.91049882E+01  0.00000000E+00  9.55249411E+00
  9.55249411E+00 -1.91049882E+01  0.00000000E+00  9.55249411E+00  9.55249411E+00
 -1.91049882E+01  0.00000000E+00  9.55249411E+00  9.55249411E+00 -1.91049882E+01
  0.00000000E+00  9.55249411E+00  9.55249411E+00 -1.91049882E+01  0.00000000E+00
  9.55249411E+00  9.55249411E+00 -1.91049882E+01  0.00000000E+00  9.55249411E+00
  9.55249411E+00 -1.91049882E+01  0.00000000E+00  9.55249411E+00  9.55249411E+00
 -1.91049882E+01  0.00000000E+00  9.55249411E+00  9.55249411E+00 -1.91049882E+01
  0.00000000E+00  9.55249411E+00  9.55249411E+00 -1.91049882E+01  0.00000000E+00
  9.55249411E+00  9.55249411E+00 -1.91049882E+01  0.00000000E+00  9.55249411E+00
  9.55249411E+00 -1.91049882E+01  0.00000000E+00  9.55249411E+00  9.55249411E+00
 -1.91049882E+01  0.00000000E+00  9.55249411E+00  9.55249411E+00 -1.91049882E+01
  0.00000000E+00  9.55249411E+00  9.55249411E+00 -1.91049882E+01  0.00000000E+00
  9.55249411E+00  9.55249411E+00 -1.91049882E+01  0.00000000E+00  9.55249411E+00
  9.55249411E+00 -1.91049882E+01  0.00000000E+00  9.55249411E+00  9.55249411E+00
 -1.91049882E+01  0.00000000E+00  9.55249411E+00  9.55249411E+00 -1.91049882E+01
  0.00000000E+00  9.55249411E+00  9.55249411E+00 -1.91049882E+01  0.00000000E+00
  9.55249411E+00  9.55249411E+00 -1.91049882E+01  0.00000000E+00  9.55249411E+00
  9.55249411E+00 -1.91049882E+01  0.00000000E+00  9.55249411E+00  9.55249411E+00
 -1.91049882E+01  0.00000000E+00  9.55249411E+00  9.55249411E+00 -1.91049882E+01
  0.00000000E+00  9.55249411E+00  9.55249411E+00 -1.91049882E+01  0.00000000E+00
  9.55249411E+00  9.55249411E+00 -1.91049882E+01  0.00000000E+00  9.55249411E+00
  9.55249411E+00 -1.91049882E+01  0.00000000E+00  9.55249411E+00  9.55249411E+00
 -1.91049882E+01  0.00000000E+00  9.55249411E+00  9.55249411E+00 -1.91049882E+01
  0.00000000E+00  9.55249411E+00  9.55249411E+00 -1.91049882E+01  0.00000000E+00
  9.55249411E+00  9.55249411E+00 -1.91049882E+01  0.00000000E+00  9.55249411E+00
  9.55249411E+00 -1.91049882E+01  0.00000000E+00  9.55249411E+00  9.55249411E+00
 -1.91049882E+01  0.00000000E+00  9.55249411E+00  9.55249411E+00 -1.91049882E+01
  0.00000000E+00  9.55249411E+00  9.55249411E+00 -1.91049882E+01  0.00000000E+00
  9.55249411E+00  9.55249411E+00 -1.91049882E+01  0.00000000E+00  9.55249411E+00
  9.55249411E+00 -1.91049882E+01  0.00000000E+00  9.55249411E+00  9.55249411E+00
 -1.91049882E+01  0.00000000E+00  9.55249411E+00  9.55249411E+00 -1.91049882E+01
  0.00000000E+00  9.55249411E+00  9.55249411E+00 -1.91049882E+01  0.00000000E+00
  9.55249411E+00  9.55249411E+00 -1.91049882E+01  0.00000000E+00  9.55249411E+00
  9.55249411E+00 -1.91049882E+01  0.00000000E+00  9.55249411E+00  9.55249411E+00
 -1.91049882E+01  0.00000000E+00  9.55249411E+00  9.55249411E+00 -1.91049882E+01
  0.00000000E+00  9.55249411E+00  9.55249411E+00 -1.91049882E+01  0.00000000E+00
  9.55249411E+00  9.55249411E+00 -1.91049882E+01  0.00000000E+00  9.55249411E+00
  9.55249411E+00 -1.91049882E+01  0.00000000E+00  9.55249411E+00  9.55249411E+00
 -1.91049882E+01  0.00000000E+00  9.55249411E+00  9.55249411E+00 -1.91049882E+01
  0.00000000E+00  9.55249411E+00  9.55249411E+00 -1.91049882E+01  0.00000000E+00
  9.55249411E+00  9.55249411E+00 -1.91049882E+01  0.00000000E+00  9.55249411E+00
  9.55249411E+00 -1.91049882E+01  0.00000000E+00  9.55249411E+00  9.55249411E+00
 -1.91049882E+01  0.00000000E+00  9.55249411E+00  9.55249411E+00 -1.91049882E+01
  0.00000000E+00  9.55249411E+00  9.55249411E+00 -1.91049882E+01  0.00000000E+00
  9.55249411E+00  9.55249411E+00 -1.91049882E+01  0.00000000E+00  9.55249411E+00
  9.55249411E+00 -1.91049882E+01  0.00000000E+00  9.55249411E+00  9.55249411E+00
 -1.91049882E+01  0.00000000E+00  9.55249411E+00  9.55249411E+00 -1.91049882E+01
  0.00000000E+00  9.55249411E+00  9.55249411E+00 -1.91049882E+01  0.00000000E+00
  9.55249411E+00  9.55249411E+00 -1.91049882E+01  0.00000000E+00  9.55249411E+00
  9.55249411E+00 -1.91049882E+01  0.00000000E+00  9.55249411E+00  9.55249411E+00
 -1.91049882E+01  0.00000000E+00  9.55249411E+00  9.55249411E+00 -1.91049882E+01
  0.00000000E+00  9.55249411E+00  9.55249411E+00 -1.91049882E+01  0.00000000E+00
  9.55249411E+00  9.55249411E+00 -1.91049882E+01  0.00000000E+00  9.55249411E+00
  9.55249411E+00 -1.91049882E+01  0.00000000E+00  9.55249411E+00  9.55249411E+00
 -1.91049882E+01  0.00000000E+00  9.55249411E+00  9.55249411E+00 -1.91049882E+01
  0.00000000E+00  9.55249411E+00  9.55249411E+00 -1.91049882E+01  0.00000000E+00
  9.55249411E+00  9.55249411E+00 -1.91049882E+01  0.00000000E+00  9.55249411E+00
  9.55249411E+00 -1.91049882E+01  0.00000000E+00  9.55249411E+00  9.55249411E+00
 -1.91049882E+01  0.00000000E+00  9.55249411E+00  9.55249411E+00 -1.91049882E+01
  0.00000000E+00  9.55249411E+00  9.55249411E+00 -1.91049882E+01  0.00000000E+00
  9.55249411E+00  9.55249411E+00 -1.91049882E+01  0.00000000E+00  9.55249411E+00
  9.55249411E+00 -1.91049882E+01  0.00000000E+00  9.55249411E+00  9.55249411E+00
 -1.91049882E+01  0.00000000E+00  9.55249411E+00  9.55249411E+00 -1.91049882E+01
  0.00000000E+00  9.55249411E+00  9.55249411E+00 -1.91049882E+01  0.00000000E+00
  9.55249411E+00  9.55249411E+00 -1.91049882E+01  0.00000000E+00  9.55249411E+00
  9.55249411E+00 -1.91049882E+01  0.00000000E+00  9.55249411E+00  9.55249411E+00
 -1.91049882E+01  0.00000000E+00  9.55249411E+00  9.55249411E+00 -1.91049882E+01
  0.00000000E+00  9.55249411E+00  9.55249411E+00 -1.91049882E+01  0.00000000E+00
  9.55249411E+00  9.55249411E+00 -1.91049882E+01  0.00000000E+00  9.55249411E+00
  9.55249411E+00 -1.91049882E+01  0.00000000E+00  9.55249411E+00  9.55249411E+00
 -1.91049882E+01  0.00000000E+00  9.55249411E+00  9.55249411E+00 -1.91049882E+01
  0.00000000E+00  9.55249411E+00  9.55249411E+00 -1.91049882E+01  0.00000000E+00
  9.55249411E+00  9.55249411E+00 -1.91049882E+01  0.00000000E+00  9.55249411E+00
  9.55249411E+00 -1.91049882E+01  0.00000000E+00  9.55249411E+00  9.55249411E+00
 -1.91049882E+01  0.00000000E+00  9.55249411E+00  9.55249411E+00 -1.91049882E+01
  0.00000000E+00  9.55249411E+00  9.55249411E+00 -1.91049882E+01  0.00000000E+00
  9.55249411E+00  9.55249411E+00 -1.91049882E+01  0.00000000E+00  9.55249411E+00
  9.55249411E+00 -1.91049882E+01  0.00000000E+00  9.55249411E+00  9.55249411E+00
 -1.91049882E+01  0.00000000E+00  9.55249411E+00  9.55249411E+00 -1.91049882E+01
  0.00000000E+00  9.55249411E+00  9.55249411E+00 -1.91049882E+01  0.00000000E+00
  9.55249411E+00  9.55249411E+00 -1.91049882E+01  0.00000000E+00  9.55249411E+00
  9.55249411E+00 -1.91049882E+01  0.00000000E+00  9.55249411E+00  9.55249411E+00
 -1.91049882E+01  0.00000000E+00  9.55249411E+00  9.55249411E+00 -1.91049882E+01
  0.00000000E+00  9.55249411E+00  9.55249411E+00 -1.91049882E+01  0.00000000E+00
  9.55249411E+00  9.55249411E+00 -1.91049882E+01  0.00000000E+00  9.55249411E+00
  9.55249411E+00 -1.91049882E+01  0.00000000E+00  9.55249411E+00  9.55249411E+00
 -1.91049882E+01  0.00000000E+00  9.55249411E+00  9.55249411E+00 -1.91049882E+01
  0.00000000E+00  9.55249411E+00  9.55249411E+00 -1.91049882E+01  0.00000000E+00
  9.55249411E+00  9.55249411E+00 -1.91049882E+01  0.00000000E+00  9.55249411E+00
  9.55249411E+00 -1.91049882E+01  0.00000000E+00  9.55249411E+00  9.55249411E+00
 -1.91049882E+01  0.00000000E+00  9.55249411E+00  9.55249411E+00 -1.91049882E+01
  0.00000000E+00  9.55249411E+00  9.55249411E+00 -1.91049882E+01  0.00000000E+00
  9.55249411E+00  9.55249411E+00 -1.91049882E+01  0.00000000E+00  9.55249411E+00
  9.55249411E+00 -1.91049882E+01  0.00000000E+00  9.55249411E+00  9.55249411E+00
 -1.91049882E+01  0.00000000E+00  9.55249411E+00  9.55249411E+00 -1.91049882E+01
  0.00000000E+00  9.55249411E+00  9.55249411E+00 -1.91049882E+01  0.00000000E+00
  9.55249411E+00  9.55249411E+00 -1.91049882E+01  0.00000000E+00  9.55249411E+00
  9.55249411E+00 -1.91049882E+01  0.00000000E+00  9.55249411E+00  9.55249411E+00
 -1.91049882E+01  0.00000000E+00  9.55249411E+00  9.55249411E+00 -1.91049882E+01
  0.00000000E+00  9.55249411E+00  9.55249411E+00 -1.91049882E+01  0.00000000E+00
  9.55249411E+00  9.55249411E+00 -1.91049882E+01  0.00000000E+00  9.55249411E+00
  9.55249411E+00 -1.91049882E+01  0.00000000E+00  9.55249411E+00  9.55249411E+00
 -1.91049882E+01  0.00000000E+00  9.55249411E+00  9.55249411E+00 -1.91049882E+01
  0.00000000E+00  9.55249411E+00  9.55249411E+00 -1.91049882E+01  0.00000000E+00
  9.55249411E+00  9.55249411E+00 -1.91049882E+01  0.00000000E+00  9.55249411E+00
  9.55249411E+00 -1.91049882E+01  0.00000000E+00  9.55249411E+00  9.55249411E+00
 -1.91049882E+01  0.00000000E+00  9.55249411E+00  9.55249411E+00 -1.91049882E+01
  0.00000000E+00  9.55249411E+00  9.55249411E+00 -1.91049882E+01  0.00000000E+00
  9.55249411E+00  9.55249411E+00 -1.91049882E+01  0.00000000E+00  9.55249411E+00
  9.55249411E+00 -1.91049882E+01  0.00000000E+00  9.55249411E+00  9.55249411E+00
 -1.91049882E+01  0.00000000E+00  9.55249411E+00  9.55249411E+00 -1.91049882E+01
  0.00000000E+00  9.55249411E+00  9.55249411E+00 -1.91049882E+01  0.00000000E+00
  9.55249411E+00  9.55249411E+00 -1.91049882E+01  0.00000000E+00  9.55249411E+00
  9.55249411E+00 -1.91049882E+01  0.00000000E+00  9.55249411E+00  9.55249411E+00
 -1.91049882E+01  0.00000000E+00  9.55249411E+00  9.55249411E+00 -1.91049882E+01
  0.00000000E+00  9.55249411E+00  9.55249411E+00 -1.91049882E+01  0.00000000E+00
  9.55249411E+00  9.55249411E+00 -1.91049882E+01  0.00000000E+00  9.55249411E+00
  9.55249411E+00 -1.91049882E+01  0.00000000E+00  9.55249411E+00  9.55249411E+00
 -1.91049882E+01  0.00000000E+00  9.55249411E+00  9.55249411E+00 -1.91049882E+01
  0.00000000E+00  9.55249411E+00  9.55249411E+00 -1.91049882E+01  0.00000000E+00
  9.55249411E+00  9.55249411E+00 -1.91049882E+01  0.00000000E+00  9.55249411E+00
  9.55249411E+00 -1.91049882E+01  0.00000000E+00  9.55249411E+00  9.55249411E+00
 -1.91049882E+01  0.00000000E+00  9.55249411E+00  9.55249411E+00 -1.91049882E+01
  0.00000000E+00  9.55249411E+00  9.55249411E+00 -1.91049882E+01  0.00000000E+00
  9.55249411E+00  9.55249411E+00 -1.91049882E+01  0.00000000E+00  9.55249411E+00
  9.55249411E+00 -1.91049882E+01  0.00000000E+00  9.55249411E+00  9.55249411E+00
 -1.91049882E+01  0.00000000E+00  9.55249411E+00  9.55249411E+00 -1.91049882E+01
  0.00000000E+00  9.55249411E+00  9.55249411E+00 -1.91049882E+01  0.00000000E+00
  9.55249411E+00  9.55249411E+00 -1.91049882E+01  0.00000000E+00  9.55249411E+00
  9.55249411E+00 -1.91049882E+01  0.00000000E+00  9.55249411E+00  9.55249411E+00
 -1.91049882E+01  0.00000000E+00  9.55249411E+00  9.55249411E+00 -1.91049882E+01
  0.00000000E+00  9.55249411E+00  9.55249411E+00 -1.91049882E+01  0.00000000E+00
  9.55249411E+00  9.55249411E+00 -1.91049882E+01  0.00000000E+00  9.55249411E+00
  9.55249411E+00 -1.91049882E+01  0.00000000E+00  9.55249411E+00  9.55249411E+00
 -1.91049882E+01  0.00000000E+00  9.55249411E+00  9.55249411E+00 -1.91049882E+01
  0.00000000E+00  9.55249411E+00  9.55249411E+00 -1.91049882E+01  0.00000000E+00
  9.55249411E+00  9.55249411E+00 -1.91049882E+01  0.00000000E+00  9.55249411E+00
  9.55249411E+00 -1.91049882E+01  0.00000000E+00  9.55249411E+00  9.55249411E+00
 -1.91049882E+01  0.00000000E+00  9.55249411E+00  9.55249411E+00 -1.91049882E+01
  0.00000000E+00  9.55249411E+00  9.55249411E+00 -1.91049882E+01  0.00000000E+00
  9.55249411E+00  9.55249411E+00 -1.91049882E+01  0.00000000E+00  9.55249411E+00
  9.55249411E+00 -1.91049882E+01  0.00000000E+00  9.55249411E+00  9.55249411E+00
 -1.91049882E+01  0.00000000E+00  9.55249411E+00  9.55249411E+00 -1.91049882E+01
  0.00000000E+00  9.55249411E+00  9.55249411E+00 -1.91049882E+01  0.00000000E+00
  9.55249411E+00  9.55249411E+00 -1.91049882E+01  0.00000000E+00  9.55249411E+00
  9.55249411E+00 -1.91049882E+01  0.00000000E+00  9.55249411E+00  9.55249411E+00
 -1.91049882E+01  0.00000000E+00  9.55249411E+00  9.55249411E+00 -1.91049882E+01
  0.00000000E+00  9.55249411E+00  9.55249411E+00 -1.91049882E+01  0.00000000E+00
  9.55249411E+00  9.55249411E+00 -1.91049882E+01  0.00000000E+00  9.55249411E+00
  9.55249411E+00 -1.91049882E+01  0.00000000E+00  9.55249411E+00  9.55249411E+00
 -1.91049882E+01  0.00000000E+00  9.55249411E+00  9.55249411E+00 -1.91049882E+01
  0.00000000E+00  9.55249411E+00  9.55249411E+00 -1.91049882E+01  0.00000000E+00
  9.55249411E+00  9.55249411E+00 -1.91049882E+01  0.00000000E+00  9.55249411E+00
  9.55249411E+00 -1.91049882E+01  0.00000000E+00  9.55249411E+00  9.55249411E+00
 -1.91049882E+01  0.00000000E+00  9.55249411E+00  9.55249411E+00 -1.91049882E+01
  0.00000000E+00  9.55249411E+00  9.55249411E+00 -1.91049882E+01  0.00000000E+00
  9.55249411E+00  9.55249411E+00 -1.91049882E+01  0.00000000E+00  9.55249411E+00
  9.55249411E+00 -1.91049882E+01  0.00000000E+00  9.55249411E+00  9.55249411E+00
 -1.91049882E+01  0.00000000E+00  9.55249411E+00  9.55249411E+00 -1.91049882E+01
  0.00000000E+00  9.55249411E+00  9.55249411E+00 -1.91049882E+01  0.00000000E+00
  9.55249411E+00  9.55249411E+00 -1.91049882E+01  0.00000000E+00  9.55249411E+00
  9.55249411E+00 -1.91049882E+01  0.00000000E+00  9.55249411E+00  9.55249411E+00
 -1.91049882E+01  0.00000000E+00  9.55249411E+00  9.55249411E+00 -1.91049882E+01
  0.00000000E+00  9.55249411E+00  9.55249411E+00 -1.91049882E+01  0.00000000E+00
  9.55249411E+00  9.55249411E+00 -1.91049882E+01  0.00000000E+00  9.55249411E+00
  9.55249411E+00 -1.91049882E+01  0.00000000E+00  9.55249411E+00  9.55249411E+00
 -1.91049882E+01  0.00000000E+00  9.55249411E+00  9.55249411E+00 -1.91049882E+01
  0.00000000E+00  9.55249411E+00  9.55249411E+00 -1.91049882E+01  0.00000000E+00
  9.55249411E+00  9.55249411E+00 -1.91049882E+01  0.00000000E+00  9.55249411E+00
  9.55249411E+00 -1.91049882E+01  0.00000000E+00  9.55249411E+00  9.55249411E+00
 -1.91049882E+01  0.00000000E+00  9.55249411E+00  9.55249411E+00 -1.91049882E+01
  0.00000000E+00  9.55249411E+00  9.55249411E+00 -1.91049882E+01  0.00000000E+00
  9.55249411E+00  9.55249411E+00 -1.91049882E+01  0.00000000E+00  9.55249411E+00
  9.55249411E+00 -1.91049882E+01  0.00000000E+00  9.55249411E+00  9.55249411E+00
 -1.91049882E+01  0.00000000E+00  9.55249411E+00  9.55249411E+00 -1.91049882E+01
  0.00000000E+00  9.55249411E+00  9.55249411E+00 -1.91049882E+01  0.00000000E+00
  9.55249411E+00  9.55249411E+00 -1.91049882E+01  0.00000000E+00  9.55249411E+00
  9.55249411E+00 -1.91049882E+01  0.00000000E+00  9.55249411E+00  9.55249411E+00
 -1.91049882E+01  0.00000000E+00  9.55249411E+00  9.55249411E+00 -1.91049882E+01
  0.00000000E+00  9.55249411E+00  9.55249411E+00 -1.91049882E+01  0.00000000E+00
  9.55249411E+00  9.55249411E+00 -1.91049882E+01  0.00000000E+00  9.55249411E+00
  9.55249411E+00 -1.91049882E+01  0.00000000E+00  9.55249411E+00  9.55249411E+00
 -1.91049882E+01  0.00000000E+00  9.55249411E+00  9.55249411E+00 -1.91049882E+01
  0.00000000E+00  9.55249411E+00  9.55249411E+00 -1.91049882E+01  0.00000000E+00
  9.55249411E+00  9.55249411E+00 -1.91049882E+01  0.00000000E+00  9.55249411E+00
  9.55249411E+00 -1.91049882E+01  0.00000000E+00  9.55249411E+00  9.55249411E+00
 -1.91049882E+01  0.00000000E+00  9.55249411E+00  9.55249411E+00 -1.91049882E+01
  0.00000000E+00  9.55249411E+00  9.55249411E+00 -1.91049882E+01  0.00000000E+00
  9.55249411E+00  9.55249411E+00 -1.91049882E+01  0.00000000E+00  9.55249411E+00
  9.55249411E+00 -1.91049882E+01  0.00000000E+00  9.55249411E+00  9.55249411E+00
 -1.91049882E+01  0.00000000E+00  9.55249411E+00  9.55249411E+00 -1.91049882E+01
  0.00000000E+00  9.55249411E+00  9.55249411E+00 -1.91049882E+01  0.00000000E+00
  9.55249411E+00  9.55249411E+00 -1.91049882E+01  0.00000000E+00  9.55249411E+00
  9.55249411E+00 -1.91049882E+01  0.00000000E+00  9.55249411E+00  9.55249411E+00
 -1.91049882E+01  0.00000000E+00  9.55249411E+00  9.55249411E+00 -1.91049882E+01
  0.00000000E+00  9.55249411E+00  9.55249411E+00 -1.91049882E+01  0.00000000E+00
  9.55249411E+00  9.55249411E+00 -1.91049882E+01  0.00000000E+00  9.55249411E+00
  9.55249411E+00 -1.91049882E+01  0.00000000E+00  9.55249411E+00  9.55249411E+00
 -1.91049882E+01  0.00000000E+00  9.55249411E+00  9.55249411E+00 -1.91049882E+01
  0.00000000E+00  9.55249411E+00  9.55249411E+00 -1.91049882E+01  0.00000000E+00
  9.55249411E+00  9.55249411E+00 -1.91049882E+01  0.00000000E+00  9.55249411E+00
  9.55249411E+00 -1.91049882E+01  0.00000000E+00  9.55249411E+00  9.55249411E+00
 -1.91049882E+01  0.00000000E+00  9.55249411E+00  9.55249411E+00 -1.91049882E+01
  0.00000000E+00  9.55249411E+00  9.55249411E+00 -1.91049882E+01  0.00000000E+00
  9.55249411E+00  9.55249411E+00 -1.91049882E+01  0.00000000E+00  9.55249411E+00
  9.55249411E+00 -1.91049882E+01  0.00000000E+00  9.55249411E+00  9.55249411E+00
 -1.91049882E+01  0.00000000E+00  9.55249411E+00  9.55249411E+00 -1.91049882E+01
  0.00000000E+00  9.55249411E+00  9.55249411E+00 -1.91049882E+01  0.00000000E+00
  9.55249411E+00  9.55249411E+00 -1.91049882E+01  0.00000000E+00  9.55249411E+00
  9.55249411E+00 -1.91049882E+01  0.00000000E+00  9.55249411E+00  9.55249411E+00
 -1.91049882E+01  0.00000000E+00  9.55249411E+00  9.55249411E+00 -1.91049882E+01
  0.00000000E+00  9.55249411E+00  9.55249411E+00 -1.91049882E+01  0.00000000E+00
  9.55249411E+00  9.55249411E+00 -1.91049882E+01  0.00000000E+00  9.55249411E+00
  9.55249411E+00 -1.91049882E+01  0.00000000E+00  9.55249411E+00  9.55249411E+00
 -1.91049882E+01  0.00000000E+00  9.55249411E+00  9.55249411E+00 -1.91049882E+01
  0.00000000E+00  9.55249411E+00  9.55249411E+00 -1.91049882E+01  0.00000000E+00
  9.55249411E+00  9.55249411E+00 -1.91049882E+01  0.00000000E+00  9.55249411E+00
  9.55249411E+00 -1.91049882E+01  0.00000000E+00  9.55249411E+00  9.55249411E+00
 -1.91049882E+01  0.00000000E+00  9.55249411E+00  9.55249411E+00 -1.91049882E+01
  0.00000000E+00  9.55249411E+00  9.55249411E+00 -1.91049882E+01  0.00000000E+00
  9.55249411E+00  9.55249411E+00 -1.91049882E+01  0.00000000E+00  9.55249411E+00
  9.55249411E+00 -1.91049882E+01  0.00000000E+00  9.55249411E+00  9.55249411E+00
 -1.91049882E+01  0.00000000E+00  9.55249411E+00  9.55249411E+00 -1.91049882E+01
  0.00000000E+00  9.55249411E+00  9.55249411E+00 -1.91049882E+01  0.00000000E+00
  9.55249411E+00  9.55249411E+00 -1.91049882E+01  0.00000000E+00  9.55249411E+00
  9.55249411E+00 -1.91049882E+01  0.00000000E+00  9.55249411E+00  9.55249411E+00
 -1.91049882E+01  0.00000000E+00  9.55249411E+00  9.55249411E+00 -1.91049882E+01
  0.00000000E+00  9.55249411E+00  9.55249411E+00 -1.91049882E+01  0.00000000E+00
  9.55249411E+00  9.55249411E+00 -1.91049882E+01  0.00000000E+00  9.55249411E+00
  9.55249411E+00 -1.91049882E+01  0.00000000E+00  9.55249411E+00  9.55249411E+00
 -1.91049882E+01  0.00000000E+00  9.55249411E+00  9.55249411E+00 -1.91049882E+01
  0.00000000E+00  9.55249411E+00  9.55249411E+00 -1.91049882E+01  0.00000000E+00
  9.55249411E+00  9.55249411E+00 -1.91049882E+01  0.00000000E+00  9.55249411E+00
  9.55249411E+00 -1.91049882E+01  0.00000000E+00  9.55249411E+00  9.55249411E+00
 -1.91049882E+01  0.00000000E+00  9.55249411E+00  9.55249411E+00 -1.91049882E+01
  0.00000000E+00  9.55249411E+00  9.55249411E+00 -1.91049882E+01  0.00000000E+00
  9.55249411E+00  9.55249411E+00 -1.91049882E+01  0.00000000E+00  9.55249411E+00
  9.55249411E+00 -1.91049882E+01  0.00000000E+00  9.55249411E+00  9.55249411E+00
 -1.91049882E+01  0.00000000E+00  9.55249411E+00  9.55249411E+00 -1.91049882E+01
  0.00000000E+00  9.55249411E+00  9.55249411E+00 -1.91049882E+01  0.00000000E+00
  9.55249411E+00  9.55249411E+00 -1.91049882E+01  0.00000000E+00  9.55249411E+00
  9.55249411E+00 -1.91049882E+01  0.00000000E+00  9.55249411E+00  9.55249411E+00
 -1.91049882E+01  0.00000000E+00  9.55249411E+00  9.55249411E+00 -1.91049882E+01
  0.00000000E+00  9.55249411E+00  9.55249411E+00 -1.91049882E+01  0.00000000E+00
  9.55249411E+00  9.55249411E+00 -1.91049882E+01  0.00000000E+00  9.55249411E+00
  9.55249411E+00 -1.91049882E+01  0.00000000E+00  9.55249411E+00  9.55249411E+00
 -1.91049882E+01  0.00000000E+00  9.55249411E+00  9.55249411E+00 -1.91049882E+01
  0.00000000E+00  9.55249411E+00  9.55249411E+00 -1.91049882E+01  0.00000000E+00
  9.55249411E+00  9.55249411E+00 -1.91049882E+01  0.00000000E+00  9.55249411E+00
  9.55249411E+00 -1.91049882E+01  0.00000000E+00  9.55249411E+00  9.55249411E+00
 -1.91049882E+01  0.00000000E+00  9.55249411E+00  9.55249411E+00 -1.91049882E+01
  0.00000000E+00  9.55249411E+00  9.55249411E+00 -1.91049882E+01  0.00000000E+00
  9.55249411E+00  9.55249411E+00 -1.91049882E+01  0.00000000E+00  9.55249411E+00
  9.55249411E+00 -1.91049882E+01  0.00000000E+00  9.55249411E+00  9.55249411E+00
 -1.91049882E+01  0.00000000E+00  9.55249411E+00  9.55249411E+00 -1.91049882E+01
  0.00000000E+00  9.55249411E+00  9.55249411E+00 -1.91049882E+01  0.00000000E+00
  9.55249411E+00  9.55249411E+00 -1.91049882E+01  0.00000000E+00  9.55249411E+00
  9.55249411E+00 -1.91049882E+01  0.00000000E+00  9.55249411E+00  9.55249411E+00
 -1.91049882E+01  0.00000000E+00  9.55249411E+00  9.55249411E+00 -1.91049882E+01
  0.00000000E+00  9.55249411E+00  9.55249411E+00 -1.91049882E+01  0.00000000E+00
  9.55249411E+00  9.55249411E+00 -1.91049882E+01  0.00000000E+00  9.55249411E+00
  9.55249411E+00 -1.91049882E+01  0.00000000E+00  9.55249411E+00  9.55249411E+00
 -1.91049882E+01  0.00000000E+00  9.55249411E+00  9.55249411E+00 -1.91049882E+01
  0.00000000E+00  9.55249411E+00  9.55249411E+00 -1.91049882E+01  0.00000000E+00
  9.55249411E+00  9.55249411E+00 -1.91049882E+01  0.00000000E+00  9.55249411E+00
  9.55249411E+00 -1.91049882E+01  0.00000000E+00  9.55249411E+00  9.55249411E+00
 -1.91049882E+01  0.00000000E+00  9.55249411E+00  9.55249411E+00 -1.91049882E+01
  0.00000000E+00  9.55249411E+00  9.55249411E+00 -1.91049882E+01  0.00000000E+00
  9.55249411E+00  9.55249411E+00 -1.91049882E+01  0.00000000E+00  9.55249411E+00
  9.55249411E+00 -1.91049882E+01  0.00000000E+00  9.55249411E+00  9.55249411E+00
 -1.91049882E+01  0.00000000E+00  9.55249411E+00  9.55249411E+00 -1.91049882E+01
  0.00000000E+00  9.55249411E+00  9.55249411E+00 -1.91049882E+01  0.00000000E+00
  9.55249411E+00  9.55249411E+00 -1.91049882E+01  0.00000000E+00  9.55249411E+00
  9.55249411E+00 -1.91049882E+01  0.00000000E+00  9.55249411E+00  9.55249411E+00
 -1.91049882E+01  0.00000000E+00  9.55249411E+00  9.55249411E+00 -1.91049882E+01
  0.00000000E+00  9.55249411E+00  9.55249411E+00 -1.91049882E+01  0.00000000E+00
  9.55249411E+00  9.55249411E+00 -1.91049882E+01  0.00000000E+00  9.55249411E+00
  9.55249411E+00 -1.91049882E+01  0.00000000E+00  9.55249411E+00  9.55249411E+00
 -1.91049882E+01  0.00000000E+00  9.55249411E+00  9.55249411E+00 -1.91049882E+01
  0.00000000E+00  9.55249411E+00  9.55249411E+00 -1.91049882E+01  0.00000000E+00
  9.55249411E+00  9.55249411E+00 -1.91049882E+01  0.00000000E+00  9.55249411E+00
  9.55249411E+00 -1.91049882E+01  0.00000000E+00  9.55249411E+00  9.55249411E+00
 -1.91049882E+01  0.00000000E+00  9.55249411E+00  9.55249411E+00 -1.91049882E+01
  0.00000000E+00  9.55249411E+00  9.55249411E+00 -1.91049882E+01  0.00000000E+00
  9.55249411E+00  9.55249411E+00 -1.91049882E+01  0.00000000E+00  9.55249411E+00
  9.55249411E+00 -1.91049882E+01  0.00000000E+00  9.55249411E+00  9.55249411E+00
 -1.91049882E+01  0.00000000E+00  9.55249411E+00  9.55249411E+00 -1.91049882E+01
  0.00000000E+00  9.55249411E+00  9.55249411E+00 -1.91049882E+01  0.00000000E+00
  9.55249411E+00  9.55249411E+00 -1.91049882E+01  0.00000000E+00  9.55249411E+00
  9.55249411E+00 -1.91049882E+01  0.00000000E+00  9.55249411E+00  9.55249411E+00
 -1.91049882E+01  0.00000000E+00  9.55249411E+00  9.55249411E+00 -1.91049882E+01
  0.00000000E+00  9.55249411E+00  9.55249411E+00 -1.91049882E+01  0.00000000E+00
  9.55249411E+00  9.55249411E+00 -1.91049882E+01  0.00000000E+00  9.55249411E+00
  9.55249411E+00 -1.91049882E+01  0.00000000E+00  9.55249411E+00  9.55249411E+00
 -1.91049882E+01  0.00000000E+00  9.55249411E+00  9.55249411E+00 -1.91049882E+01
  0.00000000E+00  9.55249411E+00  9.55249411E+00 -1.91049882E+01  0.00000000E+00
  9.55249411E+00  9.55249411E+00 -1.91049882E+01  0.00000000E+00  9.55249411E+00
  9.55249411E+00 -1.91049882E+01  0.00000000E+00  9.55249411E+00  9.55249411E+00
 -1.91049882E+01  0.00000000E+00  9.55249411E+00  9.55249411E+00 -1.91049882E+01
  0.00000000E+00  9.55249411E+00  9.55249411E+00 -1.91049882E+01  0.00000000E+00
  9.55249411E+00  9.55249411E+00 -1.91049882E+01  0.00000000E+00  9.55249411E+00
  9.55249411E+00 -1.91049882E+01  0.00000000E+00  9.55249411E+00  9.55249411E+00
 -1.91049882E+01  0.00000000E+00  9.55249411E+00  9.55249411E+00 -1.91049882E+01
  0.00000000E+00  9.55249411E+00  9.55249411E+00 -1.91049882E+01  0.00000000E+00
  9.55249411E+00  9.55249411E+00 -1.91049882E+01  0.00000000E+00  9.55249411E+00
  9.55249411E+00 -1.91049882E+01  0.00000000E+00  9.55249411E+00  9.55249411E+00
 -1.91049882E+01  0.00000000E+00  9.55249411E+00  9.55249411E+00 -1.91049882E+01
  0.00000000E+00  9.55249411E+00  9.55249411E+00 -1.91049882E+01  0.00000000E+00
  9.55249411E+00  9.55249411E+00 -1.91049882E+01  0.00000000E+00  9.55249411E+00
  9.55249411E+00 -1.91049882E+01  0.00000000E+00  9.55249411E+00  9.55249411E+00
 -1.91049882E+01  0.00000000E+00  9.55249411E+00  9.55249411E+00 -1.91049882E+01
  0.00000000E+00  9.55249411E+00  9.55249411E+00 -1.91049882E+01  0.00000000E+00
  9.55249411E+00  9.55249411E+00 -1.91049882E+01  0.00000000E+00  9.55249411E+00
  9.55249411E+00 -1.91049882E+01  0.00000000E+00  9.55249411E+00  9.55249411E+00
 -1.91049882E+01  0.00000000E+00  9.55249411E+00  9.55249411E+00 -1.91049882E+01
  0.00000000E+00  9.55249411E+00  9.55249411E+00 -1.91049882E+01  0.00000000E+00
  9.55249411E+00  9.55249411E+00 -1.91049882E+01  0.00000000E+00  9.55249411E+00
  9.55249411E+00 -1.91049882E+01  0.00000000E+00  9.55249411E+00  9.55249411E+00
 -1.91049882E+01  0.00000000E+00  9.55249411E+00  9.55249411E+00 -1.91049882E+01
  0.00000000E+00  9.55249411E+00  9.55249411E+00 -1.91049882E+01  0.00000000E+00
  9.55249411E+00  9.55249411E+00 -1.91049882E+01  0.00000000E+00  9.55249411E+00
  9.55249411E+00 -1.91049882E+01  0.00000000E+00  9.55249411E+00  9.55249411E+00
 -1.91049882E+01  0.00000000E+00  9.55249411E+00  9.55249411E+00 -1.91049882E+01
  0.00000000E+00  9.55249411E+00  9.55249411E+00 -1.91049882E+01  0.00000000E+00
  9.55249411E+00  9.55249411E+00 -1.91049882E+01  0.00000000E+00  9.55249411E+00
  9.55249411E+00 -1.91049882E+01  0.00000000E+00  9.55249411E+00  9.55249411E+00
 -1.91049882E+01  0.00000000E+00  9.55249411E+00  9.55249411E+00 -1.91049882E+01
  0.00000000E+00  9.55249411E+00  9.55249411E+00 -1.91049882E+01  0.00000000E+00
  9.55249411E+00  9.55249411E+00 -1.91049882E+01  0.00000000E+00  9.55249411E+00
  9.55249411E+00 -1.91049882E+01  0.00000000E+00  9.55249411E+00  9.55249411E+00
 -1.91049882E+01  0.00000000E+00  9.55249411E+00  9.55249411E+00 -1.91049882E+01
  0.00000000E+00  9.55249411E+00  9.55249411E+00 -1.91049882E+01  0.00000000E+00
  9.55249411E+00  9.55249411E+00 -1.91049882E+01  0.00000000E+00  9.55249411E+00
  9.55249411E+00 -1.91049882E+01  0.00000000E+00  9.55249411E+00  9.55249411E+00
 -1.91049882E+01  0.00000000E+00  9.55249411E+00  9.55249411E+00 -1.91049882E+01
  0.00000000E+00  9.55249411E+00  9.55249411E+00 -1.91049882E+01  0.00000000E+00
  9.55249411E+00  9.55249411E+00 -1.91049882E+01  0.00000000E+00  9.55249411E+00
  9.55249411E+00 -1.91049882E+01  0.00000000E+00  9.55249411E+00  9.55249411E+00
 -1.91049882E+01  0.00000000E+00  9.55249411E+00  9.55249411E+00 -1.91049882E+01
  0.00000000E+00  9.55249411E+00  9.55249411E+00 -1.91049882E+01  0.00000000E+00
  9.55249411E+00  9.55249411E+00 -1.91049882E+01  0.00000000E+00  9.55249411E+00
  9.55249411E+00 -1.91049882E+01  0.00000000E+00  9.55249411E+00  9.55249411E+00
 -1.91049882E+01  0.00000000E+00  9.55249411E+00  9.55249411E+00 -1.91049882E+01
  0.00000000E+00  9.55249411E+00  9.55249411E+00 -1.91049882E+01  0.00000000E+00
  9.55249411E+00  9.55249411E+00 -1.91049882E+01  0.00000000E+00  9.55249411E+00
  9.55249411E+00 -1.91049882E+01  0.00000000E+00  9.55249411E+00  9.55249411E+00
 -1.91049882E+01  0.00000000E+00  9.55249411E+00  9.55249411E+00 -1.91049882E+01
  0.00000000E+00  9.55249411E+00  9.55249411E+00 -1.91049882E+01  0.00000000E+00
  9.55249411E+00  9.55249411E+00 -1.91049882E+01  0.00000000E+00  9.55249411E+00
  9.55249411E+00 -1.91049882E+01  0.00000000E+00  9.55249411E+00  9.55249411E+00
 -1.91049882E+01  0.00000000E+00  9.55249411E+00  9.55249411E+00 -1.91049882E+01
  0.00000000E+00  9.55249411E+00  9.55249411E+00 -1.91049882E+01  0.00000000E+00
  9.55249411E+00  9.55249411E+00 -1.91049882E+01  0.00000000E+00  9.55249411E+00
  9.55249411E+00 -1.91049882E+01  0.00000000E+00  9.55249411E+00  9.55249411E+00
 -1.91049882E+01  0.00000000E+00  9.55249411E+00  9.55249411E+00 -1.91049882E+01
  0.00000000E+00  9.55249411E+00  9.55249411E+00 -1.91049882E+01  0.00000000E+00
  9.55249411E+00  9.55249411E+00 -1.91049882E+01  0.00000000E+00  9.55249411E+00
  9.55249411E+00 -1.91049882E+01  0.00000000E+00  9.55249411E+00  9.55249411E+00
 -1.91049882E+01  0.00000000E+00  9.55249411E+00  9.55249411E+00 -1.91049882E+01
  0.00000000E+00  9.55249411E+00  9.55249411E+00 -1.91049882E+01  0.00000000E+00
  9.55249411E+00  9.55249411E+00 -1.91049882E+01  0.00000000E+00  9.55249411E+00
  9.55249411E+00 -1.91049882E+01  0.00000000E+00  9.55249411E+00  9.55249411E+00
 -1.91049882E+01  0.00000000E+00  9.55249411E+00  9.55249411E+00 -1.91049882E+01
  0.00000000E+00  9.55249411E+00  9.55249411E+00 -1.91049882E+01  0.00000000E+00
  9.55249411E+00  9.55249411E+00 -1.91049882E+01  0.00000000E+00  9.55249411E+00
  9.55249411E+00 -1.91049882E+01  0.00000000E+00  9.55249411E+00  9.55249411E+00
 -1.91049882E+01  0.00000000E+00  9.55249411E+00  9.55249411E+00 -1.91049882E+01
  0.00000000E+00  9.55249411E+00  9.55249411E+00 -1.91049882E+01  0.00000000E+00
  9.55249411E+00  9.55249411E+00 -1.91049882E+01  0.00000000E+00  9.55249411E+00
  9.55249411E+00 -1.91049882E+01  0.00000000E+00  9.55249411E+00  9.55249411E+00
 -1.91049882E+01  0.00000000E+00  9.55249411E+00  9.55249411E+00 -1.91049882E+01
  0.00000000E+00  9.55249411E+00  9.55249411E+00 -1.91049882E+01  0.00000000E+00
  9.55249411E+00  9.55249411E+00 -1.91049882E+01  0.00000000E+00  9.55249411E+00
  9.55249411E+00 -1.91049882E+01  0.00000000E+00  9.55249411E+00  9.55249411E+00
 -1.91049882E+01  0.00000000E+00  9.55249411E+00  9.55249411E+00 -1.91049882E+01
  0.00000000E+00  9.55249411E+00  9.55249411E+00 -1.91049882E+01  0.00000000E+00
  9.55249411E+00  9.55249411E+00 -1.91049882E+01  0.00000000E+00  9.55249411E+00
  9.55249411E+00 -1.91049882E+01  0.00000000E+00  9.55249411E+00  9.55249411E+00
 -1.91049882E+01  0.00000000E+00  9.55249411E+00  9.55249411E+00 -1.91049882E+01
  0.00000000E+00  9.55249411E+00  9.55249411E+00 -1.91049882E+01  0.00000000E+00
  9.55249411E+00  9.55249411E+00 -1.91049882E+01  0.00000000E+00  9.55249411E+00
  9.55249411E+00 -1.91049882E+01  0.00000000E+00  9.55249411E+00  9.55249411E+00
 -1.91049882E+01  0.00000000E+00  9.55249411E+00  9.55249411E+00 -1.91049882E+01
  0.00000000E+00  9.55249411E+00  9.55249411E+00 -1.91049882E+01  0.00000000E+00
  9.55249411E+00  9.55249411E+00 -1.91049882E+01  0.00000000E+00  9.55249411E+00
  9.55249411E+00 -1.91049882E+01  0.00000000E+00  9.55249411E+00  9.55249411E+00
 -1.91049882E+01  0.00000000E+00  9.55249411E+00  9.55249411E+00 -1.91049882E+01
  0.00000000E+00  9.55249411E+00  9.55249411E+00 -1.91049882E+01  0.00000000E+00
  9.55249411E+00  9.55249411E+00 -1.91049882E+01  0.00000000E+00  9.55249411E+00
  9.55249411E+00 -1.91049882E+01  0.00000000E+00  9.55249411E+00  9.55249411E+00
 -1.91049882E+01  0.00000000E+00  9.55249411E+00  9.55249411E+00 -1.91049882E+01
  0.00000000E+00  9.55249411E+00  9.55249411E+00 -1.91049882E+01  0.00000000E+00
  9.55249411E+00  9.55249411E+00 -1.91049882E+01  0.00000000E+00  9.55249411E+00
  9.55249411E+00 -1.91049882E+01  0.00000000E+00  9.55249411E+00  9.55249411E+00
 -1.91049882E+01  0.00000000E+00  9.55249411E+00  9.55249411E+00 -1.91049882E+01
  0.00000000E+00  9.55249411E+00  9.55249411E+00 -1.91049882E+01  0.00000000E+00
  9.55249411E+00  9.55249411E+00 -1.91049882E+01  0.00000000E+00  9.55249411E+00
  9.55249411E+00 -1.91049882E+01  0.00000000E+00  9.55249411E+00  9.55249411E+00
 -1.91049882E+01  0.00000000E+00  9.55249411E+00  9.55249411E+00 -1.91049882E+01
  0.00000000E+00  9.55249411E+00  9.55249411E+00 -1.91049882E+01  0.00000000E+00
  9.55249411E+00  9.55249411E+00 -1.91049882E+01  0.00000000E+00  9.55249411E+00
  9.55249411E+00 -1.91049882E+01  0.00000000E+00  9.55249411E+00  9.55249411E+00
 -1.91049882E+01  0.00000000E+00  9.55249411E+00  9.55249411E+00 -1.91049882E+01
  0.00000000E+00  9.55249411E+00  9.55249411E+00 -1.91049882E+01  0.00000000E+00
  9.55249411E+00  9.55249411E+00 -1.91049882E+01  0.00000000E+00  9.55249411E+00
  9.55249411E+00 -1.91049882E+01  0.00000000E+00  9.55249411E+00  9.55249411E+00
 -1.91049882E+01  0.00000000E+00  9.55249411E+00  9.55249411E+00 -1.91049882E+01
  0.00000000E+00  9.55249411E+00  9.55249411E+00 -1.91049882E+01  0.00000000E+00
  9.55249411E+00  9.55249411E+00 -1.91049882E+01  0.00000000E+00  9.55249411E+00
  9.55249411E+00 -1.91049882E+01  0.00000000E+00  9.55249411E+00  9.55249411E+00
 -1.91049882E+01  0.00000000E+00  9.55249411E+00  9.55249411E+00 -1.91049882E+01
  0.00000000E+00  9.55249411E+00  9.55249411E+00 -1.91049882E+01  0.00000000E+00
  9.55249411E+00  9.55249411E+00 -1.91049882E+01  0.00000000E+00  9.55249411E+00
  9.55249411E+00 -1.91049882E+01  0.00000000E+00  9.55249411E+00  9.55249411E+00
 -1.91049882E+01  0.00000000E+00  9.55249411E+00  9.55249411E+00 -1.91049882E+01
  0.00000000E+00  9.55249411E+00  9.55249411E+00 -1.91049882E+01  0.00000000E+00
  9.55249411E+00  9.55249411E+00 -1.91049882E+01  0.00000000E+00  9.55249411E+00
  9.55249411E+00 -1.91049882E+01  0.00000000E+00  9.55249411E+00  9.55249411E+00
 -1.91049882E+01  0.00000000E+00  9.55249411E+00  9.55249411E+00 -1.91049882E+01
  0.00000000E+00  9.55249411E+00  9.55249411E+00 -1.91049882E+01  0.00000000E+00
  9.55249411E+00  9.55249411E+00 -1.91049882E+01  0.00000000E+00  9.55249411E+00
  9.55249411E+00 -1.91049882E+01  0.00000000E+00  9.55249411E+00  9.55249411E+00
 -1.91049882E+01  0.00000000E+00  9.55249411E+00  9.55249411E+00 -1.91049882E+01
  0.00000000E+00  9.55249411E+00  9.55249411E+00 -1.91049882E+01  0.00000000E+00
  9.55249411E+00  9.55249411E+00 -1.91049882E+01  0.00000000E+00  9.55249411E+00
  9.55249411E+00 -1.91049882E+01  0.00000000E+00  9.55249411E+00  9.55249411E+00
 -1.91049882E+01  0.00000000E+00  9.55249411E+00  9.55249411E+00 -1.91049882E+01
  0.00000000E+00  9.55249411E+00  9.55249411E+00 -1.91049882E+01  0.00000000E+00
  9.55249411E+00  9.55249411E+00 -1.91049882E+01  0.00000000E+00  9.55249411E+00
  9.55249411E+00 -1.91049882E+01  0.00000000E+00  9.55249411E+00  9.55249411E+00
 -1.91049882E+01  0.00000000E+00  9.55249411E+00  9.55249411E+00 -1.91049882E+01
  0.00000000E+00  9.55249411E+00  9.55249411E+00 -1.91049882E+01  0.00000000E+00
  9.55249411E+00  9.55249411E+00 -1.91049882E+01  0.00000000E+00  9.55249411E+00
  9.55249411E+00 -1.91049882E+01  0.00000000E+00  9.55249411E+00  9.55249411E+00
 -1.91049882E+01  0.00000000E+00  9.55249411E+00  9.55249411E+00 -1.91049882E+01
  0.00000000E+00  9.55249411E+00  9.55249411E+00 -1.91049882E+01  0.00000000E+00
  9.55249411E+00  9.55249411E+00 -1.91049882E+01  0.00000000E+00  9.55249411E+00
  9.55249411E+00 -1.91049882E+01  0.00000000E+00  9.55249411E+00  9.55249411E+00
 -1.91049882E+01  0.00000000E+00  9.55249411E+00  9.55249411E+00 -1.91049882E+01
  0.00000000E+00  9.55249411E+00  9.55249411E+00 -1.91049882E+01  0.00000000E+00
  9.55249411E+00  9.55249411E+00 -1.91049882E+01  0.00000000E+00  9.55249411E+00
  9.55249411E+00 -1.91049882E+01  0.00000000E+00  9.55249411E+00  9.55249411E+00
 -1.91049882E+01  0.00000000E+00  9.55249411E+00  9.55249411E+00 -1.91049882E+01
  0.00000000E+00  9.55249411E+00  9.55249411E+00 -1.91049882E+01  0.00000000E+00
  9.55249411E+00  9.55249411E+00 -1.91049882E+01  0.00000000E+00  9.55249411E+00
  9.55249411E+00 -1.91049882E+01  0.00000000E+00  9.55249411E+00  9.55249411E+00
 -1.91049882E+01  0.00000000E+00  9.55249411E+00  9.55249411E+00 -1.91049882E+01
  0.00000000E+00  9.55249411E+00  9.55249411E+00 -1.91049882E+01  0.00000000E+00
  9.55249411E+00  9.55249411E+00 -1.91049882E+01  0.00000000E+00  9.55249411E+00
  9.55249411E+00 -1.91049882E+01  0.00000000E+00  9.55249411E+00  9.55249411E+00
 -1.91049882E+01  0.00000000E+00  9.55249411E+00  9.55249411E+00 -1.91049882E+01
  0.00000000E+00  9.55249411E+00  9.55249411E+00 -1.91049882E+01  0.00000000E+00
  9.55249411E+00  9.55249411E+00 -1.91049882E+01  0.00000000E+00  9.55249411E+00
  9.55249411E+00 -1.91049882E+01  0.00000000E+00  9.55249411E+00  9.55249411E+00
 -1.91049882E+01  0.00000000E+00  9.55249411E+00  9.55249411E+00 -1.91049882E+01
  0.00000000E+00  9.55249411E+00  9.55249411E+00 -1.91049882E+01  0.00000000E+00
  9.55249411E+00  9.55249411E+00 -1.91049882E+01  0.00000000E+00  9.55249411E+00
  9.55249411E+00 -1.91049882E+01  0.00000000E+00  9.55249411E+00  9.55249411E+00
 -1.91049882E+01  0.00000000E+00  9.55249411E+00  9.55249411E+00 -1.91049882E+01
  0.00000000E+00  9.55249411E+00  9.55249411E+00 -1.91049882E+01  0.00000000E+00
  9.55249411E+00  9.55249411E+00 -1.91049882E+01  0.00000000E+00  9.55249411E+00
  9.55249411E+00 -1.91049882E+01  0.00000000E+00  9.55249411E+00  9.55249411E+00
 -1.91049882E+01  0.00000000E+00  9.55249411E+00  9.55249411E+00 -1.91049882E+01
  0.00000000E+00  9.55249411E+00  9.55249411E+00 -1.91049882E+01  0.00000000E+00
  9.55249411E+00  9.55249411E+00 -1.91049882E+01  0.00000000E+00  9.55249411E+00
  9.55249411E+00 -1.91049882E+01  0.00000000E+00  9.55249411E+00  9.55249411E+00
 -1.91049882E+01  0.00000000E+00  9.55249411E+00  9.55249411E+00 -1.91049882E+01
  0.00000000E+00  9.55249411E+00  9.55249411E+00 -1.91049882E+01  0.00000000E+00
  9.55249411E+00  9.55249411E+00 -1.91049882E+01  0.00000000E+00  9.55249411E+00
  9.55249411E+00 -1.91049882E+01  0.00000000E+00  9.55249411E+00  9.55249411E+00
 -1.91049882E+01  0.00000000E+00  9.55249411E+00  9.55249411E+00 -1.91049882E+01
  0.00000000E+00  9.55249411E+00  9.55249411E+00 -1.91049882E+01  0.00000000E+00
  9.55249411E+00  9.55249411E+00 -1.91049882E+01  0.00000000E+00  9.55249411E+00
  9.55249411E+00 -1.91049882E+01  0.00000000E+00  9.55249411E+00  9.55249411E+00
 -1.91049882E+01  0.00000000E+00  9.55249411E+00  9.55249411E+00 -1.91049882E+01
  0.00000000E+00  9.55249411E+00  9.55249411E+00 -1.91049882E+01  0.00000000E+00
  9.55249411E+00  9.55249411E+00 -1.91049882E+01  0.00000000E+00  9.55249411E+00
  9.55249411E+00 -1.91049882E+01  0.00000000E+00  9.55249411E+00  9.55249411E+00
 -1.91049882E+01  0.00000000E+00  9.55249411E+00  9.55249411E+00 -1.91049882E+01
  0.00000000E+00  9.55249411E+00  9.55249411E+00 -1.91049882E+01  0.00000000E+00
  9.55249411E+00  9.55249411E+00 -1.91049882E+01  0.00000000E+00  9.55249411E+00
  9.55249411E+00 -1.91049882E+01  0.00000000E+00  9.55249411E+00  9.55249411E+00
 -1.91049882E+01  0.00000000E+00  9.55249411E+00  9.55249411E+00 -1.91049882E+01
  0.00000000E+00  9.55249411E+00  9.55249411E+00 -1.91049882E+01  0.00000000E+00
  9.55249411E+00  9.55249411E+00 -1.91049882E+01  0.00000000E+00  9.55249411E+00
  9.55249411E+00 -1.91049882E+01  0.00000000E+00  9.55249411E+00  9.55249411E+00
 -1.91049882E+01  0.00000000E+00  9.55249411E+00  9.55249411E+00 -1.91049882E+01
  0.00000000E+00  9.55249411E+00  9.55249411E+00 -1.91049882E+01  0.00000000E+00
  9.55249411E+00  9.55249411E+00 -1.91049882E+01  0.00000000E+00  9.55249411E+00
  9.55249411E+00 -1.91049882E+01  0.00000000E+00  9.55249411E+00  9.55249411E+00
 -1.91049882E+01  0.00000000E+00  9.55249411E+00  9.55249411E+00 -1.91049882E+01
  0.00000000E+00  9.55249411E+00  9.55249411E+00 -1.91049882E+01  0.00000000E+00
  9.55249411E+00  9.55249411E+00 -1.91049882E+01  0.00000000E+00  9.55249411E+00
  9.55249411E+00 -1.91049882E+01  0.00000000E+00  9.55249411E+00  9.55249411E+00
 -1.91049882E+01  0.00000000E+00  9.55249411E+00  9.55249411E+00 -1.91049882E+01
  0.00000000E+00  9.55249411E+00  9.55249411E+00 -1.91049882E+01  0.00000000E+00
  9.55249411E+00  9.55249411E+00 -1.91049882E+01  0.00000000E+00  9.55249411E+00
  9.55249411E+00 -1.91049882E+01  0.00000000E+00  9.55249411E+00  9.55249411E+00
 -1.91049882E+01  0.00000000E+00  9.55249411E+00  9.55249411E+00 -1.91049882E+01
  0.00000000E+00  9.55249411E+00  9.55249411E+00 -1.91049882E+01  0.00000000E+00
  9.55249411E+00  9.55249411E+00 -1.91049882E+01  0.00000000E+00  9.55249411E+00
  9.55249411E+00 -1.91049882E+01  0.00000000E+00  9.55249411E+00  9.55249411E+00
 -1.91049882E+01  0.00000000E+00  9.55249411E+00  9.55249411E+00 -1.91049882E+01
  0.00000000E+00  9.55249411E+00  9.55249411E+00 -1.91049882E+01  0.00000000E+00
  9.55249411E+00  9.55249411E+00 -1.91049882E+01  0.00000000E+00  9.55249411E+00
  9.55249411E+00 -1.91049882E+01  0.00000000E+00  9.55249411E+00  9.55249411E+00
 -1.91049882E+01  0.00000000E+00  9.55249411E+00  9.55249411E+00 -1.91049882E+01
  0.00000000E+00  9.55249411E+00  9.55249411E+00 -1.91049882E+01  0.00000000E+00
  9.55249411E+00  9.55249411E+00 -1.91049882E+01  0.00000000E+00  9.55249411E+00
  9.55249411E+00 -1.91049882E+01  0.00000000E+00  9.55249411E+00  9.55249411E+00
 -1.91049882E+01  0.00000000E+00  9.55249411E+00  9.55249411E+00 -1.91049882E+01
  0.00000000E+00  9.55249411E+00  9.55249411E+00 -1.91049882E+01  0.00000000E+00
  9.55249411E+00  9.55249411E+00 -1.91049882E+01  0.00000000E+00  9.55249411E+00
  9.55249411E+00 -1.91049882E+01  0.00000000E+00  9.55249411E+00  9.55249411E+00
 -1.91049882E+01  0.00000000E+00  9.55249411E+00  9.55249411E+00 -1.91049882E+01
  0.00000000E+00  9.55249411E+00  9.55249411E+00 -1.91049882E+01  0.00000000E+00
  9.55249411E+00  9.55249411E+00 -1.91049882E+01  0.00000000E+00  9.55249411E+00
  9.55249411E+00 -1.91049882E+01  0.00000000E+00  9.55249411E+00  9.55249411E+00
 -1.91049882E+01  0.00000000E+00  9.55249411E+00  9.55249411E+00 -1.91049882E+01
  0.00000000E+00  9.55249411E+00  9.55249411E+00 -1.91049882E+01  0.00000000E+00
  9.55249411E+00  9.55249411E+00 -1.91049882E+01  0.00000000E+00  9.55249411E+00
  9.55249411E+00 -1.91049882E+01  0.00000000E+00  9.55249411E+00  9.55249411E+00
 -1.91049882E+01  0.00000000E+00  9.55249411E+00  9.55249411E+00 -1.91049882E+01
  0.00000000E+00  9.55249411E+00  9.55249411E+00 -1.91049882E+01  0.00000000E+00
  9.55249411E+00  9.55249411E+00 -1.91049882E+01  0.00000000E+00  9.55249411E+00
  9.55249411E+00 -1.91049882E+01  0.00000000E+00  9.55249411E+00  9.55249411E+00
 -1.91049882E+01  0.00000000E+00  9.55249411E+00  9.55249411E+00 -1.91049882E+01
  0.00000000E+00  9.55249411E+00  9.55249411E+00 -1.91049882E+01  0.00000000E+00
  9.55249411E+00  9.55249411E+00 -1.91049882E+01  0.00000000E+00  9.55249411E+00
  9.55249411E+00 -1.91049882E+01  0.00000000E+00  9.55249411E+00  9.55249411E+00
 -1.91049882E+01  0.00000000E+00  9.55249411E+00  9.55249411E+00 -1.91049882E+01
  0.00000000E+00  9.55249411E+00  9.55249411E+00 -1.91049882E+01  0.00000000E+00
  9.55249411E+00  9.55249411E+00 -1.91049882E+01  0.00000000E+00  9.55249411E+00
  9.55249411E+00 -1.91049882E+01  0.00000000E+00  9.55249411E+00  9.55249411E+00
 -1.91049882E+01  0.00000000E+00  9.55249411E+00  9.55249411E+00 -1.91049882E+01
  0.00000000E+00  9.55249411E+00  9.55249411E+00 -1.91049882E+01  0.00000000E+00
  9.55249411E+00  9.55249411E+00 -1.91049882E+01  0.00000000E+00  9.55249411E+00
  9.55249411E+00 -1.91049882E+01  0.00000000E+00  9.55249411E+00  9.55249411E+00
 -1.91049882E+01  0.00000000E+00  9.55249411E+00  9.55249411E+00 -1.91049882E+01
  0.00000000E+00  9.55249411E+00  9.55249411E+00 -1.91049882E+01  0.00000000E+00
  9.55249411E+00  9.55249411E+00 -1.91049882E+01  0.00000000E+00  9.55249411E+00
  9.55249411E+00 -1.91049882E+01  0.00000000E+00  9.55249411E+00  9.55249411E+00
 -1.91049882E+01  0.00000000E+00  9.55249411E+00  9.55249411E+00 -1.91049882E+01
  0.00000000E+00  9.55249411E+00  9.55249411E+00 -1.91049882E+01  0.00000000E+00
  9.55249411E+00  9.55249411E+00 -1.91049882E+01  0.00000000E+00  9.55249411E+00
  9.55249411E+00 -1.91049882E+01  0.00000000E+00  9.55249411E+00  9.55249411E+00
 -1.91049882E+01  0.00000000E+00  9.55249411E+00  9.55249411E+00 -1.91049882E+01
  0.00000000E+00  9.55249411E+00  9.55249411E+00 -1.91049882E+01  0.00000000E+00
  9.55249411E+00  9.55249411E+00 -1.91049882E+01  0.00000000E+00  9.55249411E+00
  9.55249411E+00 -1.91049882E+01  0.00000000E+00  9.55249411E+00  9.55249411E+00
 -1.91049882E+01  0.00000000E+00  9.55249411E+00  9.55249411E+00 -1.91049882E+01
  0.00000000E+00  9.55249411E+00  9.55249411E+00 -1.91049882E+01  0.00000000E+00
  9.55249411E+00  9.55249411E+00 -1.91049882E+01  0.00000000E+00  9.55249411E+00
  9.55249411E+00 -1.91049882E+01  0.00000000E+00  9.55249411E+00  9.55249411E+00
 -1.91049882E+01  0.00000000E+00  9.55249411E+00  9.55249411E+00 -1.91049882E+01
  0.00000000E+00  9.55249411E+00  9.55249411E+00 -1.91049882E+01  0.00000000E+00
  9.55249411E+00  9.55249411E+00 -1.91049882E+01  0.00000000E+00  9.55249411E+00
  9.55249411E+00 -1.91049882E+01  0.00000000E+00  9.55249411E+00  9.55249411E+00
 -1.91049882E+01  0.00000000E+00  9.55249411E+00  9.55249411E+00 -1.91049882E+01
  0.00000000E+00  9.55249411E+00  9.55249411E+00 -1.91049882E+01  0.00000000E+00
  9.55249411E+00  9.55249411E+00 -1.91049882E+01  0.00000000E+00  9.55249411E+00
  9.55249411E+00 -1.91049882E+01  0.00000000E+00  9.55249411E+00  9.55249411E+00
 -1.91049882E+01  0.00000000E+00  9.55249411E+00  9.55249411E+00 -1.91049882E+01
  0.00000000E+00  9.55249411E+00  9.55249411E+00 -1.91049882E+01  0.00000000E+00
  9.55249411E+00  9.55249411E+00 -1.91049882E+01  0.00000000E+00  9.55249411E+00
  9.55249411E+00 -1.91049882E+01  0.00000000E+00  9.55249411E+00  9.55249411E+00
 -1.91049882E+01  0.00000000E+00  9.55249411E+00  9.55249411E+00 -1.91049882E+01
  0.00000000E+00  9.55249411E+00  9.55249411E+00 -1.91049882E+01  0.00000000E+00
  9.55249411E+00  9.55249411E+00 -1.91049882E+01  0.00000000E+00  9.55249411E+00
  9.55249411E+00 -1.91049882E+01  0.00000000E+00  9.55249411E+00  9.55249411E+00
 -1.91049882E+01  0.00000000E+00  9.55249411E+00  9.55249411E+00 -1.91049882E+01
  0.00000000E+00  9.55249411E+00  9.55249411E+00 -1.91049882E+01  0.00000000E+00
  9.55249411E+00  9.55249411E+00 -1.91049882E+01  0.00000000E+00  9.55249411E+00
  9.55249411E+00 -1.91049882E+01  0.00000000E+00  9.55249411E+00  9.55249411E+00
 -1.91049882E+01  0.00000000E+00  9.55249411E+00  9.55249411E+00 -1.91049882E+01
  0.00000000E+00  9.55249411E+00  9.55249411E+00 -1.91049882E+01  0.00000000E+00
  9.55249411E+00  9.55249411E+00 -1.91049882E+01  0.00000000E+00  9.55249411E+00
  9.55249411E+00 -1.91049882E+01  0.00000000E+00  9.55249411E+00  9.55249411E+00
 -1.91049882E+01  0.00000000E+00  9.55249411E+00  9.55249411E+00 -1.91049882E+01
  0.00000000E+00  9.55249411E+00  9.55249411E+00 -1.91049882E+01  0.00000000E+00
  9.55249411E+00  9.55249411E+00 -1.91049882E+01  0.00000000E+00  9.55249411E+00
  9.55249411E+00 -1.91049882E+01  0.00000000E+00  9.55249411E+00  9.55249411E+00
 -1.91049882E+01  0.00000000E+00  9.55249411E+00  9.55249411E+00 -1.91049882E+01
  0.00000000E+00  9.55249411E+00  9.55249411E+00 -1.91049882E+01  0.00000000E+00
  9.55249411E+00  9.55249411E+00 -1.91049882E+01  0.00000000E+00  9.55249411E+00
  9.55249411E+00 -1.91049882E+01  0.00000000E+00  9.55249411E+00  9.55249411E+00
 -1.91049882E+01  0.00000000E+00  9.55249411E+00  9.55249411E+00 -1.91049882E+01
  0.00000000E+00  9.55249411E+00  9.55249411E+00 -1.91049882E+01  0.00000000E+00
  9.55249411E+00  9.55249411E+00 -1.91049882E+01  0.00000000E+00  9.55249411E+00
  9.55249411E+00 -1.91049882E+01  0.00000000E+00  9.55249411E+00  9.55249411E+00
 -1.91049882E+01  0.00000000E+00  9.55249411E+00  9.55249411E+00 -1.91049882E+01
  0.00000000E+00  9.55249411E+00  9.55249411E+00 -1.91049882E+01  0.00000000E+00
  9.55249411E+00  9.55249411E+00 -1.91049882E+01  0.00000000E+00  9.55249411E+00
  9.55249411E+00 -1.91049882E+01  0.00000000E+00  9.55249411E+00  9.55249411E+00
 -1.91049882E+01  0.00000000E+00  9.55249411E+00  9.55249411E+00 -1.91049882E+01
  0.00000000E+00  9.55249411E+00  9.55249411E+00 -1.91049882E+01  0.00000000E+00
  9.55249411E+00  9.55249411E+00 -1.91049882E+01  0.00000000E+00  9.55249411E+00
  9.55249411E+00 -1.91049882E+01  0.00000000E+00  9.55249411E+00  9.55249411E+00
 -1.91049882E+01  0.00000000E+00  9.55249411E+00  9.55249411E+00 -1.91049882E+01
  0.00000000E+00  9.55249411E+00  9.55249411E+00 -1.91049882E+01  0.00000000E+00
  9.55249411E+00  9.55249411E+00 -1.91049882E+01  0.00000000E+00  9.55249411E+00
  9.55249411E+00 -1.91049882E+01  0.00000000E+00  9.55249411E+00  9.55249411E+00
 -1.91049882E+01  0.00000000E+00  9.55249411E+00  9.55249411E+00 -1.91049882E+01
  0.00000000E+00  9.55249411E+00  9.55249411E+00 -1.91049882E+01  0.00000000E+00
  9.55249411E+00  9.55249411E+00 -1.91049882E+01  0.00000000E+00  9.55249411E+00
  9.55249411E+00 -1.91049882E+01  0.00000000E+00  9.55249411E+00  9.55249411E+00
 -1.91049882E+01  0.00000000E+00  9.55249411E+00  9.55249411E+00 -1.91049882E+01
  0.00000000E+00  9.55249411E+00  9.55249411E+00 -1.91049882E+01  0.00000000E+00
  9.55249411E+00  9.55249411E+00 -1.91049882E+01  0.00000000E+00  9.55249411E+00
  9.55249411E+00 -1.91049882E+01  0.00000000E+00  9.55249411E+00  9.55249411E+00
 -1.91049882E+01  0.00000000E+00  9.55249411E+00  9.55249411E+00 -1.91049882E+01
  0.00000000E+00  9.55249411E+00  9.55249411E+00 -1.91049882E+01  0.00000000E+00
  9.55249411E+00  9.55249411E+00 -1.91049882E+01  0.00000000E+00  9.55249411E+00
  9.55249411E+00 -1.91049882E+01  0.00000000E+00  9.55249411E+00  9.55249411E+00
 -1.91049882E+01  0.00000000E+00  9.55249411E+00  9.55249411E+00 -1.91049882E+01
  0.00000000E+00  9.55249411E+00  9.55249411E+00 -1.91049882E+01  0.00000000E+00
  9.55249411E+00  9.55249411E+00 -1.91049882E+01  0.00000000E+00  9.55249411E+00
  9.55249411E+00 -1.91049882E+01  0.00000000E+00  9.55249411E+00  9.55249411E+00
 -1.91049882E+01  0.00000000E+00  9.55249411E+00  9.55249411E+00 -1.91049882E+01
  0.00000000E+00  9.55249411E+00  9.55249411E+00 -1.91049882E+01  0.00000000E+00
  9.55249411E+00  9.55249411E+00 -1.91049882E+01  0.00000000E+00  9.55249411E+00
  9.55249411E+00 -1.91049882E+01  0.00000000E+00  9.55249411E+00  9.55249411E+00
 -1.91049882E+01  0.00000000E+00  9.55249411E+00  9.55249411E+00 -1.91049882E+01
  0.00000000E+00  9.55249411E+00  9.55249411E+00 -1.91049882E+01  0.00000000E+00
  9.55249411E+00  9.55249411E+00 -1.91049882E+01  0.00000000E+00  9.55249411E+00
  9.55249411E+00 -1.91049882E+01  0.00000000E+00  9.55249411E+00  9.55249411E+00
 -1.91049882E+01  0.00000000E+00  9.55249411E+00  9.55249411E+00 -1.91049882E+01
  0.00000000E+00  9.55249411E+00  9.55249411E+00 -1.91049882E+01  0.00000000E+00
  9.55249411E+00  9.55249411E+00 -1.91049882E+01  0.00000000E+00  9.55249411E+00
  9.55249411E+00 -1.91049882E+01  0.00000000E+00  9.55249411E+00  9.55249411E+00
 -1.91049882E+01  0.00000000E+00  9.55249411E+00  9.55249411E+00 -1.91049882E+01
  0.00000000E+00  9.55249411E+00  9.55249411E+00 -1.91049882E+01  0.00000000E+00
  9.55249411E+00  9.55249411E+00 -1.91049882E+01  0.00000000E+00  9.55249411E+00
  9.55249411E+00 -1.91049882E+01  0.00000000E+00  9.55249411E+00  9.55249411E+00
 -1.91049882E+01  0.00000000E+00  9.55249411E+00  9.55249411E+00 -1.91049882E+01
  0.00000000E+00  9.55249411E+00  9.55249411E+00 -1.91049882E+01  0.00000000E+00
  9.55249411E+00  9.55249411E+00 -1.91049882E+01  0.00000000E+00  9.55249411E+00
  9.55249411E+00 -1.91049882E+01  0.00000000E+00  9.55249411E+00  9.55249411E+00
 -1.91049882E+01  0.00000000E+00  9.55249411E+00  9.55249411E+00 -1.91049882E+01
  0.00000000E+00  9.55249411E+00  9.55249411E+00 -1.91049882E+01  0.00000000E+00
  9.55249411E+00  9.55249411E+00 -1.91049882E+01  0.00000000E+00  9.55249411E+00
  9.55249411E+00 -1.91049882E+01  0.00000000E+00  9.55249411E+00  9.55249411E+00
 -1.91049882E+01  0.00000000E+00  9.55249411E+00  9.55249411E+00 -1.91049882E+01
  0.00000000E+00  9.55249411E+00  9.55249411E+00 -1.91049882E+01  0.00000000E+00
  9.55249411E+00  9.55249411E+00 -1.91049882E+01  0.00000000E+00  9.55249411E+00
  9.55249411E+00 -1.91049882E+01  0.00000000E+00  9.55249411E+00  9.55249411E+00
 -1.91049882E+01  0.00000000E+00  9.55249411E+00  9.55249411E+00 -1.91049882E+01
  0.00000000E+00  9.55249411E+00  9.55249411E+00 -1.91049882E+01  0.00000000E+00
  9.55249411E+00  9.55249411E+00 -1.91049882E+01  0.00000000E+00  9.55249411E+00
  9.55249411E+00 -1.91049882E+01  0.00000000E+00  9.55249411E+00  9.55249411E+00
 -1.91049882E+01  0.00000000E+00  9.55249411E+00  9.55249411E+00 -1.91049882E+01
  0.00000000E+00  9.55249411E+00  9.55249411E+00 -1.91049882E+01  0.00000000E+00
  9.55249411E+00  9.55249411E+00 -1.91049882E+01  0.00000000E+00  9.55249411E+00
  9.55249411E+00 -1.91049882E+01  0.00000000E+00  9.55249411E+00  9.55249411E+00
 -1.91049882E+01  0.00000000E+00  9.55249411E+00  9.55249411E+00 -1.91049882E+01
  0.00000000E+00  9.55249411E+00  9.55249411E+00 -1.91049882E+01  0.00000000E+00
  9.55249411E+00  9.55249411E+00 -1.91049882E+01  0.00000000E+00  9.55249411E+00
  9.55249411E+00 -1.91049882E+01  0.00000000E+00  9.55249411E+00  9.55249411E+00
 -1.91049882E+01  0.00000000E+00  9.55249411E+00  9.55249411E+00 -1.91049882E+01
  0.00000000E+00  9.55249411E+00  9.55249411E+00 -1.91049882E+01  0.00000000E+00
  9.55249411E+00  9.55249411E+00 -1.91049882E+01  0.00000000E+00  9.55249411E+00
  9.55249411E+00 -1.91049882E+01  0.00000000E+00  9.55249411E+00  9.55249411E+00
 -1.91049882E+01  0.00000000E+00  9.55249411E+00  9.55249411E+00 -1.91049882E+01
  0.00000000E+00  9.55249411E+00  9.55249411E+00 -1.91049882E+01  0.00000000E+00
  9.55249411E+00  9.55249411E+00 -1.91049882E+01  0.00000000E+00  9.55249411E+00
  9.55249411E+00 -1.91049882E+01  0.00000000E+00  9.55249411E+00  9.55249411E+00
 -1.91049882E+01  0.00000000E+00  9.55249411E+00  9.55249411E+00 -1.91049882E+01
  0.00000000E+00  9.55249411E+00  9.55249411E+00 -1.91049882E+01  0.00000000E+00
  9.55249411E+00  9.55249411E+00 -1.91049882E+01  0.00000000E+00  9.55249411E+00
  9.55249411E+00 -1.91049882E+01  0.00000000E+00  9.55249411E+00  9.55249411E+00
 -1.91049882E+01  0.00000000E+00  9.55249411E+00  9.55249411E+00 -1.91049882E+01
  0.00000000E+00  9.55249411E+00  9.55249411E+00 -1.91049882E+01  0.00000000E+00
  9.55249411E+00  9.55249411E+00 -1.91049882E+01  0.00000000E+00  9.55249411E+00
  9.55249411E+00 -1.91049882E+01  0.00000000E+00  9.55249411E+00  9.55249411E+00
 -1.91049882E+01  0.00000000E+00  9.55249411E+00  9.55249411E+00 -1.91049882E+01
  0.00000000E+00  9.55249411E+00  9.55249411E+00 -1.91049882E+01  0.00000000E+00
  9.55249411E+00  9.55249411E+00 -1.91049882E+01  0.00000000E+00  9.55249411E+00
  9.55249411E+00 -1.91049882E+01  0.00000000E+00  9.55249411E+00  9.55249411E+00
 -1.91049882E+01  0.00000000E+00  9.55249411E+00  9.55249411E+00 -1.91049882E+01
  0.00000000E+00  9.55249411E+00  9.55249411E+00 -1.91049882E+01  0.00000000E+00
  9.55249411E+00  9.55249411E+00 -1.91049882E+01  0.00000000E+00  9.55249411E+00
  9.55249411E+00 -1.91049882E+01  0.00000000E+00  9.55249411E+00  9.55249411E+00
 -1.91049882E+01  0.00000000E+00  9.55249411E+00  9.55249411E+00 -1.91049882E+01
  0.00000000E+00  9.55249411E+00  9.55249411E+00 -1.91049882E+01  0.00000000E+00
  9.55249411E+00  9.55249411E+00 -1.91049882E+01  0.00000000E+00  9.55249411E+00
  9.55249411E+00 -1.91049882E+01  0.00000000E+00  9.55249411E+00  9.55249411E+00
 -1.91049882E+01  0.00000000E+00  9.55249411E+00  9.55249411E+00 -1.91049882E+01
  0.00000000E+00  9.55249411E+00  9.55249411E+00 -1.91049882E+01  0.00000000E+00
  9.55249411E+00  9.55249411E+00 -1.91049882E+01  0.00000000E+00  9.55249411E+00
  9.55249411E+00 -1.91049882E+01  0.00000000E+00  9.55249411E+00  9.55249411E+00
 -1.91049882E+01  0.00000000E+00  9.55249411E+00  9.55249411E+00 -1.91049882E+01
  0.00000000E+00  9.55249411E+00  9.55249411E+00 -1.91049882E+01  0.00000000E+00
  9.55249411E+00  9.55249411E+00 -1.91049882E+01  0.00000000E+00  9.55249411E+00
  9.55249411E+00 -1.91049882E+01  0.00000000E+00  9.55249411E+00  9.55249411E+00
 -1.91049882E+01  0.00000000E+00  9.55249411E+00  9.55249411E+00 -1.91049882E+01
  0.00000000E+00  9.55249411E+00  9.55249411E+00 -1.91049882E+01  0.00000000E+00
  9.55249411E+00  9.55249411E+00 -1.91049882E+01  0.00000000E+00  9.55249411E+00
  9.55249411E+00 -1.91049882E+01  0.00000000E+00  9.55249411E+00  9.55249411E+00
 -1.91049882E+01  0.00000000E+00  9.55249411E+00  9.55249411E+00 -1.91049882E+01
  0.00000000E+00  9.55249411E+00  9.55249411E+00 -1.91049882E+01  0.00000000E+00
  9.55249411E+00  9.55249411E+00 -1.91049882E+01  0.00000000E+00  9.55249411E+00
  9.55249411E+00 -1.91049882E+01  0.00000000E+00  9.55249411E+00  9.55249411E+00
 -1.91049882E+01  0.00000000E+00  9.55249411E+00  9.55249411E+00 -1.91049882E+01
  0.00000000E+00  9.55249411E+00  9.55249411E+00 -1.91049882E+01  0.00000000E+00
  9.55249411E+00  9.55249411E+00 -1.91049882E+01  0.00000000E+00  9.55249411E+00
  9.55249411E+00 -1.91049882E+01  0.00000000E+00  9.55249411E+00  9.55249411E+00
 -1.91049882E+01  0.00000000E+00  9.55249411E+00  9.55249411E+00 -1.91049882E+01
  0.00000000E+00  9.55249411E+00  9.55249411E+00 -1.91049882E+01  0.00000000E+00
  9.55249411E+00  9.55249411E+00 -1.91049882E+01  0.00000000E+00  9.55249411E+00
  9.55249411E+00 -1.91049882E+01  0.00000000E+00  9.55249411E+00  9.55249411E+00
 -1.91049882E+01  0.00000000E+00  9.55249411E+00  9.55249411E+00 -1.91049882E+01
  0.00000000E+00  9.55249411E+00  9.55249411E+00 -1.91049882E+01  0.00000000E+00
  9.55249411E+00  9.55249411E+00 -1.91049882E+01  0.00000000E+00  9.55249411E+00
  9.55249411E+00 -1.91049882E+01  0.00000000E+00  9.55249411E+00  9.55249411E+00
 -1.91049882E+01  0.00000000E+00  9.55249411E+00  9.55249411E+00 -1.91049882E+01
  0.00000000E+00  9.55249411E+00  9.55249411E+00 -1.91049882E+01  0.00000000E+00
  9.55249411E+00  9.55249411E+00 -1.91049882E+01  0.00000000E+00  9.55249411E+00
  9.55249411E+00 -1.91049882E+01  0.00000000E+00  9.55249411E+00  9.55249411E+00
 -1.91049882E+01  0.00000000E+00  9.55249411E+00  9.55249411E+00 -1.91049882E+01
  0.00000000E+00  9.55249411E+00  9.55249411E+00 -1.91049882E+01  0.00000000E+00
  9.55249411E+00  9.55249411E+00 -1.91049882E+01  0.00000000E+00  9.55249411E+00
  9.55249411E+00 -1.91049882E+01  0.00000000E+00  9.55249411E+00  9.55249411E+00
 -1.91049882E+01  0.00000000E+00  9.55249411E+00  9.55249411E+00 -1.91049882E+01
  0.00000000E+00  9.55249411E+00  9.55249411E+00 -1.91049882E+01  0.00000000E+00
  9.55249411E+00  9.55249411E+00 -1.91049882E+01  0.00000000E+00  9.55249411E+00
  9.55249411E+00 -1.91049882E+01  0.00000000E+00  9.55249411E+00  9.55249411E+00
 -1.91049882E+01  0.00000000E+00  9.55249411E+00  9.55249411E+00 -1.91049882E+01
  0.00000000E+00  9.55249411E+00  9.55249411E+00 -1.91049882E+01  0.00000000E+00
  9.55249411E+00  9.55249411E+00 -1.91049882E+01  0.00000000E+00  9.55249411E+00
  9.55249411E+00 -1.91049882E+01  0.00000000E+00  9.55249411E+00  9.55249411E+00
 -1.91049882E+01  0.00000000E+00  9.55249411E+00  9.55249411E+00 -1.91049882E+01
  0.00000000E+00  9.55249411E+00  9.55249411E+00 -1.91049882E+01  0.00000000E+00
  9.55249411E+00  9.55249411E+00 -1.91049882E+01  0.00000000E+00  9.55249411E+00
  9.55249411E+00 -1.91049882E+01  0.00000000E+00  9.55249411E+00  9.55249411E+00
 -1.91049882E+01  0.00000000E+00  9.55249411E+00  9.55249411E+00 -1.91049882E+01
  0.00000000E+00  9.55249411E+00  9.55249411E+00 -1.91049882E+01  0.00000000E+00
  9.55249411E+00  9.55249411E+00 -1.91049882E+01  0.00000000E+00  9.55249411E+00
  9.55249411E+00 -1.91049882E+01  0.00000000E+00  9.55249411E+00  9.55249411E+00
 -1.91049882E+01  0.00000000E+00  9.55249411E+00  9.55249411E+00 -1.91049882E+01
  0.00000000E+00  9.55249411E+00  9.55249411E+00 -1.91049882E+01  0.00000000E+00
  9.55249411E+00  9.55249411E+00 -1.91049882E+01  0.00000000E+00  9.55249411E+00
  9.55249411E+00 -1.91049882E+01  0.00000000E+00  9.55249411E+00  9.55249411E+00
 -1.91049882E+01  0.00000000E+00  9.55249411E+00  9.55249411E+00 -1.91049882E+01
  0.00000000E+00  9.55249411E+00  9.55249411E+00 -1.91049882E+01  0.00000000E+00
  9.55249411E+00  9.55249411E+00 -1.91049882E+01  0.00000000E+00  9.55249411E+00
  9.55249411E+00 -1.91049882E+01  0.00000000E+00  9.55249411E+00  9.55249411E+00
 -1.91049882E+01  0.00000000E+00  9.55249411E+00  9.55249411E+00 -1.91049882E+01
  0.00000000E+00  9.55249411E+00  9.55249411E+00 -1.91049882E+01  0.00000000E+00
  9.55249411E+00  9.55249411E+00 -1.91049882E+01  0.00000000E+00  9.55249411E+00
  9.55249411E+00 -1.91049882E+01  0.00000000E+00  9.55249411E+00  9.55249411E+00
 -1.91049882E+01  0.00000000E+00  9.55249411E+00  9.55249411E+00 -1.91049882E+01
  0.00000000E+00  9.55249411E+00  9.55249411E+00 -1.91049882E+01  0.00000000E+00
  9.55249411E+00  9.55249411E+00 -1.91049882E+01  0.00000000E+00  9.55249411E+00
  9.55249411E+00 -1.91049882E+01  0.00000000E+00  9.55249411E+00  9.55249411E+00
 -1.91049882E+01  0.00000000E+00  9.55249411E+00  9.55249411E+00 -1.91049882E+01
  0.00000000E+00  9.55249411E+00  9.55249411E+00 -1.91049882E+01  0.00000000E+00
  9.55249411E+00  9.55249411E+00 -1.91049882E+01  0.00000000E+00  9.55249411E+00
  9.55249411E+00 -1.91049882E+01  0.00000000E+00  9.55249411E+00  9.55249411E+00
 -1.91049882E+01  0.00000000E+00  9.55249411E+00  9.55249411E+00 -1.91049882E+01
  0.00000000E+00  9.55249411E+00  9.55249411E+00 -1.91049882E+01  0.00000000E+00
  9.55249411E+00  9.55249411E+00 -1.91049882E+01  0.00000000E+00  9.55249411E+00
  9.55249411E+00 -1.91049882E+01  0.00000000E+00  9.55249411E+00  9.55249411E+00
 -1.91049882E+01  0.00000000E+00  9.55249411E+00  9.55249411E+00 -1.91049882E+01
  0.00000000E+00  9.55249411E+00  9.55249411E+00 -1.91049882E+01  0.00000000E+00
  9.55249411E+00  9.55249411E+00 -1.91049882E+01  0.00000000E+00  9.55249411E+00
  9.55249411E+00 -1.91049882E+01  0.00000000E+00  9.55249411E+00  9.55249411E+00
 -1.91049882E+01  0.00000000E+00  9.55249411E+00  9.55249411E+00 -1.91049882E+01
  0.00000000E+00  9.55249411E+00  9.55249411E+00 -1.91049882E+01  0.00000000E+00
  9.55249411E+00  9.55249411E+00 -1.91049882E+01  0.00000000E+00  9.55249411E+00
  9.55249411E+00 -1.91049882E+01  0.00000000E+00  9.55249411E+00  9.55249411E+00
 -1.91049882E+01  0.00000000E+00  9.55249411E+00  9.55249411E+00 -1.91049882E+01
  0.00000000E+00  9.55249411E+00  9.55249411E+00 -1.91049882E+01  0.00000000E+00
  9.55249411E+00  9.55249411E+00 -1.91049882E+01  0.00000000E+00  9.55249411E+00
  9.55249411E+00 -1.91049882E+01  0.00000000E+00  9.55249411E+00  9.55249411E+00
 -1.91049882E+01  0.00000000E+00  9.55249411E+00  9.55249411E+00 -1.91049882E+01
  0.00000000E+00  9.55249411E+00  9.55249411E+00 -1.91049882E+01  0.00000000E+00
  9.55249411E+00  9.55249411E+00 -1.91049882E+01  0.00000000E+00  9.55249411E+00
  9.55249411E+00 -1.91049882E+01  0.00000000E+00  9.55249411E+00  9.55249411E+00
 -1.91049882E+01  0.00000000E+00  9.55249411E+00  9.55249411E+00 -1.91049882E+01
  0.00000000E+00  9.55249411E+00  9.55249411E+00 -1.91049882E+01  0.00000000E+00
  9.55249411E+00  9.55249411E+00 -1.91049882E+01  0.00000000E+00  9.55249411E+00
  9.55249411E+00 -1.91049882E+01  0.00000000E+00  9.55249411E+00  9.55249411E+00
 -1.91049882E+01  0.00000000E+00  9.55249411E+00  9.55249411E+00 -1.91049882E+01
  0.00000000E+00  9.55249411E+00  9.55249411E+00 -1.91049882E+01  0.00000000E+00
  9.55249411E+00  9.55249411E+00 -1.91049882E+01  0.00000000E+00  9.55249411E+00
  9.55249411E+00 -1.91049882E+01  0.00000000E+00  9.55249411E+00  9.55249411E+00
 -1.91049882E+01  0.00000000E+00  9.55249411E+00  9.55249411E+00 -1.91049882E+01
  0.00000000E+00  9.55249411E+00  9.55249411E+00 -1.91049882E+01  0.00000000E+00
  9.55249411E+00  9.55249411E+00 -1.91049882E+01  0.00000000E+00  9.55249411E+00
  9.55249411E+00 -1.91049882E+01  0.00000000E+00  9.55249411E+00  9.55249411E+00
 -1.91049882E+01  0.00000000E+00  9.55249411E+00  9.55249411E+00 -1.91049882E+01
  0.00000000E+00  9.55249411E+00  9.55249411E+00 -1.91049882E+01  0.00000000E+00
  9.55249411E+00  9.55249411E+00 -1.91049882E+01  0.00000000E+00  9.55249411E+00
  9.55249411E+00 -1.91049882E+01  0.00000000E+00  9.55249411E+00  9.55249411E+00
 -1.91049882E+01  0.00000000E+00  9.55249411E+00  9.55249411E+00 -1.91049882E+01
  0.00000000E+00  9.55249411E+00  9.55249411E+00 -1.91049882E+01  0.00000000E+00
  9.55249411E+00  9.55249411E+00 -1.91049882E+01  0.00000000E+00  9.55249411E+00
  9.55249411E+00 -1.91049882E+01  0.00000000E+00  9.55249411E+00  9.55249411E+00
 -1.91049882E+01  0.00000000E+00  9.55249411E+00  9.55249411E+00 -1.91049882E+01
  0.00000000E+00  9.55249411E+00  9.55249411E+00 -1.91049882E+01  0.00000000E+00
  9.55249411E+00  9.55249411E+00 -1.91049882E+01  0.00000000E+00  9.55249411E+00
  9.55249411E+00 -1.91049882E+01  0.00000000E+00  9.55249411E+00  9.55249411E+00
 -1.91049882E+01  0.00000000E+00  9.55249411E+00  9.55249411E+00 -1.91049882E+01
  0.00000000E+00  9.55249411E+00  9.55249411E+00 -1.91049882E+01  0.00000000E+00
  9.55249411E+00  9.55249411E+00 -1.91049882E+01  0.00000000E+00  9.55249411E+00
  9.55249411E+00 -1.91049882E+01  0.00000000E+00  9.55249411E+00  9.55249411E+00
 -1.91049882E+01  0.00000000E+00  9.55249411E+00  9.55249411E+00 -1.91049882E+01
  0.00000000E+00  9.55249411E+00  9.55249411E+00 -1.91049882E+01  0.00000000E+00
  9.55249411E+00  9.55249411E+00 -1.91049882E+01  0.00000000E+00  9.55249411E+00
  9.55249411E+00 -1.91049882E+01  0.00000000E+00  9.55249411E+00  9.55249411E+00
 -1.91049882E+01  0.00000000E+00  9.55249411E+00  9.55249411E+00 -1.91049882E+01
  0.00000000E+00  9.55249411E+00  9.55249411E+00 -1.91049882E+01  0.00000000E+00
  9.55249411E+00  9.55249411E+00 -1.91049882E+01  0.00000000E+00  9.55249411E+00
  9.55249411E+00 -1.91049882E+01  0.00000000E+00  9.55249411E+00  9.55249411E+00
 -1.91049882E+01  0.00000000E+00  9.55249411E+00  9.55249411E+00 -1.91049882E+01
  0.00000000E+00  9.55249411E+00  9.55249411E+00 -1.91049882E+01  0.00000000E+00
  9.55249411E+00  9.55249411E+00 -1.91049882E+01  0.00000000E+00  9.55249411E+00
  9.55249411E+00 -1.91049882E+01  0.00000000E+00  9.55249411E+00  9.55249411E+00
 -1.91049882E+01  0.00000000E+00  9.55249411E+00  9.55249411E+00 -1.91049882E+01
  0.00000000E+00  9.55249411E+00  9.55249411E+00 -1.91049882E+01  0.00000000E+00
  9.55249411E+00  9.55249411E+00 -1.91049882E+01  0.00000000E+00  9.55249411E+00
  9.55249411E+00 -1.91049882E+01  0.00000000E+00  9.55249411E+00  9.55249411E+00
 -1.91049882E+01  0.00000000E+00  9.55249411E+00  9.55249411E+00 -1.91049882E+01
  0.00000000E+00  9.55249411E+00  9.55249411E+00 -1.91049882E+01  0.00000000E+00
  9.55249411E+00  9.55249411E+00 -1.91049882E+01  0.00000000E+00  9.55249411E+00
  9.55249411E+00 -1.91049882E+01  0.00000000E+00  9.55249411E+00  9.55249411E+00
 -1.91049882E+01  0.00000000E+00  9.55249411E+00  9.55249411E+00 -1.91049882E+01
  0.00000000E+00  9.55249411E+00  9.55249411E+00 -1.91049882E+01  0.00000000E+00
  9.55249411E+00  9.55249411E+00 -1.91049882E+01  0.00000000E+00  9.55249411E+00
  9.55249411E+00 -1.91049882E+01  0.00000000E+00  9.55249411E+00  9.55249411E+00
 -1.91049882E+01  0.00000000E+00  9.55249411E+00  9.55249411E+00 -1.91049882E+01
  0.00000000E+00  9.55249411E+00  9.55249411E+00 -1.91049882E+01  0.00000000E+00
  9.55249411E+00  9.55249411E+00 -1.91049882E+01  0.00000000E+00  9.55249411E+00
  9.55249411E+00 -1.91049882E+01  0.00000000E+00  9.55249411E+00  9.55249411E+00
 -1.91049882E+01  0.00000000E+00  9.55249411E+00  9.55249411E+00 -1.91049882E+01
  0.00000000E+00  9.55249411E+00  9.55249411E+00 -1.91049882E+01  0.00000000E+00
  9.55249411E+00  9.55249411E+00 -1.91049882E+01  0.00000000E+00  9.55249411E+00
  9.55249411E+00 -1.91049882E+01  0.00000000E+00  9.55249411E+00  9.55249411E+00
 -1.91049882E+01  0.00000000E+00  9.55249411E+00  9.55249411E+00 -1.91049882E+01
  0.00000000E+00  9.55249411E+00  9.55249411E+00 -1.91049882E+01  0.00000000E+00
  9.55249411E+00  9.55249411E+00 -1.91049882E+01  0.00000000E+00  9.55249411E+00
  9.55249411E+00 -1.91049882E+01  0.00000000E+00  9.55249411E+00  9.55249411E+00
 -1.91049882E+01  0.00000000E+00  9.55249411E+00  9.55249411E+00 -1.91049882E+01
  0.00000000E+00  9.55249411E+00  9.55249411E+00 -1.91049882E+01  0.00000000E+00
  9.55249411E+00  9.55249411E+00 -1.91049882E+01  0.00000000E+00  9.55249411E+00
  9.55249411E+00 -1.91049882E+01  0.00000000E+00  9.55249411E+00  9.55249411E+00
 -1.91049882E+01  0.00000000E+00  9.55249411E+00  9.55249411E+00 -1.91049882E+01
  0.00000000E+00  9.55249411E+00  9.55249411E+00 -1.91049882E+01  0.00000000E+00
  9.55249411E+00  9.55249411E+00 -1.91049882E+01  0.00000000E+00  9.55249411E+00
  9.55249411E+00 -1.91049882E+01  0.00000000E+00  9.55249411E+00  9.55249411E+00
 -1.91049882E+01  0.00000000E+00  9.55249411E+00  9.55249411E+00 -1.91049882E+01
  0.00000000E+00  9.55249411E+00  9.55249411E+00 -1.91049882E+01  0.00000000E+00
  9.55249411E+00  9.55249411E+00 -1.91049882E+01  0.00000000E+00  9.55249411E+00
  9.55249411E+00 -1.91049882E+01  0.00000000E+00  9.55249411E+00  9.55249411E+00
 -1.91049882E+01  0.00000000E+00  9.55249411E+00  9.55249411E+00 -1.91049882E+01
  0.00000000E+00  9.55249411E+00  9.55249411E+00 -1.91049882E+01  0.00000000E+00
  9.55249411E+00  9.55249411E+00 -1.91049882E+01  0.00000000E+00  9.55249411E+00
  9.55249411E+00 -1.91049882E+01  0.00000000E+00  9.55249411E+00  9.55249411E+00
 -1.91049882E+01  0.00000000E+00  9.55249411E+00  9.55249411E+00 -1.91049882E+01
  0.00000000E+00  9.55249411E+00  9.55249411E+00 -1.91049882E+01  0.00000000E+00
  9.55249411E+00  9.55249411E+00 -1.91049882E+01  0.00000000E+00  9.55249411E+00
  9.55249411E+00 -1.91049882E+01  0.00000000E+00  9.55249411E+00  9.55249411E+00
 -1.91049882E+01  0.00000000E+00  9.55249411E+00  9.55249411E+00 -1.91049882E+01
  0.00000000E+00  9.55249411E+00  9.55249411E+00 -1.91049882E+01  0.00000000E+00
  9.55249411E+00  9.55249411E+00 -1.91049882E+01  0.00000000E+00  9.55249411E+00
  9.55249411E+00 -1.91049882E+01  0.00000000E+00  9.55249411E+00  9.55249411E+00
 -1.91049882E+01  0.00000000E+00  9.55249411E+00  9.55249411E+00 -1.91049882E+01
  0.00000000E+00  9.55249411E+00  9.55249411E+00 -1.91049882E+01  0.00000000E+00
  9.55249411E+00  9.55249411E+00 -1.91049882E+01  0.00000000E+00  9.55249411E+00
  9.55249411E+00 -1.91049882E+01  0.00000000E+00  9.55249411E+00  9.55249411E+00
 -1.91049882E+01  0.00000000E+00  9.55249411E+00  9.55249411E+00 -1.91049882E+01
  0.00000000E+00  9.55249411E+00  9.55249411E+00 -1.91049882E+01  0.00000000E+00
  9.55249411E+00  9.55249411E+00 -1.91049882E+01  0.00000000E+00  9.55249411E+00
  9.55249411E+00 -1.91049882E+01  0.00000000E+00  9.55249411E+00  9.55249411E+00
 -1.91049882E+01  0.00000000E+00  9.55249411E+00  9.55249411E+00 -1.91049882E+01
  0.00000000E+00  9.55249411E+00  9.55249411E+00 -1.91049882E+01  0.00000000E+00
  9.55249411E+00  9.55249411E+00 -1.91049882E+01  0.00000000E+00  9.55249411E+00
  9.55249411E+00 -1.91049882E+01  0.00000000E+00  9.55249411E+00  9.55249411E+00
 -1.91049882E+01  0.00000000E+00  9.55249411E+00  9.55249411E+00 -1.91049882E+01
  0.00000000E+00  9.55249411E+00  9.55249411E+00 -1.91049882E+01  0.00000000E+00
  9.55249411E+00  9.55249411E+00 -1.91049882E+01  0.00000000E+00  9.55249411E+00
  9.55249411E+00 -1.91049882E+01  0.00000000E+00  9.55249411E+00  9.55249411E+00
 -1.91049882E+01  0.00000000E+00  9.55249411E+00  9.55249411E+00 -1.91049882E+01
  0.00000000E+00  9.55249411E+00  9.55249411E+00 -1.91049882E+01  0.00000000E+00
  9.55249411E+00  9.55249411E+00 -1.91049882E+01  0.00000000E+00  9.55249411E+00
  9.55249411E+00 -1.91049882E+01  0.00000000E+00  9.55249411E+00  9.55249411E+00
 -1.91049882E+01  0.00000000E+00  9.55249411E+00  9.55249411E+00 -1.91049882E+01
  0.00000000E+00  9.55249411E+00  9.55249411E+00 -1.91049882E+01  0.00000000E+00
  9.55249411E+00  9.55249411E+00 -1.91049882E+01  0.00000000E+00  9.55249411E+00
  9.55249411E+00 -1.91049882E+01  0.00000000E+00  9.55249411E+00  9.55249411E+00
 -1.91049882E+01  0.00000000E+00  9.55249411E+00  9.55249411E+00 -1.91049882E+01
  0.00000000E+00  9.55249411E+00  9.55249411E+00 -1.91049882E+01  0.00000000E+00
  9.55249411E+00  9.55249411E+00 -1.91049882E+01  0.00000000E+00  9.55249411E+00
  9.55249411E+00 -1.91049882E+01  0.00000000E+00  9.55249411E+00  9.55249411E+00
 -1.91049882E+01  0.00000000E+00  9.55249411E+00  9.55249411E+00 -1.91049882E+01
  0.00000000E+00  9.55249411E+00  9.55249411E+00 -1.91049882E+01  0.00000000E+00
  9.55249411E+00  9.55249411E+00 -1.91049882E+01  0.00000000E+00  9.55249411E+00
  9.55249411E+00 -1.91049882E+01  0.00000000E+00  9.55249411E+00  9.55249411E+00
 -1.91049882E+01  0.00000000E+00  9.55249411E+00  9.55249411E+00 -1.91049882E+01
  0.00000000E+00  9.55249411E+00  9.55249411E+00 -1.91049882E+01  0.00000000E+00
  9.55249411E+00  9.55249411E+00 -1.91049882E+01  0.00000000E+00  9.55249411E+00
  9.55249411E+00 -1.91049882E+01  0.00000000E+00  9.55249411E+00  9.55249411E+00
 -1.91049882E+01  0.00000000E+00  9.55249411E+00  9.55249411E+00 -1.91049882E+01
  0.00000000E+00  9.55249411E+00  9.55249411E+00 -1.91049882E+01  0.00000000E+00
  9.55249411E+00  9.55249411E+00 -1.91049882E+01  0.00000000E+00  9.55249411E+00
  9.55249411E+00 -1.91049882E+01  0.00000000E+00  9.55249411E+00  9.55249411E+00
 -1.91049882E+01  0.00000000E+00  9.55249411E+00  9.55249411E+00 -1.91049882E+01
  0.00000000E+00  9.55249411E+00  9.55249411E+00 -1.91049882E+01  0.00000000E+00
  9.55249411E+00  9.55249411E+00 -1.91049882E+01  0.00000000E+00  9.55249411E+00
  9.55249411E+00 -1.91049882E+01  0.00000000E+00  9.55249411E+00  9.55249411E+00
 -1.91049882E+01  0.00000000E+00  9.55249411E+00  9.55249411E+00 -1.91049882E+01
  0.00000000E+00  9.55249411E+00  9.55249411E+00 -1.91049882E+01  0.00000000E+00
  9.55249411E+00  9.55249411E+00 -1.91049882E+01  0.00000000E+00  9.55249411E+00
  9.55249411E+00 -1.91049882E+01  0.00000000E+00  9.55249411E+00  9.55249411E+00
 -1.91049882E+01  0.00000000E+00  9.55249411E+00  9.55249411E+00 -1.91049882E+01
  0.00000000E+00  9.55249411E+00  9.55249411E+00 -1.91049882E+01  0.00000000E+00
  9.55249411E+00  9.55249411E+00 -1.91049882E+01  0.00000000E+00  9.55249411E+00
  9.55249411E+00 -1.91049882E+01  0.00000000E+00  9.55249411E+00  9.55249411E+00
 -1.91049882E+01  0.00000000E+00  9.55249411E+00  9.55249411E+00 -1.91049882E+01
  0.00000000E+00  9.55249411E+00  9.55249411E+00 -1.91049882E+01  0.00000000E+00
  9.55249411E+00  9.55249411E+00 -1.91049882E+01  0.00000000E+00  9.55249411E+00
  9.55249411E+00 -1.91049882E+01  0.00000000E+00  9.55249411E+00  9.55249411E+00
 -1.91049882E+01  0.00000000E+00  9.55249411E+00  9.55249411E+00 -1.91049882E+01
  0.00000000E+00  9.55249411E+00  9.55249411E+00 -1.91049882E+01  0.00000000E+00
  9.55249411E+00  9.55249411E+00 -1.91049882E+01  0.00000000E+00  9.55249411E+00
  9.55249411E+00 -1.91049882E+01  0.00000000E+00  9.55249411E+00  9.55249411E+00
 -1.91049882E+01  0.00000000E+00  9.55249411E+00  9.55249411E+00 -1.91049882E+01
  0.00000000E+00  9.55249411E+00  9.55249411E+00 -1.91049882E+01  0.00000000E+00
  9.55249411E+00  9.55249411E+00 -1.91049882E+01  0.00000000E+00  9.55249411E+00
  9.55249411E+00 -1.91049882E+01  0.00000000E+00  9.55249411E+00  9.55249411E+00
 -1.91049882E+01  0.00000000E+00  9.55249411E+00  9.55249411E+00 -1.91049882E+01
  0.00000000E+00  9.55249411E+00  9.55249411E+00 -1.91049882E+01  0.00000000E+00
  9.55249411E+00  9.55249411E+00 -1.91049882E+01  0.00000000E+00  9.55249411E+00
  9.55249411E+00 -1.91049882E+01  0.00000000E+00  9.55249411E+00  9.55249411E+00
 -1.91049882E+01  0.00000000E+00  9.55249411E+00  9.55249411E+00 -1.91049882E+01
  0.00000000E+00  9.55249411E+00  9.55249411E+00 -1.91049882E+01  0.00000000E+00
  9.55249411E+00  9.55249411E+00 -1.91049882E+01  0.00000000E+00  9.55249411E+00
  9.55249411E+00 -1.91049882E+01  0.00000000E+00  9.55249411E+00  9.55249411E+00
 -1.91049882E+01  0.00000000E+00  9.55249411E+00  9.55249411E+00 -1.91049882E+01
  0.00000000E+00  9.55249411E+00  9.55249411E+00 -1.91049882E+01  0.00000000E+00
  9.55249411E+00  9.55249411E+00 -1.91049882E+01  0.00000000E+00  9.55249411E+00
  9.55249411E+00 -1.91049882E+01  0.00000000E+00  9.55249411E+00  9.55249411E+00
 -1.91049882E+01  0.00000000E+00  9.55249411E+00  9.55249411E+00 -1.91049882E+01
  0.00000000E+00  9.55249411E+00  9.55249411E+00 -1.91049882E+01  0.00000000E+00
  9.55249411E+00  9.55249411E+00 -1.91049882E+01  0.00000000E+00  9.55249411E+00
  9.55249411E+00 -1.91049882E+01  0.00000000E+00  9.55249411E+00  9.55249411E+00
 -1.91049882E+01  0.00000000E+00  9.55249411E+00  9.55249411E+00 -1.91049882E+01
  0.00000000E+00  9.55249411E+00  9.55249411E+00 -1.91049882E+01  0.00000000E+00
  9.55249411E+00  9.55249411E+00 -1.91049882E+01  0.00000000E+00  9.55249411E+00
  9.55249411E+00 -1.91049882E+01  0.00000000E+00  9.55249411E+00  9.55249411E+00
 -1.91049882E+01  0.00000000E+00  9.55249411E+00  9.55249411E+00 -1.91049882E+01
  0.00000000E+00  9.55249411E+00  9.55249411E+00 -1.91049882E+01  0.00000000E+00
  9.55249411E+00  9.55249411E+00 -1.91049882E+01  0.00000000E+00  9.55249411E+00
  9.55249411E+00 -1.91049882E+01  0.00000000E+00  9.55249411E+00  9.55249411E+00
 -1.91049882E+01  0.00000000E+00  9.55249411E+00  9.55249411E+00 -1.91049882E+01
  0.00000000E+00  9.55249411E+00  9.55249411E+00 -1.91049882E+01  0.00000000E+00
  9.55249411E+00  9.55249411E+00 -1.91049882E+01  0.00000000E+00  9.55249411E+00
  9.55249411E+00 -1.91049882E+01  0.00000000E+00  9.55249411E+00  9.55249411E+00
 -1.91049882E+01  0.00000000E+00  9.55249411E+00  9.55249411E+00 -1.91049882E+01
  0.00000000E+00  9.55249411E+00  9.55249411E+00 -1.91049882E+01  0.00000000E+00
  9.55249411E+00  9.55249411E+00 -1.91049882E+01  0.00000000E+00  9.55249411E+00
  9.55249411E+00 -1.91049882E+01  0.00000000E+00  9.55249411E+00  9.55249411E+00
 -1.91049882E+01  0.00000000E+00  9.55249411E+00  9.55249411E+00 -1.91049882E+01
  0.00000000E+00  9.55249411E+00  9.55249411E+00 -1.91049882E+01  0.00000000E+00
  9.55249411E+00  9.55249411E+00 -1.91049882E+01  0.00000000E+00  9.55249411E+00
  9.55249411E+00 -1.91049882E+01  0.00000000E+00  9.55249411E+00  9.55249411E+00
 -1.91049882E+01  0.00000000E+00  9.55249411E+00  9.55249411E+00 -1.91049882E+01
  0.00000000E+00  9.55249411E+00  9.55249411E+00 -1.91049882E+01  0.00000000E+00
  9.55249411E+00  9.55249411E+00 -1.91049882E+01  0.00000000E+00  9.55249411E+00
  9.55249411E+00 -1.91049882E+01  0.00000000E+00  9.55249411E+00  9.55249411E+00
 -1.91049882E+01  0.00000000E+00  9.55249411E+00  9.55249411E+00 -1.91049882E+01
  0.00000000E+00  9.55249411E+00  9.55249411E+00 -1.91049882E+01  0.00000000E+00
  9.55249411E+00  9.55249411E+00 -1.91049882E+01  0.00000000E+00  9.55249411E+00
  9.55249411E+00 -1.91049882E+01  0.00000000E+00  9.55249411E+00  9.55249411E+00
 -1.91049882E+01  0.00000000E+00  9.55249411E+00  9.55249411E+00 -1.91049882E+01
  0.00000000E+00  9.55249411E+00  9.55249411E+00 -1.91049882E+01  0.00000000E+00
  9.55249411E+00  9.55249411E+00 -1.91049882E+01  0.00000000E+00  9.55249411E+00
  9.55249411E+00 -1.91049882E+01  0.00000000E+00  9.55249411E+00  9.55249411E+00
 -1.91049882E+01  0.00000000E+00  9.55249411E+00  9.55249411E+00 -1.91049882E+01
  0.00000000E+00  9.55249411E+00  9.55249411E+00 -1.91049882E+01  0.00000000E+00
  9.55249411E+00  9.55249411E+00 -1.91049882E+01  0.00000000E+00  9.55249411E+00
  9.55249411E+00 -1.91049882E+01  0.00000000E+00  9.55249411E+00  9.55249411E+00
 -1.91049882E+01  0.00000000E+00  9.55249411E+00  9.55249411E+00 -1.91049882E+01
  0.00000000E+00  9.55249411E+00  9.55249411E+00 -1.91049882E+01  0.00000000E+00
  9.55249411E+00  9.55249411E+00 -1.91049882E+01  0.00000000E+00  9.55249411E+00
  9.55249411E+00 -1.91049882E+01  0.00000000E+00  9.55249411E+00  9.55249411E+00
 -1.91049882E+01  0.00000000E+00  9.55249411E+00  9.55249411E+00 -1.91049882E+01
  0.00000000E+00  9.55249411E+00  9.55249411E+00 -1.91049882E+01  0.00000000E+00
  9.55249411E+00  9.55249411E+00 -1.91049882E+01  0.00000000E+00  9.55249411E+00
  9.55249411E+00 -1.91049882E+01  0.00000000E+00  9.55249411E+00  9.55249411E+00
 -1.91049882E+01  0.00000000E+00  9.55249411E+00  9.55249411E+00 -1.91049882E+01
  0.00000000E+00  9.55249411E+00  9.55249411E+00 -1.91049882E+01  0.00000000E+00
  9.55249411E+00  9.55249411E+00 -1.91049882E+01  0.00000000E+00  9.55249411E+00
  9.55249411E+00 -1.91049882E+01  0.00000000E+00  9.55249411E+00  9.55249411E+00
 -1.91049882E+01  0.00000000E+00  9.55249411E+00  9.55249411E+00 -1.91049882E+01
  0.00000000E+00  9.55249411E+00  9.55249411E+00 -1.91049882E+01  0.00000000E+00
  9.55249411E+00  9.55249411E+00 -1.91049882E+01  0.00000000E+00  9.55249411E+00
  9.55249411E+00 -1.91049882E+01  0.00000000E+00  9.55249411E+00  9.55249411E+00
 -1.91049882E+01  0.00000000E+00  9.55249411E+00  9.55249411E+00 -1.91049882E+01
  0.00000000E+00  9.55249411E+00  9.55249411E+00 -1.91049882E+01  0.00000000E+00
  9.55249411E+00  9.55249411E+00 -1.91049882E+01  0.00000000E+00  9.55249411E+00
  9.55249411E+00 -1.91049882E+01  0.00000000E+00  9.55249411E+00  9.55249411E+00
 -1.91049882E+01  0.00000000E+00  9.55249411E+00  9.55249411E+00 -1.91049882E+01
  0.00000000E+00  9.55249411E+00  9.55249411E+00 -1.91049882E+01  0.00000000E+00
  9.55249411E+00  9.55249411E+00 -1.91049882E+01  0.00000000E+00  9.55249411E+00
  9.55249411E+00 -1.91049882E+01  0.00000000E+00  9.55249411E+00  9.55249411E+00
 -1.91049882E+01  0.00000000E+00  9.55249411E+00  9.55249411E+00 -1.91049882E+01
  0.00000000E+00  9.55249411E+00  9.55249411E+00 -1.91049882E+01  0.00000000E+00
  9.55249411E+00  9.55249411E+00 -1.91049882E+01  0.00000000E+00  9.55249411E+00
  9.55249411E+00 -1.91049882E+01  0.00000000E+00  9.55249411E+00  9.55249411E+00
 -1.91049882E+01  0.00000000E+00  9.55249411E+00  9.55249411E+00 -1.91049882E+01
  0.00000000E+00  9.55249411E+00  9.55249411E+00 -1.91049882E+01  0.00000000E+00
  9.55249411E+00  9.55249411E+00 -1.91049882E+01  0.00000000E+00  9.55249411E+00
  9.55249411E+00 -1.91049882E+01  0.00000000E+00  9.55249411E+00  9.55249411E+00
 -1.91049882E+01  0.00000000E+00  9.55249411E+00  9.55249411E+00 -1.91049882E+01
  0.00000000E+00  9.55249411E+00  9.55249411E+00 -1.91049882E+01  0.00000000E+00
  9.55249411E+00  9.55249411E+00 -1.91049882E+01  0.00000000E+00  9.55249411E+00
  9.55249411E+00 -1.91049882E+01  0.00000000E+00  9.55249411E+00  9.55249411E+00
 -1.91049882E+01  0.00000000E+00  9.55249411E+00  9.55249411E+00 -1.91049882E+01
  0.00000000E+00  9.55249411E+00  9.55249411E+00 -1.91049882E+01  0.00000000E+00
  9.55249411E+00  9.55249411E+00 -1.91049882E+01  0.00000000E+00  9.55249411E+00
  9.55249411E+00 -1.91049882E+01  0.00000000E+00  9.55249411E+00  9.55249411E+00
 -1.91049882E+01  0.00000000E+00  9.55249411E+00  9.55249411E+00 -1.91049882E+01
  0.00000000E+00  9.55249411E+00  9.55249411E+00 -1.91049882E+01  0.00000000E+00
  9.55249411E+00  9.55249411E+00 -1.91049882E+01  0.00000000E+00  9.55249411E+00
  9.55249411E+00 -1.91049882E+01  0.00000000E+00  9.55249411E+00  9.55249411E+00
 -1.91049882E+01  0.00000000E+00  9.55249411E+00  9.55249411E+00 -1.91049882E+01
  0.00000000E+00  9.55249411E+00  9.55249411E+00 -1.91049882E+01  0.00000000E+00
  9.55249411E+00  9.55249411E+00 -1.91049882E+01  0.00000000E+00  9.55249411E+00
  9.55249411E+00 -1.91049882E+01  0.00000000E+00  9.55249411E+00  9.55249411E+00
 -1.91049882E+01  0.00000000E+00  9.55249411E+00  9.55249411E+00 -1.91049882E+01
  0.00000000E+00  9.55249411E+00  9.55249411E+00 -1.91049882E+01  0.00000000E+00
  9.55249411E+00  9.55249411E+00 -1.91049882E+01  0.00000000E+00  9.55249411E+00
  9.55249411E+00 -1.91049882E+01  0.00000000E+00  9.55249411E+00  9.55249411E+00
 -1.91049882E+01  0.00000000E+00  9.55249411E+00  9.55249411E+00 -1.91049882E+01
  0.00000000E+00  9.55249411E+00  9.55249411E+00 -1.91049882E+01  0.00000000E+00
  9.55249411E+00  9.55249411E+00 -1.91049882E+01  0.00000000E+00  9.55249411E+00
  9.55249411E+00 -1.91049882E+01  0.00000000E+00  9.55249411E+00  9.55249411E+00
 -1.91049882E+01  0.00000000E+00  9.55249411E+00  9.55249411E+00 -1.91049882E+01
  0.00000000E+00  9.55249411E+00  9.55249411E+00 -1.91049882E+01  0.00000000E+00
  9.55249411E+00  9.55249411E+00 -1.91049882E+01  0.00000000E+00  9.55249411E+00
  9.55249411E+00 -1.91049882E+01  0.00000000E+00  9.55249411E+00  9.55249411E+00
 -1.91049882E+01  0.00000000E+00  9.55249411E+00  9.55249411E+00 -1.91049882E+01
  0.00000000E+00  9.55249411E+00  9.55249411E+00 -1.91049882E+01  0.00000000E+00
  9.55249411E+00  9.55249411E+00 -1.91049882E+01  0.00000000E+00  9.55249411E+00
  9.55249411E+00 -1.91049882E+01  0.00000000E+00  9.55249411E+00  9.55249411E+00
 -1.91049882E+01  0.00000000E+00  9.55249411E+00  9.55249411E+00 -1.91049882E+01
  0.00000000E+00  9.55249411E+00  9.55249411E+00 -1.91049882E+01  0.00000000E+00
  9.55249411E+00  9.55249411E+00 -1.91049882E+01  0.00000000E+00  9.55249411E+00
  9.55249411E+00 -1.91049882E+01  0.00000000E+00  9.55249411E+00  9.55249411E+00
 -1.91049882E+01  0.00000000E+00  9.55249411E+00  9.55249411E+00 -1.91049882E+01
  0.00000000E+00  9.55249411E+00  9.55249411E+00 -1.91049882E+01  0.00000000E+00
  9.55249411E+00  9.55249411E+00 -1.91049882E+01  0.00000000E+00  9.55249411E+00
  9.55249411E+00 -1.91049882E+01  0.00000000E+00  9.55249411E+00  9.55249411E+00
 -1.91049882E+01  0.00000000E+00  9.55249411E+00  9.55249411E+00 -1.91049882E+01
  0.00000000E+00  9.55249411E+00  9.55249411E+00 -1.91049882E+01  0.00000000E+00
  9.55249411E+00  9.55249411E+00 -1.91049882E+01  0.00000000E+00  9.55249411E+00
  9.55249411E+00 -1.91049882E+01  0.00000000E+00  9.55249411E+00  9.55249411E+00
 -1.91049882E+01  0.00000000E+00  9.55249411E+00  9.55249411E+00 -1.91049882E+01
  0.00000000E+00  9.55249411E+00  9.55249411E+00 -1.91049882E+01  0.00000000E+00
  9.55249411E+00  9.55249411E+00 -1.91049882E+01  0.00000000E+00  9.55249411E+00
  9.55249411E+00 -1.91049882E+01  0.00000000E+00  9.55249411E+00  9.55249411E+00
 -1.91049882E+01  0.00000000E+00  9.55249411E+00  9.55249411E+00 -1.91049882E+01
  0.00000000E+00  9.55249411E+00  9.55249411E+00 -1.91049882E+01  0.00000000E+00
  9.55249411E+00  9.55249411E+00 -1.91049882E+01  0.00000000E+00  9.55249411E+00
  9.55249411E+00 -1.91049882E+01  0.00000000E+00  9.55249411E+00  9.55249411E+00
 -1.91049882E+01  0.00000000E+00  9.55249411E+00  9.55249411E+00 -1.91049882E+01
  0.00000000E+00  9.55249411E+00  9.55249411E+00 -1.91049882E+01  0.00000000E+00
  9.55249411E+00  9.55249411E+00 -1.91049882E+01  0.00000000E+00  9.55249411E+00
  9.55249411E+00 -1.91049882E+01  0.00000000E+00  9.55249411E+00  9.55249411E+00
 -1.91049882E+01  0.00000000E+00  9.55249411E+00  9.55249411E+00 -1.91049882E+01
  0.00000000E+00  9.55249411E+00  9.55249411E+00 -1.91049882E+01  0.00000000E+00
  9.55249411E+00  9.55249411E+00 -1.91049882E+01  0.00000000E+00  9.55249411E+00
  9.55249411E+00 -1.91049882E+01  0.00000000E+00  9.55249411E+00  9.55249411E+00
 -1.91049882E+01  0.00000000E+00  9.55249411E+00  9.55249411E+00 -1.91049882E+01
  0.00000000E+00  9.55249411E+00  9.55249411E+00 -1.91049882E+01  0.00000000E+00
  9.55249411E+00  9.55249411E+00 -1.91049882E+01  0.00000000E+00  9.55249411E+00
  9.55249411E+00 -1.91049882E+01  0.00000000E+00  9.55249411E+00  9.55249411E+00
 -1.91049882E+01  0.00000000E+00  9.55249411E+00  9.55249411E+00 -1.91049882E+01
  0.00000000E+00  9.55249411E+00  9.55249411E+00 -1.91049882E+01  0.00000000E+00
  9.55249411E+00  9.55249411E+00 -1.91049882E+01  0.00000000E+00  9.55249411E+00
  9.55249411E+00 -1.91049882E+01  0.00000000E+00  9.55249411E+00  9.55249411E+00
 -1.91049882E+01  0.00000000E+00  9.55249411E+00  9.55249411E+00 -1.91049882E+01
  0.00000000E+00  9.55249411E+00  9.55249411E+00 -1.91049882E+01  0.00000000E+00
  9.55249411E+00  9.55249411E+00 -1.91049882E+01  0.00000000E+00  9.55249411E+00
  9.55249411E+00 -1.91049882E+01  0.00000000E+00  9.55249411E+00  9.55249411E+00
 -1.91049882E+01  0.00000000E+00  9.55249411E+00  9.55249411E+00 -1.91049882E+01
  0.00000000E+00  9.55249411E+00  9.55249411E+00 -1.91049882E+01  0.00000000E+00
  9.55249411E+00  9.55249411E+00 -1.91049882E+01  0.00000000E+00  9.55249411E+00
  9.55249411E+00 -1.91049882E+01  0.00000000E+00  9.55249411E+00  9.55249411E+00
 -1.91049882E+01  0.00000000E+00  9.55249411E+00  9.55249411E+00 -1.91049882E+01
  0.00000000E+00  9.55249411E+00  9.55249411E+00 -1.91049882E+01  0.00000000E+00
  9.55249411E+00  9.55249411E+00 -1.91049882E+01  0.00000000E+00  9.55249411E+00
  9.55249411E+00 -1.91049882E+01  0.00000000E+00  9.55249411E+00  9.55249411E+00
 -1.91049882E+01  0.00000000E+00  9.55249411E+00  9.55249411E+00 -1.91049882E+01
  0.00000000E+00  9.55249411E+00  9.55249411E+00 -1.91049882E+01  0.00000000E+00
  9.55249411E+00  9.55249411E+00 -1.91049882E+01  0.00000000E+00  9.55249411E+00
  9.55249411E+00 -1.91049882E+01  0.00000000E+00  9.55249411E+00  9.55249411E+00
 -1.91049882E+01  0.00000000E+00  9.55249411E+00  9.55249411E+00 -1.91049882E+01
  0.00000000E+00  9.55249411E+00  9.55249411E+00 -1.91049882E+01  0.00000000E+00
  9.55249411E+00  9.55249411E+00 -1.91049882E+01  0.00000000E+00  9.55249411E+00
  9.55249411E+00 -1.91049882E+01  0.00000000E+00  9.55249411E+00  9.55249411E+00
 -1.91049882E+01  0.00000000E+00  9.55249411E+00  9.55249411E+00 -1.91049882E+01
  0.00000000E+00  9.55249411E+00  9.55249411E+00 -1.91049882E+01  0.00000000E+00
  9.55249411E+00  9.55249411E+00 -1.91049882E+01  0.00000000E+00  9.55249411E+00
  9.55249411E+00 -1.91049882E+01  0.00000000E+00  9.55249411E+00  9.55249411E+00
 -1.91049882E+01  0.00000000E+00  9.55249411E+00  9.55249411E+00 -1.91049882E+01
  0.00000000E+00  9.55249411E+00  9.55249411E+00 -1.91049882E+01  0.00000000E+00
  9.55249411E+00  9.55249411E+00 -1.91049882E+01  0.00000000E+00  9.55249411E+00
  9.55249411E+00 -1.91049882E+01  0.00000000E+00  9.55249411E+00  9.55249411E+00
 -1.91049882E+01  0.00000000E+00  9.55249411E+00  9.55249411E+00 -1.91049882E+01
  0.00000000E+00  9.55249411E+00  9.55249411E+00 -1.91049882E+01  0.00000000E+00
  9.55249411E+00  9.55249411E+00 -1.91049882E+01  0.00000000E+00  9.55249411E+00
  9.55249411E+00 -1.91049882E+01  0.00000000E+00  9.55249411E+00  9.55249411E+00
 -1.91049882E+01  0.00000000E+00  9.55249411E+00  9.55249411E+00 -1.91049882E+01
  0.00000000E+00  9.55249411E+00  9.55249411E+00 -1.91049882E+01  0.00000000E+00
  9.55249411E+00  9.55249411E+00 -1.91049882E+01  0.00000000E+00  9.55249411E+00
  9.55249411E+00 -1.91049882E+01  0.00000000E+00  9.55249411E+00  9.55249411E+00
 -1.91049882E+01  0.00000000E+00  9.55249411E+00  9.55249411E+00 -1.91049882E+01
  0.00000000E+00  9.55249411E+00  9.55249411E+00 -1.91049882E+01  0.00000000E+00
  9.55249411E+00  9.55249411E+00 -1.91049882E+01  0.00000000E+00  9.55249411E+00
  9.55249411E+00 -1.91049882E+01  0.00000000E+00  9.55249411E+00  9.55249411E+00
 -1.91049882E+01  0.00000000E+00  9.55249411E+00  9.55249411E+00 -1.91049882E+01
  0.00000000E+00  9.55249411E+00  9.55249411E+00 -1.91049882E+01  0.00000000E+00
  9.55249411E+00  9.55249411E+00 -1.91049882E+01  0.00000000E+00  9.55249411E+00
  9.55249411E+00 -1.91049882E+01  0.00000000E+00  9.55249411E+00  9.55249411E+00
 -1.91049882E+01  0.00000000E+00  9.55249411E+00  9.55249411E+00 -1.91049882E+01
  0.00000000E+00  9.55249411E+00  9.55249411E+00 -1.91049882E+01  0.00000000E+00
  9.55249411E+00  9.55249411E+00 -1.91049882E+01  0.00000000E+00  9.55249411E+00
  9.55249411E+00 -1.91049882E+01  0.00000000E+00  9.55249411E+00  9.55249411E+00
 -1.91049882E+01  0.00000000E+00  9.55249411E+00  9.55249411E+00 -1.91049882E+01
  0.00000000E+00  9.55249411E+00  9.55249411E+00 -1.91049882E+01  0.00000000E+00
  9.55249411E+00  9.55249411E+00 -1.91049882E+01  0.00000000E+00  9.55249411E+00
  9.55249411E+00 -1.91049882E+01  0.00000000E+00  9.55249411E+00  9.55249411E+00
 -1.91049882E+01  0.00000000E+00  9.55249411E+00  9.55249411E+00 -1.91049882E+01
  0.00000000E+00  9.55249411E+00  9.55249411E+00 -1.91049882E+01  0.00000000E+00
  9.55249411E+00  9.55249411E+00 -1.91049882E+01  0.00000000E+00  9.55249411E+00
  9.55249411E+00 -1.91049882E+01  0.00000000E+00  9.55249411E+00  9.55249411E+00
 -1.91049882E+01  0.00000000E+00  9.55249411E+00  9.55249411E+00 -1.91049882E+01
  0.00000000E+00  9.55249411E+00  9.55249411E+00 -1.91049882E+01  0.00000000E+00
  9.55249411E+00  9.55249411E+00 -1.91049882E+01  0.00000000E+00  9.55249411E+00
  9.55249411E+00 -1.91049882E+01  0.00000000E+00  9.55249411E+00  9.55249411E+00
 -1.91049882E+01  0.00000000E+00  9.55249411E+00  9.55249411E+00 -1.91049882E+01
  0.00000000E+00  9.55249411E+00  9.55249411E+00 -1.91049882E+01  0.00000000E+00
  9.55249411E+00  9.55249411E+00 -1.91049882E+01  0.00000000E+00  9.55249411E+00
  9.55249411E+00 -1.91049882E+01  0.00000000E+00  9.55249411E+00  9.55249411E+00
 -1.91049882E+01  0.00000000E+00  9.55249411E+00  9.55249411E+00 -1.91049882E+01
  0.00000000E+00  9.55249411E+00  9.55249411E+00 -1.91049882E+01  0.00000000E+00
  9.55249411E+00  9.55249411E+00 -1.91049882E+01  0.00000000E+00  9.55249411E+00
  9.55249411E+00 -1.91049882E+01  0.00000000E+00  9.55249411E+00  9.55249411E+00
 -1.91049882E+01  0.00000000E+00  9.55249411E+00  9.55249411E+00 -1.91049882E+01
  0.00000000E+00  9.55249411E+00  9.55249411E+00 -1.91049882E+01  0.00000000E+00
  9.55249411E+00  9.55249411E+00 -1.91049882E+01  0.00000000E+00  9.55249411E+00
  9.55249411E+00 -1.91049882E+01  0.00000000E+00  9.55249411E+00  9.55249411E+00
 -1.91049882E+01  0.00000000E+00  9.55249411E+00  9.55249411E+00 -1.91049882E+01
  0.00000000E+00  9.55249411E+00  9.55249411E+00 -1.91049882E+01  0.00000000E+00
  9.55249411E+00  9.55249411E+00 -1.91049882E+01  0.00000000E+00  9.55249411E+00
  9.55249411E+00 -1.91049882E+01  0.00000000E+00  9.55249411E+00  9.55249411E+00
 -1.91049882E+01  0.00000000E+00  9.55249411E+00  9.55249411E+00 -1.91049882E+01
  0.00000000E+00  9.55249411E+00  9.55249411E+00 -1.91049882E+01  0.00000000E+00
  9.55249411E+00  9.55249411E+00 -1.91049882E+01  0.00000000E+00  9.55249411E+00
  9.55249411E+00 -1.91049882E+01  0.00000000E+00  9.55249411E+00  9.55249411E+00
 -1.91049882E+01  0.00000000E+00  9.55249411E+00  9.55249411E+00 -1.91049882E+01
  0.00000000E+00  9.55249411E+00  9.55249411E+00 -1.91049882E+01  0.00000000E+00
  9.55249411E+00  9.55249411E+00 -1.91049882E+01  0.00000000E+00  9.55249411E+00
  9.55249411E+00 -1.91049882E+01  0.00000000E+00  9.55249411E+00  9.55249411E+00
 -1.91049882E+01  0.00000000E+00  9.55249411E+00  9.55249411E+00 -1.91049882E+01
  0.00000000E+00  9.55249411E+00  9.55249411E+00 -1.91049882E+01  0.00000000E+00
  9.55249411E+00  9.55249411E+00 -1.91049882E+01  0.00000000E+00  9.55249411E+00
  9.55249411E+00 -1.91049882E+01  0.00000000E+00  9.55249411E+00  9.55249411E+00
 -1.91049882E+01  0.00000000E+00  9.55249411E+00  9.55249411E+00 -1.91049882E+01
  0.00000000E+00  9.55249411E+00  9.55249411E+00 -1.91049882E+01  0.00000000E+00
  9.55249411E+00  9.55249411E+00 -1.91049882E+01  0.00000000E+00  9.55249411E+00
  9.55249411E+00 -1.91049882E+01  0.00000000E+00  9.55249411E+00  9.55249411E+00
 -1.91049882E+01  0.00000000E+00  9.55249411E+00  9.55249411E+00 -1.91049882E+01
  0.00000000E+00  9.55249411E+00  9.55249411E+00 -1.91049882E+01  0.00000000E+00
  9.55249411E+00  9.55249411E+00 -1.91049882E+01  0.00000000E+00  9.55249411E+00
  9.55249411E+00 -1.91049882E+01  0.00000000E+00  9.55249411E+00  9.55249411E+00
 -1.91049882E+01  0.00000000E+00  9.55249411E+00  9.55249411E+00 -1.91049882E+01
  0.00000000E+00  9.55249411E+00  9.55249411E+00 -1.91049882E+01  0.00000000E+00
  9.55249411E+00  9.55249411E+00 -1.91049882E+01  0.00000000E+00  9.55249411E+00
  9.55249411E+00 -1.91049882E+01  0.00000000E+00  9.55249411E+00  9.55249411E+00
 -1.91049882E+01  0.00000000E+00  9.55249411E+00  9.55249411E+00 -1.91049882E+01
  0.00000000E+00  9.55249411E+00  9.55249411E+00 -1.91049882E+01  0.00000000E+00
  9.55249411E+00  9.55249411E+00 -1.91049882E+01  0.00000000E+00  9.55249411E+00
  9.55249411E+00 -1.91049882E+01  0.00000000E+00  9.55249411E+00  9.55249411E+00
 -1.91049882E+01  0.00000000E+00  9.55249411E+00  9.55249411E+00 -1.91049882E+01
  0.00000000E+00  9.55249411E+00  9.55249411E+00 -1.91049882E+01  0.00000000E+00
  9.55249411E+00  9.55249411E+00 -1.91049882E+01  0.00000000E+00  9.55249411E+00
  9.55249411E+00 -1.91049882E+01  0.00000000E+00  9.55249411E+00  9.55249411E+00
 -1.91049882E+01  0.00000000E+00  9.55249411E+00  9.55249411E+00 -1.91049882E+01
  0.00000000E+00  9.55249411E+00  9.55249411E+00 -1.91049882E+01  0.00000000E+00
  9.55249411E+00  9.55249411E+00 -1.91049882E+01  0.00000000E+00  9.55249411E+00
  9.55249411E+00 -1.91049882E+01  0.00000000E+00  9.55249411E+00  9.55249411E+00
 -1.91049882E+01  0.00000000E+00  9.55249411E+00  9.55249411E+00 -1.91049882E+01
  0.00000000E+00  9.55249411E+00  9.55249411E+00 -1.91049882E+01  0.00000000E+00
  9.55249411E+00  9.55249411E+00 -1.91049882E+01  0.00000000E+00  9.55249411E+00
  9.55249411E+00 -1.91049882E+01  0.00000000E+00  9.55249411E+00  9.55249411E+00
 -1.91049882E+01  0.00000000E+00  9.55249411E+00  9.55249411E+00 -1.91049882E+01
  0.00000000E+00  9.55249411E+00  9.55249411E+00 -1.91049882E+01  0.00000000E+00
  9.55249411E+00  9.55249411E+00 -1.91049882E+01  0.00000000E+00  9.55249411E+00
  9.55249411E+00 -1.91049882E+01  0.00000000E+00  9.55249411E+00  9.55249411E+00
 -1.91049882E+01  0.00000000E+00  9.55249411E+00  9.55249411E+00 -1.91049882E+01
  0.00000000E+00  9.55249411E+00  9.55249411E+00 -1.91049882E+01  0.00000000E+00
  9.55249411E+00  9.55249411E+00 -1.91049882E+01  0.00000000E+00  9.55249411E+00
  9.55249411E+00 -1.91049882E+01  0.00000000E+00  9.55249411E+00  9.55249411E+00
 -1.91049882E+01  0.00000000E+00  9.55249411E+00  9.55249411E+00 -1.91049882E+01
  0.00000000E+00  9.55249411E+00  9.55249411E+00 -1.91049882E+01  0.00000000E+00
  9.55249411E+00  9.55249411E+00 -1.91049882E+01  0.00000000E+00  9.55249411E+00
  9.55249411E+00 -1.91049882E+01  0.00000000E+00  9.55249411E+00  9.55249411E+00
 -1.91049882E+01  0.00000000E+00  9.55249411E+00  9.55249411E+00 -1.91049882E+01
  0.00000000E+00  9.55249411E+00  9.55249411E+00 -1.91049882E+01  0.00000000E+00
  9.55249411E+00  9.55249411E+00 -1.91049882E+01  0.00000000E+00  9.55249411E+00
  9.55249411E+00 -1.91049882E+01  0.00000000E+00  9.55249411E+00  9.55249411E+00
 -1.91049882E+01  0.00000000E+00  9.55249411E+00  9.55249411E+00 -1.91049882E+01
  0.00000000E+00  9.55249411E+00  9.55249411E+00 -1.91049882E+01  0.00000000E+00
  9.55249411E+00  9.55249411E+00 -1.91049882E+01  0.00000000E+00  9.55249411E+00
  9.55249411E+00 -1.91049882E+01  0.00000000E+00  9.55249411E+00  9.55249411E+00
 -1.91049882E+01  0.00000000E+00  9.55249411E+00  9.55249411E+00 -1.91049882E+01
  0.00000000E+00  9.55249411E+00  9.55249411E+00 -1.91049882E+01  0.00000000E+00
  9.55249411E+00  9.55249411E+00 -1.91049882E+01  0.00000000E+00  9.55249411E+00
  9.55249411E+00 -1.91049882E+01  0.00000000E+00  9.55249411E+00  9.55249411E+00
 -1.91049882E+01  0.00000000E+00  9.55249411E+00  9.55249411E+00 -1.91049882E+01
  0.00000000E+00  9.55249411E+00  9.55249411E+00 -1.91049882E+01  0.00000000E+00
  9.55249411E+00  9.55249411E+00 -1.91049882E+01  0.00000000E+00  9.55249411E+00
  9.55249411E+00 -1.91049882E+01  0.00000000E+00  9.55249411E+00  9.55249411E+00
 -1.91049882E+01  0.00000000E+00  9.55249411E+00  9.55249411E+00 -1.91049882E+01
  0.00000000E+00  9.55249411E+00  9.55249411E+00 -1.91049882E+01  0.00000000E+00
  9.55249411E+00  9.55249411E+00 -1.91049882E+01  0.00000000E+00  9.55249411E+00
  9.55249411E+00 -1.91049882E+01  0.00000000E+00  9.55249411E+00  9.55249411E+00
 -1.91049882E+01  0.00000000E+00  9.55249411E+00  9.55249411E+00 -1.91049882E+01
  0.00000000E+00  9.55249411E+00  9.55249411E+00 -1.91049882E+01  0.00000000E+00
  9.55249411E+00  9.55249411E+00 -1.91049882E+01  0.00000000E+00  9.55249411E+00
  9.55249411E+00 -1.91049882E+01  0.00000000E+00  9.55249411E+00  9.55249411E+00
 -1.91049882E+01  0.00000000E+00  9.55249411E+00  9.55249411E+00 -1.91049882E+01
  0.00000000E+00  9.55249411E+00  9.55249411E+00 -1.91049882E+01  0.00000000E+00
  9.55249411E+00  9.55249411E+00 -1.91049882E+01  0.00000000E+00  9.55249411E+00
  9.55249411E+00 -1.91049882E+01  0.00000000E+00  9.55249411E+00  9.55249411E+00
 -1.91049882E+01  0.00000000E+00  9.55249411E+00  9.55249411E+00 -1.91049882E+01
  0.00000000E+00  9.55249411E+00  9.55249411E+00 -1.91049882E+01  0.00000000E+00
  9.55249411E+00  9.55249411E+00 -1.91049882E+01  0.00000000E+00  9.55249411E+00
  9.55249411E+00 -1.91049882E+01  0.00000000E+00  9.55249411E+00  9.55249411E+00
 -1.91049882E+01  0.00000000E+00  9.55249411E+00  9.55249411E+00 -1.91049882E+01
  0.00000000E+00  9.55249411E+00  9.55249411E+00 -1.91049882E+01  0.00000000E+00
  9.55249411E+00  9.55249411E+00 -1.91049882E+01  0.00000000E+00  9.55249411E+00
  9.55249411E+00 -1.91049882E+01  0.00000000E+00  9.55249411E+00  9.55249411E+00
 -1.91049882E+01  0.00000000E+00  9.55249411E+00  9.55249411E+00 -1.91049882E+01
  0.00000000E+00  9.55249411E+00  9.55249411E+00 -1.91049882E+01  0.00000000E+00
  9.55249411E+00  9.55249411E+00 -1.91049882E+01  0.00000000E+00  9.55249411E+00
  9.55249411E+00 -1.91049882E+01  0.00000000E+00  9.55249411E+00  9.55249411E+00
 -1.91049882E+01  0.00000000E+00  9.55249411E+00  9.55249411E+00 -1.91049882E+01
  0.00000000E+00  9.55249411E+00  9.55249411E+00 -1.91049882E+01  0.00000000E+00
  9.55249411E+00  9.55249411E+00 -1.91049882E+01  0.00000000E+00  9.55249411E+00
  9.55249411E+00 -1.91049882E+01  0.00000000E+00  9.55249411E+00  9.55249411E+00
 -1.91049882E+01  0.00000000E+00  9.55249411E+00  9.55249411E+00 -1.91049882E+01
  0.00000000E+00  9.55249411E+00  9.55249411E+00 -1.91049882E+01  0.00000000E+00
  9.55249411E+00  9.55249411E+00 -1.91049882E+01  0.00000000E+00  9.55249411E+00
  9.55249411E+00 -1.91049882E+01  0.00000000E+00  9.55249411E+00  9.55249411E+00
 -1.91049882E+01  0.00000000E+00  9.55249411E+00  9.55249411E+00 -1.91049882E+01
  0.00000000E+00  9.55249411E+00  9.55249411E+00 -1.91049882E+01  0.00000000E+00
  9.55249411E+00  9.55249411E+00 -1.91049882E+01  0.00000000E+00  9.55249411E+00
  9.55249411E+00 -1.91049882E+01  0.00000000E+00  9.55249411E+00  9.55249411E+00
 -1.91049882E+01  0.00000000E+00  9.55249411E+00  9.55249411E+00 -1.91049882E+01
  0.00000000E+00  9.55249411E+00  9.55249411E+00 -1.91049882E+01  0.00000000E+00
  9.55249411E+00  9.55249411E+00 -1.91049882E+01  0.00000000E+00  9.55249411E+00
  9.55249411E+00 -1.91049882E+01  0.00000000E+00  9.55249411E+00  9.55249411E+00
 -1.91049882E+01  0.00000000E+00  9.55249411E+00  9.55249411E+00 -1.91049882E+01
  0.00000000E+00  9.55249411E+00  9.55249411E+00 -1.91049882E+01  0.00000000E+00
  9.55249411E+00  9.55249411E+00 -1.91049882E+01  0.00000000E+00  9.55249411E+00
  9.55249411E+00 -1.91049882E+01  0.00000000E+00  9.55249411E+00  9.55249411E+00
 -1.91049882E+01  0.00000000E+00  9.55249411E+00  9.55249411E+00 -1.91049882E+01
  0.00000000E+00  9.55249411E+00  9.55249411E+00 -1.91049882E+01  0.00000000E+00
  9.55249411E+00  9.55249411E+00 -1.91049882E+01  0.00000000E+00  9.55249411E+00
  9.55249411E+00 -1.91049882E+01  0.00000000E+00  9.55249411E+00  9.55249411E+00
 -1.91049882E+01  0.00000000E+00  9.55249411E+00  9.55249411E+00 -1.91049882E+01
  0.00000000E+00  9.55249411E+00  9.55249411E+00 -1.91049882E+01  0.00000000E+00
  9.55249411E+00  9.55249411E+00 -1.91049882E+01  0.00000000E+00  9.55249411E+00
  9.55249411E+00 -1.91049882E+01  0.00000000E+00  9.55249411E+00  9.55249411E+00
 -1.91049882E+01  0.00000000E+00  9.55249411E+00  9.55249411E+00 -1.91049882E+01
  0.00000000E+00  9.55249411E+00  9.55249411E+00 -1.91049882E+01  0.00000000E+00
  9.55249411E+00  9.55249411E+00 -1.91049882E+01  0.00000000E+00  9.55249411E+00
  9.55249411E+00 -1.91049882E+01  0.00000000E+00  9.55249411E+00  9.55249411E+00
 -1.91049882E+01  0.00000000E+00  9.55249411E+00  9.55249411E+00 -1.91049882E+01
  0.00000000E+00  9.55249411E+00  9.55249411E+00 -1.91049882E+01  0.00000000E+00
  9.55249411E+00  9.55249411E+00 -1.91049882E+01  0.00000000E+00  9.55249411E+00
  9.55249411E+00 -1.91049882E+01  0.00000000E+00  9.55249411E+00  9.55249411E+00
 -1.91049882E+01  0.00000000E+00  9.55249411E+00  9.55249411E+00 -1.91049882E+01
  0.00000000E+00  9.55249411E+00  9.55249411E+00 -1.91049882E+01  0.00000000E+00
  9.55249411E+00  9.55249411E+00 -1.91049882E+01  0.00000000E+00  9.55249411E+00
  9.55249411E+00 -1.91049882E+01  0.00000000E+00  9.55249411E+00  9.55249411E+00
 -1.91049882E+01  0.00000000E+00  9.55249411E+00  9.55249411E+00 -1.91049882E+01
  0.00000000E+00  9.55249411E+00  9.55249411E+00 -1.91049882E+01  0.00000000E+00
  9.55249411E+00  9.55249411E+00 -1.91049882E+01  0.00000000E+00  9.55249411E+00
  9.55249411E+00 -1.91049882E+01  0.00000000E+00  9.55249411E+00  9.55249411E+00
 -1.91049882E+01  0.00000000E+00  9.55249411E+00  9.55249411E+00 -1.91049882E+01
  0.00000000E+00  9.55249411E+00  9.55249411E+00 -1.91049882E+01  0.00000000E+00
  9.55249411E+00  9.55249411E+00 -1.91049882E+01  0.00000000E+00  9.55249411E+00
  9.55249411E+00 -1.91049882E+01  0.00000000E+00  9.55249411E+00  9.55249411E+00
 -1.91049882E+01  0.00000000E+00  9.55249411E+00  9.55249411E+00 -1.91049882E+01
  0.00000000E+00  9.55249411E+00  9.55249411E+00 -1.91049882E+01  0.00000000E+00
  9.55249411E+00  9.55249411E+00 -1.91049882E+01  0.00000000E+00  9.55249411E+00
  9.55249411E+00 -1.91049882E+01  0.00000000E+00  9.55249411E+00  9.55249411E+00
 -1.91049882E+01  0.00000000E+00  9.55249411E+00  9.55249411E+00 -1.91049882E+01
  0.00000000E+00  9.55249411E+00  9.55249411E+00 -1.91049882E+01  0.00000000E+00
  9.55249411E+00  9.55249411E+00 -1.91049882E+01  0.00000000E+00  9.55249411E+00
  9.55249411E+00 -1.91049882E+01  0.00000000E+00  9.55249411E+00  9.55249411E+00
 -1.91049882E+01  0.00000000E+00  9.55249411E+00  9.55249411E+00 -1.91049882E+01
  0.00000000E+00  9.55249411E+00  9.55249411E+00 -1.91049882E+01  0.00000000E+00
  9.55249411E+00  9.55249411E+00 -1.91049882E+01  0.00000000E+00  9.55249411E+00
  9.55249411E+00 -1.91049882E+01  0.00000000E+00  9.55249411E+00  9.55249411E+00
 -1.91049882E+01  0.00000000E+00  9.55249411E+00  9.55249411E+00 -1.91049882E+01
  0.00000000E+00  9.55249411E+00  9.55249411E+00 -1.91049882E+01  0.00000000E+00
  9.55249411E+00  9.55249411E+00 -1.91049882E+01  0.00000000E+00  9.55249411E+00
  9.55249411E+00 -1.91049882E+01  0.00000000E+00  9.55249411E+00  9.55249411E+00
 -1.91049882E+01  0.00000000E+00  9.55249411E+00  9.55249411E+00 -1.91049882E+01
  0.00000000E+00  9.55249411E+00  9.55249411E+00 -1.91049882E+01  0.00000000E+00
  9.55249411E+00  9.55249411E+00 -1.91049882E+01  0.00000000E+00  9.55249411E+00
  9.55249411E+00 -1.91049882E+01  0.00000000E+00  9.55249411E+00  9.55249411E+00
 -1.91049882E+01  0.00000000E+00  9.55249411E+00  9.55249411E+00 -1.91049882E+01
  0.00000000E+00  9.55249411E+00  9.55249411E+00 -1.91049882E+01  0.00000000E+00
  9.55249411E+00  9.55249411E+00 -1.91049882E+01  0.00000000E+00  9.55249411E+00
  9.55249411E+00 -1.91049882E+01  0.00000000E+00  9.55249411E+00  9.55249411E+00
 -1.91049882E+01  0.00000000E+00  9.55249411E+00  9.55249411E+00 -1.91049882E+01
  0.00000000E+00  9.55249411E+00  9.55249411E+00 -1.91049882E+01  0.00000000E+00
  9.55249411E+00  9.55249411E+00 -1.91049882E+01  0.00000000E+00  9.55249411E+00
  9.55249411E+00 -1.91049882E+01  0.00000000E+00  9.55249411E+00  9.55249411E+00
 -1.91049882E+01  0.00000000E+00  9.55249411E+00  9.55249411E+00 -1.91049882E+01
  0.00000000E+00  9.55249411E+00  9.55249411E+00 -1.91049882E+01  0.00000000E+00
  9.55249411E+00  9.55249411E+00 -1.91049882E+01  0.00000000E+00  9.55249411E+00
  9.55249411E+00 -1.91049882E+01  0.00000000E+00  9.55249411E+00  9.55249411E+00
 -1.91049882E+01  0.00000000E+00  9.55249411E+00  9.55249411E+00 -1.91049882E+01
  0.00000000E+00  9.55249411E+00  9.55249411E+00 -1.91049882E+01  0.00000000E+00
  9.55249411E+00  9.55249411E+00 -1.91049882E+01  0.00000000E+00  9.55249411E+00
  9.55249411E+00 -1.91049882E+01  0.00000000E+00  9.55249411E+00  9.55249411E+00
 -1.91049882E+01  0.00000000E+00  9.55249411E+00  9.55249411E+00 -1.91049882E+01
  0.00000000E+00  9.55249411E+00  9.55249411E+00 -1.91049882E+01  0.00000000E+00
  9.55249411E+00  9.55249411E+00 -1.91049882E+01  0.00000000E+00  9.55249411E+00
  9.55249411E+00 -1.91049882E+01  0.00000000E+00  9.55249411E+00  9.55249411E+00
 -1.91049882E+01  0.00000000E+00  9.55249411E+00  9.55249411E+00 -1.91049882E+01
  0.00000000E+00  9.55249411E+00  9.55249411E+00 -1.91049882E+01  0.00000000E+00
  9.55249411E+00  9.55249411E+00 -1.91049882E+01  0.00000000E+00  9.55249411E+00
  9.55249411E+00 -1.91049882E+01  0.00000000E+00  9.55249411E+00  9.55249411E+00
 -1.91049882E+01  0.00000000E+00  9.55249411E+00  9.55249411E+00 -1.91049882E+01
  0.00000000E+00  9.55249411E+00  9.55249411E+00 -1.91049882E+01  0.00000000E+00
  9.55249411E+00  9.55249411E+00 -1.91049882E+01  0.00000000E+00  9.55249411E+00
  9.55249411E+00 -1.91049882E+01  0.00000000E+00  9.55249411E+00  9.55249411E+00
 -1.91049882E+01  0.00000000E+00  9.55249411E+00  9.55249411E+00 -1.91049882E+01
  0.00000000E+00  9.55249411E+00  9.55249411E+00 -1.91049882E+01  0.00000000E+00
  9.55249411E+00  9.55249411E+00 -1.91049882E+01  0.00000000E+00  9.55249411E+00
  9.55249411E+00 -1.91049882E+01  0.00000000E+00  9.55249411E+00  9.55249411E+00
 -1.91049882E+01  0.00000000E+00  9.55249411E+00  9.55249411E+00 -1.91049882E+01
  0.00000000E+00  9.55249411E+00  9.55249411E+00 -1.91049882E+01  0.00000000E+00
  9.55249411E+00  9.55249411E+00 -1.91049882E+01  0.00000000E+00  9.55249411E+00
  9.55249411E+00 -1.91049882E+01  0.00000000E+00  9.55249411E+00  9.55249411E+00
 -1.91049882E+01  0.00000000E+00  9.55249411E+00  9.55249411E+00 -1.91049882E+01
  0.00000000E+00  9.55249411E+00  9.55249411E+00 -1.91049882E+01  0.00000000E+00
  9.55249411E+00  9.55249411E+00 -1.91049882E+01  0.00000000E+00  9.55249411E+00
  9.55249411E+00 -1.91049882E+01  0.00000000E+00  9.55249411E+00  9.55249411E+00
 -1.91049882E+01  0.00000000E+00  9.55249411E+00  9.55249411E+00 -1.91049882E+01
  0.00000000E+00  9.55249411E+00  9.55249411E+00 -1.91049882E+01  0.00000000E+00
  9.55249411E+00  9.55249411E+00 -1.91049882E+01  0.00000000E+00  9.55249411E+00
  9.55249411E+00 -1.91049882E+01  0.00000000E+00  9.55249411E+00  9.55249411E+00
 -1.91049882E+01  0.00000000E+00  9.55249411E+00  9.55249411E+00 -1.91049882E+01
  0.00000000E+00  9.55249411E+00  9.55249411E+00 -1.91049882E+01  0.00000000E+00
  9.55249411E+00  9.55249411E+00 -1.91049882E+01  0.00000000E+00  9.55249411E+00
  9.55249411E+00 -1.91049882E+01  0.00000000E+00  9.55249411E+00  9.55249411E+00
 -1.91049882E+01  0.00000000E+00  9.55249411E+00  9.55249411E+00 -1.91049882E+01
  0.00000000E+00  9.55249411E+00  9.55249411E+00 -1.91049882E+01  0.00000000E+00
  9.55249411E+00  9.55249411E+00 -1.91049882E+01  0.00000000E+00  9.55249411E+00
  9.55249411E+00 -1.91049882E+01  0.00000000E+00  9.55249411E+00  9.55249411E+00
 -1.91049882E+01  0.00000000E+00  9.55249411E+00  9.55249411E+00 -1.91049882E+01
  0.00000000E+00  9.55249411E+00  9.55249411E+00 -1.91049882E+01  0.00000000E+00
  9.55249411E+00  9.55249411E+00 -1.91049882E+01  0.00000000E+00  9.55249411E+00
  9.55249411E+00 -1.91049882E+01  0.00000000E+00  9.55249411E+00  9.55249411E+00
 -1.91049882E+01  0.00000000E+00  9.55249411E+00  9.55249411E+00 -1.91049882E+01
  0.00000000E+00  9.55249411E+00  9.55249411E+00 -1.91049882E+01  0.00000000E+00
  9.55249411E+00  9.55249411E+00 -1.91049882E+01  0.00000000E+00  9.55249411E+00
  9.55249411E+00 -1.91049882E+01  0.00000000E+00  9.55249411E+00  9.55249411E+00
 -1.91049882E+01  0.00000000E+00  9.55249411E+00  9.55249411E+00 -1.91049882E+01
  0.00000000E+00  9.55249411E+00  9.55249411E+00 -1.91049882E+01  0.00000000E+00
  9.55249411E+00  9.55249411E+00 -1.91049882E+01  0.00000000E+00  9.55249411E+00
  9.55249411E+00 -1.91049882E+01  0.00000000E+00  9.55249411E+00  9.55249411E+00
 -1.91049882E+01  0.00000000E+00  9.55249411E+00  9.55249411E+00 -1.91049882E+01
  0.00000000E+00  9.55249411E+00  9.55249411E+00 -1.91049882E+01  0.00000000E+00
  9.55249411E+00  9.55249411E+00 -1.91049882E+01  0.00000000E+00  9.55249411E+00
  9.55249411E+00 -1.91049882E+01  0.00000000E+00  9.55249411E+00  9.55249411E+00
 -1.91049882E+01  0.00000000E+00  9.55249411E+00  9.55249411E+00 -1.91049882E+01
  0.00000000E+00  9.55249411E+00  9.55249411E+00 -1.91049882E+01  0.00000000E+00
  9.55249411E+00  9.55249411E+00 -1.91049882E+01  0.00000000E+00  9.55249411E+00
  9.55249411E+00 -1.91049882E+01  0.00000000E+00  9.55249411E+00  9.55249411E+00
 -1.91049882E+01  0.00000000E+00  9.55249411E+00  9.55249411E+00 -1.91049882E+01
  0.00000000E+00  9.55249411E+00  9.55249411E+00 -1.91049882E+01  0.00000000E+00
  9.55249411E+00  9.55249411E+00 -1.91049882E+01  0.00000000E+00  9.55249411E+00
  9.55249411E+00 -1.91049882E+01  0.00000000E+00  9.55249411E+00  9.55249411E+00
 -1.91049882E+01  0.00000000E+00  9.55249411E+00  9.55249411E+00 -1.91049882E+01
  0.00000000E+00  9.55249411E+00  9.55249411E+00 -1.91049882E+01  0.00000000E+00
  9.55249411E+00  9.55249411E+00 -1.91049882E+01  0.00000000E+00  9.55249411E+00
  9.55249411E+00 -1.91049882E+01  0.00000000E+00  9.55249411E+00  9.55249411E+00
 -1.91049882E+01  0.00000000E+00  9.55249411E+00  9.55249411E+00 -1.91049882E+01
  0.00000000E+00  9.55249411E+00  9.55249411E+00 -1.91049882E+01  0.00000000E+00
  9.55249411E+00  9.55249411E+00 -1.91049882E+01  0.00000000E+00  9.55249411E+00
  9.55249411E+00 -1.91049882E+01  0.00000000E+00  9.55249411E+00  9.55249411E+00
 -1.91049882E+01  0.00000000E+00  9.55249411E+00  9.55249411E+00 -1.91049882E+01
  0.00000000E+00  9.55249411E+00  9.55249411E+00 -1.91049882E+01  0.00000000E+00
  9.55249411E+00  9.55249411E+00 -1.91049882E+01  0.00000000E+00  9.55249411E+00
  9.55249411E+00 -1.91049882E+01  0.00000000E+00  9.55249411E+00  9.55249411E+00
 -1.91049882E+01  0.00000000E+00  9.55249411E+00  9.55249411E+00 -1.91049882E+01
  0.00000000E+00  9.55249411E+00  9.55249411E+00 -1.91049882E+01  0.00000000E+00
  9.55249411E+00  9.55249411E+00 -1.91049882E+01  0.00000000E+00  9.55249411E+00
  9.55249411E+00 -1.91049882E+01  0.00000000E+00  9.55249411E+00  9.55249411E+00
 -1.91049882E+01  0.00000000E+00  9.55249411E+00  9.55249411E+00 -1.91049882E+01
  0.00000000E+00  9.55249411E+00  9.55249411E+00 -1.91049882E+01  0.00000000E+00
  9.55249411E+00  9.55249411E+00 -1.91049882E+01  0.00000000E+00  9.55249411E+00
  9.55249411E+00 -1.91049882E+01  0.00000000E+00  9.55249411E+00  9.55249411E+00
 -1.91049882E+01  0.00000000E+00  9.55249411E+00  9.55249411E+00 -1.91049882E+01
  0.00000000E+00  9.55249411E+00  9.55249411E+00 -1.91049882E+01  0.00000000E+00
  9.55249411E+00  9.55249411E+00 -1.91049882E+01  0.00000000E+00  9.55249411E+00
  9.55249411E+00 -1.91049882E+01  0.00000000E+00  9.55249411E+00  9.55249411E+00
 -1.91049882E+01  0.00000000E+00  9.55249411E+00  9.55249411E+00 -1.91049882E+01
  0.00000000E+00  9.55249411E+00  9.55249411E+00 -1.91049882E+01  0.00000000E+00
  9.55249411E+00  9.55249411E+00 -1.91049882E+01  0.00000000E+00  9.55249411E+00
  9.55249411E+00 -1.91049882E+01  0.00000000E+00  9.55249411E+00  9.55249411E+00
 -1.91049882E+01  0.00000000E+00  9.55249411E+00  9.55249411E+00 -1.91049882E+01
  0.00000000E+00  9.55249411E+00  9.55249411E+00 -1.91049882E+01  0.00000000E+00
  9.55249411E+00  9.55249411E+00 -1.91049882E+01  0.00000000E+00  9.55249411E+00
  9.55249411E+00 -1.91049882E+01  0.00000000E+00  9.55249411E+00  9.55249411E+00
 -1.91049882E+01  0.00000000E+00  9.55249411E+00  9.55249411E+00 -1.91049882E+01
  0.00000000E+00  9.55249411E+00  9.55249411E+00 -1.91049882E+01  0.00000000E+00
  9.55249411E+00  9.55249411E+00 -1.91049882E+01  0.00000000E+00  9.55249411E+00
  9.55249411E+00 -1.91049882E+01  0.00000000E+00  9.55249411E+00  9.55249411E+00
 -1.91049882E+01  0.00000000E+00  9.55249411E+00  9.55249411E+00 -1.91049882E+01
  0.00000000E+00  9.55249411E+00  9.55249411E+00 -1.91049882E+01  0.00000000E+00
  9.55249411E+00  9.55249411E+00 -1.91049882E+01  0.00000000E+00  9.55249411E+00
  9.55249411E+00 -1.91049882E+01  0.00000000E+00  9.55249411E+00  9.55249411E+00
 -1.91049882E+01  0.00000000E+00  9.55249411E+00  9.55249411E+00 -1.91049882E+01
  0.00000000E+00  9.55249411E+00  9.55249411E+00 -1.91049882E+01  0.00000000E+00
  9.55249411E+00  9.55249411E+00 -1.91049882E+01  0.00000000E+00  9.55249411E+00
  9.55249411E+00 -1.91049882E+01  0.00000000E+00  9.55249411E+00  9.55249411E+00
 -1.91049882E+01  0.00000000E+00  9.55249411E+00  9.55249411E+00 -1.91049882E+01
  0.00000000E+00  9.55249411E+00  9.55249411E+00 -1.91049882E+01  0.00000000E+00
  9.55249411E+00  9.55249411E+00 -1.91049882E+01  0.00000000E+00  9.55249411E+00
  9.55249411E+00 -1.91049882E+01  0.00000000E+00  9.55249411E+00  9.55249411E+00
 -1.91049882E+01  0.00000000E+00  9.55249411E+00  9.55249411E+00 -1.91049882E+01
  0.00000000E+00  9.55249411E+00  9.55249411E+00 -1.91049882E+01  0.00000000E+00
  9.55249411E+00  9.55249411E+00 -1.91049882E+01  0.00000000E+00  9.55249411E+00
  9.55249411E+00 -1.91049882E+01  0.00000000E+00  9.55249411E+00  9.55249411E+00
 -1.91049882E+01  0.00000000E+00  9.55249411E+00  9.55249411E+00 -1.91049882E+01
  0.00000000E+00  9.55249411E+00  9.55249411E+00 -1.91049882E+01  0.00000000E+00
  9.55249411E+00  9.55249411E+00 -1.91049882E+01  0.00000000E+00  9.55249411E+00
  9.55249411E+00 -1.91049882E+01  0.00000000E+00  9.55249411E+00  9.55249411E+00
 -1.91049882E+01  0.00000000E+00  9.55249411E+00  9.55249411E+00 -1.91049882E+01
  0.00000000E+00  9.55249411E+00  9.55249411E+00 -1.91049882E+01  0.00000000E+00
  9.55249411E+00  9.55249411E+00 -1.91049882E+01  0.00000000E+00  9.55249411E+00
  9.55249411E+00 -1.91049882E+01  0.00000000E+00  9.55249411E+00  9.55249411E+00
 -1.91049882E+01  0.00000000E+00  9.55249411E+00  9.55249411E+00 -1.91049882E+01
  0.00000000E+00  9.55249411E+00  9.55249411E+00 -1.91049882E+01  0.00000000E+00
  9.55249411E+00  9.55249411E+00 -1.91049882E+01  0.00000000E+00  9.55249411E+00
  9.55249411E+00 -1.91049882E+01  0.00000000E+00  9.55249411E+00  9.55249411E+00
 -1.91049882E+01  0.00000000E+00  9.55249411E+00  9.55249411E+00 -1.91049882E+01
  0.00000000E+00  9.55249411E+00  9.55249411E+00 -1.91049882E+01  0.00000000E+00
  9.55249411E+00  9.55249411E+00 -1.91049882E+01  0.00000000E+00  9.55249411E+00
  9.55249411E+00 -1.91049882E+01  0.00000000E+00  9.55249411E+00  9.55249411E+00
 -1.91049882E+01  0.00000000E+00  9.55249411E+00  9.55249411E+00 -1.91049882E+01
  0.00000000E+00  9.55249411E+00  9.55249411E+00 -1.91049882E+01  0.00000000E+00
  9.55249411E+00  9.55249411E+00 -1.91049882E+01  0.00000000E+00  9.55249411E+00
  9.55249411E+00 -1.91049882E+01  0.00000000E+00  9.55249411E+00  9.55249411E+00
 -1.91049882E+01  0.00000000E+00  9.55249411E+00  9.55249411E+00 -1.91049882E+01
  0.00000000E+00  9.55249411E+00  9.55249411E+00 -1.91049882E+01  0.00000000E+00
  9.55249411E+00  9.55249411E+00 -1.91049882E+01  0.00000000E+00  9.55249411E+00
  9.55249411E+00 -1.91049882E+01  0.00000000E+00  9.55249411E+00  9.55249411E+00
 -1.91049882E+01  0.00000000E+00  9.55249411E+00  9.55249411E+00 -1.91049882E+01
  0.00000000E+00  9.55249411E+00  9.55249411E+00 -1.91049882E+01  0.00000000E+00
  9.55249411E+00  9.55249411E+00 -1.91049882E+01  0.00000000E+00  9.55249411E+00
  9.55249411E+00 -1.91049882E+01  0.00000000E+00  9.55249411E+00  9.55249411E+00
 -1.91049882E+01  0.00000000E+00  9.55249411E+00  9.55249411E+00 -1.91049882E+01
  0.00000000E+00  9.55249411E+00  9.55249411E+00 -1.91049882E+01  0.00000000E+00
  9.55249411E+00  9.55249411E+00 -1.91049882E+01  0.00000000E+00  9.55249411E+00
  9.55249411E+00 -1.91049882E+01  0.00000000E+00  9.55249411E+00  9.55249411E+00
 -1.91049882E+01  0.00000000E+00  9.55249411E+00  9.55249411E+00 -1.91049882E+01
  0.00000000E+00  9.55249411E+00  9.55249411E+00 -1.91049882E+01  0.00000000E+00
  9.55249411E+00  9.55249411E+00 -1.91049882E+01  0.00000000E+00  9.55249411E+00
  9.55249411E+00 -1.91049882E+01  0.00000000E+00  9.55249411E+00  9.55249411E+00
 -1.91049882E+01  0.00000000E+00  9.55249411E+00  9.55249411E+00 -1.91049882E+01
  0.00000000E+00  9.55249411E+00  9.55249411E+00 -1.91049882E+01  0.00000000E+00
  9.55249411E+00  9.55249411E+00 -1.91049882E+01  0.00000000E+00  9.55249411E+00
  9.55249411E+00 -1.91049882E+01  0.00000000E+00  9.55249411E+00  9.55249411E+00
 -1.91049882E+01  0.00000000E+00  9.55249411E+00  9.55249411E+00 -1.91049882E+01
  0.00000000E+00  9.55249411E+00  9.55249411E+00 -1.91049882E+01  0.00000000E+00
  9.55249411E+00  9.55249411E+00 -1.91049882E+01  0.00000000E+00  9.55249411E+00
  9.55249411E+00 -1.91049882E+01  0.00000000E+00  9.55249411E+00  9.55249411E+00
 -1.91049882E+01  0.00000000E+00  9.55249411E+00  9.55249411E+00 -1.91049882E+01
  0.00000000E+00  9.55249411E+00  9.55249411E+00 -1.91049882E+01  0.00000000E+00
  9.55249411E+00  9.55249411E+00 -1.91049882E+01  0.00000000E+00  9.55249411E+00
  9.55249411E+00 -1.91049882E+01  0.00000000E+00  9.55249411E+00  9.55249411E+00
 -1.91049882E+01  0.00000000E+00  9.55249411E+00  9.55249411E+00 -1.91049882E+01
  0.00000000E+00  9.55249411E+00  9.55249411E+00 -1.91049882E+01  0.00000000E+00
  9.55249411E+00  9.55249411E+00 -1.91049882E+01  0.00000000E+00  9.55249411E+00
  9.55249411E+00 -1.91049882E+01  0.00000000E+00  9.55249411E+00  9.55249411E+00
 -1.91049882E+01  0.00000000E+00  9.55249411E+00  9.55249411E+00 -1.91049882E+01
  0.00000000E+00  9.55249411E+00  9.55249411E+00 -1.91049882E+01  0.00000000E+00
  9.55249411E+00  9.55249411E+00 -1.91049882E+01  0.00000000E+00  9.55249411E+00
  9.55249411E+00 -1.91049882E+01  0.00000000E+00  9.55249411E+00  9.55249411E+00
 -1.91049882E+01  0.00000000E+00  9.55249411E+00  9.55249411E+00 -1.91049882E+01
  0.00000000E+00  9.55249411E+00  9.55249411E+00 -1.91049882E+01  0.00000000E+00
  9.55249411E+00  9.55249411E+00 -1.91049882E+01  0.00000000E+00  9.55249411E+00
  9.55249411E+00 -1.91049882E+01  0.00000000E+00  9.55249411E+00  9.55249411E+00
 -1.91049882E+01  0.00000000E+00  9.55249411E+00  9.55249411E+00 -1.91049882E+01
  0.00000000E+00  9.55249411E+00  9.55249411E+00 -1.91049882E+01  0.00000000E+00
  9.55249411E+00  9.55249411E+00 -1.91049882E+01  0.00000000E+00  9.55249411E+00
  9.55249411E+00 -1.91049882E+01  0.00000000E+00  9.55249411E+00  9.55249411E+00
 -1.91049882E+01  0.00000000E+00  9.55249411E+00  9.55249411E+00 -1.91049882E+01
  0.00000000E+00  9.55249411E+00  9.55249411E+00 -1.91049882E+01  0.00000000E+00
  9.55249411E+00  9.55249411E+00 -1.91049882E+01  0.00000000E+00  9.55249411E+00
  9.55249411E+00 -1.91049882E+01  0.00000000E+00  9.55249411E+00  9.55249411E+00
 -1.91049882E+01  0.00000000E+00  9.55249411E+00  9.55249411E+00 -1.91049882E+01
  0.00000000E+00  9.55249411E+00  9.55249411E+00 -1.91049882E+01  0.00000000E+00
  9.55249411E+00  9.55249411E+00 -1.91049882E+01  0.00000000E+00  9.55249411E+00
  9.55249411E+00 -1.91049882E+01  0.00000000E+00  9.55249411E+00  9.55249411E+00
 -1.91049882E+01  0.00000000E+00  9.55249411E+00  9.55249411E+00 -1.91049882E+01
  0.00000000E+00  9.55249411E+00  9.55249411E+00 -1.91049882E+01  0.00000000E+00
  9.55249411E+00  9.55249411E+00 -1.91049882E+01  0.00000000E+00  9.55249411E+00
  9.55249411E+00 -1.91049882E+01  0.00000000E+00  9.55249411E+00  9.55249411E+00
 -1.91049882E+01  0.00000000E+00  9.55249411E+00  9.55249411E+00 -1.91049882E+01
  0.00000000E+00  9.55249411E+00  9.55249411E+00 -1.91049882E+01  0.00000000E+00
  9.55249411E+00  9.55249411E+00 -1.91049882E+01  0.00000000E+00  9.55249411E+00
  9.55249411E+00 -1.91049882E+01  0.00000000E+00  9.55249411E+00  9.55249411E+00
 -1.91049882E+01  0.00000000E+00  9.55249411E+00  9.55249411E+00 -1.91049882E+01
  0.00000000E+00  9.55249411E+00  9.55249411E+00 -1.91049882E+01  0.00000000E+00
  9.55249411E+00  9.55249411E+00 -1.91049882E+01  0.00000000E+00  9.55249411E+00
  9.55249411E+00 -1.91049882E+01  0.00000000E+00  9.55249411E+00  9.55249411E+00
 -1.91049882E+01  0.00000000E+00  9.55249411E+00  9.55249411E+00 -1.91049882E+01
  0.00000000E+00  9.55249411E+00  9.55249411E+00 -1.91049882E+01  0.00000000E+00
  9.55249411E+00  9.55249411E+00 -1.91049882E+01  0.00000000E+00  9.55249411E+00
  9.55249411E+00 -1.91049882E+01  0.00000000E+00  9.55249411E+00  9.55249411E+00
 -1.91049882E+01  0.00000000E+00  9.55249411E+00  9.55249411E+00 -1.91049882E+01
  0.00000000E+00  9.55249411E+00  9.55249411E+00 -1.91049882E+01  0.00000000E+00
  9.55249411E+00  9.55249411E+00 -1.91049882E+01  0.00000000E+00  9.55249411E+00
  9.55249411E+00 -1.91049882E+01  0.00000000E+00  9.55249411E+00  9.55249411E+00
 -1.91049882E+01  0.00000000E+00  9.55249411E+00  9.55249411E+00 -1.91049882E+01
  0.00000000E+00  9.55249411E+00  9.55249411E+00 -1.91049882E+01  0.00000000E+00
  9.55249411E+00  9.55249411E+00 -1.91049882E+01  0.00000000E+00  9.55249411E+00
  9.55249411E+00 -1.91049882E+01  0.00000000E+00  9.55249411E+00  9.55249411E+00
 -1.91049882E+01  0.00000000E+00  9.55249411E+00  9.55249411E+00 -1.91049882E+01
  0.00000000E+00  9.55249411E+00  9.55249411E+00 -1.91049882E+01  0.00000000E+00
  9.55249411E+00  9.55249411E+00 -1.91049882E+01  0.00000000E+00  9.55249411E+00
  9.55249411E+00 -1.91049882E+01  0.00000000E+00  9.55249411E+00  9.55249411E+00
 -1.91049882E+01  0.00000000E+00  9.55249411E+00  9.55249411E+00 -1.91049882E+01
  0.00000000E+00  9.55249411E+00  9.55249411E+00 -1.91049882E+01  0.00000000E+00
  9.55249411E+00  9.55249411E+00 -1.91049882E+01  0.00000000E+00  9.55249411E+00
  9.55249411E+00 -1.91049882E+01  0.00000000E+00  9.55249411E+00  9.55249411E+00
 -1.91049882E+01  0.00000000E+00  9.55249411E+00  9.55249411E+00 -1.91049882E+01
  0.00000000E+00  9.55249411E+00  9.55249411E+00 -1.91049882E+01  0.00000000E+00
  9.55249411E+00  9.55249411E+00 -1.91049882E+01  0.00000000E+00  9.55249411E+00
  9.55249411E+00 -1.91049882E+01  0.00000000E+00  9.55249411E+00  9.55249411E+00
 -1.91049882E+01  0.00000000E+00  9.55249411E+00  9.55249411E+00 -1.91049882E+01
  0.00000000E+00  9.55249411E+00  9.55249411E+00 -1.91049882E+01  0.00000000E+00
  9.55249411E+00  9.55249411E+00 -1.91049882E+01  0.00000000E+00  9.55249411E+00
  9.55249411E+00 -1.91049882E+01  0.00000000E+00  9.55249411E+00  9.55249411E+00
 -1.91049882E+01  0.00000000E+00  9.55249411E+00  9.55249411E+00 -1.91049882E+01
  0.00000000E+00  9.55249411E+00  9.55249411E+00 -1.91049882E+01  0.00000000E+00
  9.55249411E+00  9.55249411E+00 -1.91049882E+01  0.00000000E+00  9.55249411E+00
  9.55249411E+00 -1.91049882E+01  0.00000000E+00  9.55249411E+00  9.55249411E+00
 -1.91049882E+01  0.00000000E+00  9.55249411E+00  9.55249411E+00 -1.91049882E+01
  0.00000000E+00  9.55249411E+00  9.55249411E+00 -1.91049882E+01  0.00000000E+00
  9.55249411E+00  9.55249411E+00 -1.91049882E+01  0.00000000E+00  9.55249411E+00
  9.55249411E+00 -1.91049882E+01  0.00000000E+00  9.55249411E+00  9.55249411E+00
 -1.91049882E+01  0.00000000E+00  9.55249411E+00  9.55249411E+00 -1.91049882E+01
  0.00000000E+00  9.55249411E+00  9.55249411E+00 -1.91049882E+01  0.00000000E+00
  9.55249411E+00  9.55249411E+00 -1.91049882E+01  0.00000000E+00  9.55249411E+00
  9.55249411E+00 -1.91049882E+01  0.00000000E+00  9.55249411E+00  9.55249411E+00
 -1.91049882E+01  0.00000000E+00  9.55249411E+00  9.55249411E+00 -1.91049882E+01
  0.00000000E+00  9.55249411E+00  9.55249411E+00 -1.91049882E+01  0.00000000E+00
  9.55249411E+00  9.55249411E+00 -1.91049882E+01  0.00000000E+00  9.55249411E+00
  9.55249411E+00 -1.91049882E+01  0.00000000E+00  9.55249411E+00  9.55249411E+00
 -1.91049882E+01  0.00000000E+00  9.55249411E+00  9.55249411E+00 -1.91049882E+01
  0.00000000E+00  9.55249411E+00  9.55249411E+00 -1.91049882E+01  0.00000000E+00
  9.55249411E+00  9.55249411E+00 -1.91049882E+01  0.00000000E+00  9.55249411E+00
  9.55249411E+00 -1.91049882E+01  0.00000000E+00  9.55249411E+00  9.55249411E+00
 -1.91049882E+01  0.00000000E+00  9.55249411E+00  9.55249411E+00 -1.91049882E+01
  0.00000000E+00  9.55249411E+00  9.55249411E+00 -1.91049882E+01  0.00000000E+00
  9.55249411E+00  9.55249411E+00 -1.91049882E+01  0.00000000E+00  9.55249411E+00
  9.55249411E+00 -1.91049882E+01  0.00000000E+00  9.55249411E+00  9.55249411E+00
 -1.91049882E+01  0.00000000E+00  9.55249411E+00  9.55249411E+00 -1.91049882E+01
  0.00000000E+00  9.55249411E+00  9.55249411E+00 -1.91049882E+01  0.00000000E+00
  9.55249411E+00  9.55249411E+00 -1.91049882E+01  0.00000000E+00  9.55249411E+00
  9.55249411E+00 -1.91049882E+01  0.00000000E+00  9.55249411E+00  9.55249411E+00
 -1.91049882E+01  0.00000000E+00  9.55249411E+00  9.55249411E+00 -1.91049882E+01
  0.00000000E+00  9.55249411E+00  9.55249411E+00 -1.91049882E+01  0.00000000E+00
  9.55249411E+00  9.55249411E+00 -1.91049882E+01  0.00000000E+00  9.55249411E+00
  9.55249411E+00 -1.91049882E+01  0.00000000E+00  9.55249411E+00  9.55249411E+00
 -1.91049882E+01  0.00000000E+00  9.55249411E+00  9.55249411E+00 -1.91049882E+01
  0.00000000E+00  9.55249411E+00  9.55249411E+00 -1.91049882E+01  0.00000000E+00
  9.55249411E+00  9.55249411E+00 -1.91049882E+01  0.00000000E+00  9.55249411E+00
  9.55249411E+00 -1.91049882E+01  0.00000000E+00  9.55249411E+00  9.55249411E+00
 -1.91049882E+01  0.00000000E+00  9.55249411E+00  9.55249411E+00 -1.91049882E+01
  0.00000000E+00  9.55249411E+00  9.55249411E+00 -1.91049882E+01  0.00000000E+00
  9.55249411E+00  9.55249411E+00 -1.91049882E+01  0.00000000E+00  9.55249411E+00
  9.55249411E+00 -1.91049882E+01  0.00000000E+00  9.55249411E+00  9.55249411E+00
 -1.91049882E+01  0.00000000E+00  9.55249411E+00  9.55249411E+00 -1.91049882E+01
  0.00000000E+00  9.55249411E+00  9.55249411E+00 -1.91049882E+01  0.00000000E+00
  9.55249411E+00  9.55249411E+00 -1.91049882E+01  0.00000000E+00  9.55249411E+00
  9.55249411E+00 -1.91049882E+01  0.00000000E+00  9.55249411E+00  9.55249411E+00
 -1.91049882E+01  0.00000000E+00  9.55249411E+00  9.55249411E+00 -1.91049882E+01
  0.00000000E+00  9.55249411E+00  9.55249411E+00 -1.91049882E+01  0.00000000E+00
  9.55249411E+00  9.55249411E+00 -1.91049882E+01  0.00000000E+00  9.55249411E+00
  9.55249411E+00 -1.91049882E+01  0.00000000E+00  9.55249411E+00  9.55249411E+00
 -1.91049882E+01  0.00000000E+00  9.55249411E+00  9.55249411E+00 -1.91049882E+01
  0.00000000E+00  9.55249411E+00  9.55249411E+00 -1.91049882E+01  0.00000000E+00
  9.55249411E+00  9.55249411E+00 -1.91049882E+01  0.00000000E+00  9.55249411E+00
  9.55249411E+00 -1.91049882E+01  0.00000000E+00  9.55249411E+00  9.55249411E+00
 -1.91049882E+01  0.00000000E+00  9.55249411E+00  9.55249411E+00 -1.91049882E+01
  0.00000000E+00  9.55249411E+00  9.55249411E+00 -1.91049882E+01  0.00000000E+00
  9.55249411E+00  9.55249411E+00 -1.91049882E+01  0.00000000E+00  9.55249411E+00
  9.55249411E+00 -1.91049882E+01  0.00000000E+00  9.55249411E+00  9.55249411E+00
 -1.91049882E+01  0.00000000E+00  9.55249411E+00  9.55249411E+00 -1.91049882E+01
  0.00000000E+00  9.55249411E+00  9.55249411E+00 -1.91049882E+01  0.00000000E+00
  9.55249411E+00  9.55249411E+00 -1.91049882E+01  0.00000000E+00  9.55249411E+00
  9.55249411E+00 -1.91049882E+01  0.00000000E+00  9.55249411E+00  9.55249411E+00
 -1.91049882E+01  0.00000000E+00  9.55249411E+00  9.55249411E+00 -1.91049882E+01
  0.00000000E+00  9.55249411E+00  9.55249411E+00 -1.91049882E+01  0.00000000E+00
  9.55249411E+00  9.55249411E+00 -1.91049882E+01  0.00000000E+00  9.55249411E+00
  9.55249411E+00 -1.91049882E+01  0.00000000E+00  9.55249411E+00  9.55249411E+00
 -1.91049882E+01  0.00000000E+00  9.55249411E+00  9.55249411E+00 -1.91049882E+01
  0.00000000E+00  9.55249411E+00  9.55249411E+00 -1.91049882E+01  0.00000000E+00
  9.55249411E+00  9.55249411E+00 -1.91049882E+01  0.00000000E+00  9.55249411E+00
  9.55249411E+00 -1.91049882E+01  0.00000000E+00  9.55249411E+00  9.55249411E+00
 -1.91049882E+01  0.00000000E+00  9.55249411E+00  9.55249411E+00 -1.91049882E+01
  0.00000000E+00  9.55249411E+00  9.55249411E+00 -1.91049882E+01  0.00000000E+00
  9.55249411E+00  9.55249411E+00 -1.91049882E+01  0.00000000E+00  9.55249411E+00
  9.55249411E+00 -1.91049882E+01  0.00000000E+00  9.55249411E+00  9.55249411E+00
 -1.91049882E+01  0.00000000E+00  9.55249411E+00  9.55249411E+00 -1.91049882E+01
  0.00000000E+00  9.55249411E+00  9.55249411E+00 -1.91049882E+01  0.00000000E+00
  9.55249411E+00  9.55249411E+00 -1.91049882E+01  0.00000000E+00  9.55249411E+00
  9.55249411E+00 -1.91049882E+01  0.00000000E+00  9.55249411E+00  9.55249411E+00
 -1.91049882E+01  0.00000000E+00  9.55249411E+00  9.55249411E+00 -1.91049882E+01
  0.00000000E+00  9.55249411E+00  9.55249411E+00 -1.91049882E+01  0.00000000E+00
  9.55249411E+00  9.55249411E+00 -1.91049882E+01  0.00000000E+00  9.55249411E+00
  9.55249411E+00 -1.91049882E+01  0.00000000E+00  9.55249411E+00  9.55249411E+00
 -1.91049882E+01  0.00000000E+00  9.55249411E+00  9.55249411E+00 -1.91049882E+01
  0.00000000E+00  9.55249411E+00  9.55249411E+00 -1.91049882E+01  0.00000000E+00
  9.55249411E+00  9.55249411E+00 -1.91049882E+01  0.00000000E+00  9.55249411E+00
  9.55249411E+00 -1.91049882E+01  0.00000000E+00  9.55249411E+00  9.55249411E+00
 -1.91049882E+01  0.00000000E+00  9.55249411E+00  9.55249411E+00 -1.91049882E+01
  0.00000000E+00  9.55249411E+00  9.55249411E+00 -1.91049882E+01  0.00000000E+00
  9.55249411E+00  9.55249411E+00 -1.91049882E+01  0.00000000E+00  9.55249411E+00
  9.55249411E+00 -1.91049882E+01  0.00000000E+00  9.55249411E+00  9.55249411E+00
 -1.91049882E+01  0.00000000E+00  9.55249411E+00  9.55249411E+00 -1.91049882E+01
  0.00000000E+00  9.55249411E+00  9.55249411E+00 -1.91049882E+01  0.00000000E+00
  9.55249411E+00  9.55249411E+00 -1.91049882E+01  0.00000000E+00  9.55249411E+00
  9.55249411E+00 -1.91049882E+01  0.00000000E+00  9.55249411E+00  9.55249411E+00
 -1.91049882E+01  0.00000000E+00  9.55249411E+00  9.55249411E+00 -1.91049882E+01
  0.00000000E+00  9.55249411E+00  9.55249411E+00 -1.91049882E+01  0.00000000E+00
  9.55249411E+00  9.55249411E+00 -1.91049882E+01  0.00000000E+00  9.55249411E+00
  9.55249411E+00 -1.91049882E+01  0.00000000E+00  9.55249411E+00  9.55249411E+00
 -1.91049882E+01  0.00000000E+00  9.55249411E+00  9.55249411E+00 -1.91049882E+01
  0.00000000E+00  9.55249411E+00  9.55249411E+00 -1.91049882E+01  0.00000000E+00
  9.55249411E+00  9.55249411E+00 -1.91049882E+01  0.00000000E+00  9.55249411E+00
  9.55249411E+00 -1.91049882E+01  0.00000000E+00  9.55249411E+00  9.55249411E+00
 -1.91049882E+01  0.00000000E+00  9.55249411E+00  9.55249411E+00 -1.91049882E+01
  0.00000000E+00  9.55249411E+00  9.55249411E+00 -1.91049882E+01  0.00000000E+00
  9.55249411E+00  9.55249411E+00 -1.91049882E+01  0.00000000E+00  9.55249411E+00
  9.55249411E+00 -1.91049882E+01  0.00000000E+00  9.55249411E+00  9.55249411E+00
 -1.91049882E+01  0.00000000E+00  9.55249411E+00  9.55249411E+00 -1.91049882E+01
  0.00000000E+00  9.55249411E+00  9.55249411E+00 -1.91049882E+01  0.00000000E+00
  9.55249411E+00  9.55249411E+00 -1.91049882E+01  0.00000000E+00  9.55249411E+00
  9.55249411E+00 -1.91049882E+01  0.00000000E+00  9.55249411E+00  9.55249411E+00
 -1.91049882E+01  0.00000000E+00  9.55249411E+00  9.55249411E+00 -1.91049882E+01
  0.00000000E+00  9.55249411E+00  9.55249411E+00 -1.91049882E+01  0.00000000E+00
  9.55249411E+00  9.55249411E+00 -1.91049882E+01  0.00000000E+00  9.55249411E+00
  9.55249411E+00 -1.91049882E+01  0.00000000E+00  9.55249411E+00  9.55249411E+00
 -1.91049882E+01  0.00000000E+00  9.55249411E+00  9.55249411E+00 -1.91049882E+01
  0.00000000E+00  9.55249411E+00  9.55249411E+00 -1.91049882E+01  0.00000000E+00
  9.55249411E+00  9.55249411E+00 -1.91049882E+01  0.00000000E+00  9.55249411E+00
  9.55249411E+00 -1.91049882E+01  0.00000000E+00  9.55249411E+00  9.55249411E+00
 -1.91049882E+01  0.00000000E+00  9.55249411E+00  9.55249411E+00 -1.91049882E+01
  0.00000000E+00  9.55249411E+00  9.55249411E+00 -1.91049882E+01  0.00000000E+00
  9.55249411E+00  9.55249411E+00 -1.91049882E+01  0.00000000E+00  9.55249411E+00
  9.55249411E+00 -1.91049882E+01  0.00000000E+00  9.55249411E+00  9.55249411E+00
 -1.91049882E+01  0.00000000E+00  9.55249411E+00  9.55249411E+00 -1.91049882E+01
  0.00000000E+00  9.55249411E+00  9.55249411E+00 -1.91049882E+01  0.00000000E+00
  9.55249411E+00  9.55249411E+00 -1.91049882E+01  0.00000000E+00  9.55249411E+00
  9.55249411E+00 -1.91049882E+01  0.00000000E+00  9.55249411E+00  9.55249411E+00
 -1.91049882E+01  0.00000000E+00  9.55249411E+00  9.55249411E+00 -1.91049882E+01
  0.00000000E+00  9.55249411E+00  9.55249411E+00 -1.91049882E+01  0.00000000E+00
  9.55249411E+00  9.55249411E+00 -1.91049882E+01  0.00000000E+00  9.55249411E+00
  9.55249411E+00 -1.91049882E+01  0.00000000E+00  9.55249411E+00  9.55249411E+00
 -1.91049882E+01  0.00000000E+00  9.55249411E+00  9.55249411E+00 -1.91049882E+01
  0.00000000E+00  9.55249411E+00  9.55249411E+00 -1.91049882E+01  0.00000000E+00
  9.55249411E+00  9.55249411E+00 -1.91049882E+01  0.00000000E+00  9.55249411E+00
  9.55249411E+00 -1.91049882E+01  0.00000000E+00  9.55249411E+00  9.55249411E+00
 -1.91049882E+01  0.00000000E+00  9.55249411E+00  9.55249411E+00 -1.91049882E+01
  0.00000000E+00  9.55249411E+00  9.55249411E+00 -1.91049882E+01  0.00000000E+00
  9.55249411E+00  9.55249411E+00 -1.91049882E+01  0.00000000E+00  9.55249411E+00
  9.55249411E+00 -1.91049882E+01  0.00000000E+00  9.55249411E+00  9.55249411E+00
 -1.91049882E+01  0.00000000E+00  9.55249411E+00  9.55249411E+00 -1.91049882E+01
  0.00000000E+00  9.55249411E+00  9.55249411E+00 -1.91049882E+01  0.00000000E+00
  9.55249411E+00  9.55249411E+00 -1.91049882E+01  0.00000000E+00  9.55249411E+00
  9.55249411E+00 -1.91049882E+01  0.00000000E+00  9.55249411E+00  9.55249411E+00
 -1.91049882E+01  0.00000000E+00  9.55249411E+00  9.55249411E+00 -1.91049882E+01
  0.00000000E+00  9.55249411E+00  9.55249411E+00 -1.91049882E+01  0.00000000E+00
  9.55249411E+00  9.55249411E+00 -1.91049882E+01  0.00000000E+00  9.55249411E+00
  9.55249411E+00 -1.91049882E+01  0.00000000E+00  9.55249411E+00  9.55249411E+00
 -1.91049882E+01  0.00000000E+00  9.55249411E+00  9.55249411E+00 -1.91049882E+01
  0.00000000E+00  9.55249411E+00  9.55249411E+00 -1.91049882E+01  0.00000000E+00
  9.55249411E+00  9.55249411E+00 -1.91049882E+01  0.00000000E+00  9.55249411E+00
  9.55249411E+00 -1.91049882E+01  0.00000000E+00  9.55249411E+00  9.55249411E+00
 -1.91049882E+01  0.00000000E+00  9.55249411E+00  9.55249411E+00 -1.91049882E+01
  0.00000000E+00  9.55249411E+00  9.55249411E+00 -1.91049882E+01  0.00000000E+00
  9.55249411E+00  9.55249411E+00 -1.91049882E+01  0.00000000E+00  9.55249411E+00
  9.55249411E+00 -1.91049882E+01  0.00000000E+00  9.55249411E+00  9.55249411E+00
 -1.91049882E+01  0.00000000E+00  9.55249411E+00  9.55249411E+00 -1.91049882E+01
  0.00000000E+00  9.55249411E+00  9.55249411E+00 -1.91049882E+01  0.00000000E+00
  9.55249411E+00  9.55249411E+00 -1.91049882E+01  0.00000000E+00  9.55249411E+00
  9.55249411E+00 -1.91049882E+01  0.00000000E+00  9.55249411E+00  9.55249411E+00
 -1.91049882E+01  0.00000000E+00  9.55249411E+00  9.55249411E+00 -1.91049882E+01
  0.00000000E+00  9.55249411E+00  9.55249411E+00 -1.91049882E+01  0.00000000E+00
  9.55249411E+00  9.55249411E+00 -1.91049882E+01  0.00000000E+00  9.55249411E+00
  9.55249411E+00 -1.91049882E+01  0.00000000E+00  9.55249411E+00  9.55249411E+00
 -1.91049882E+01  0.00000000E+00  9.55249411E+00  9.55249411E+00 -1.91049882E+01
  0.00000000E+00  9.55249411E+00  9.55249411E+00 -1.91049882E+01  0.00000000E+00
  9.55249411E+00  9.55249411E+00 -1.91049882E+01  0.00000000E+00  9.55249411E+00
  9.55249411E+00 -1.91049882E+01  0.00000000E+00  9.55249411E+00  9.55249411E+00
 -1.91049882E+01  0.00000000E+00  9.55249411E+00  9.55249411E+00 -1.91049882E+01
  0.00000000E+00  9.55249411E+00  9.55249411E+00 -1.91049882E+01  0.00000000E+00
  9.55249411E+00  9.55249411E+00 -1.91049882E+01  0.00000000E+00  9.55249411E+00
  9.55249411E+00 -1.91049882E+01  0.00000000E+00  9.55249411E+00  9.55249411E+00
 -1.91049882E+01  0.00000000E+00  9.55249411E+00  9.55249411E+00 -1.91049882E+01
  0.00000000E+00  9.55249411E+00  9.55249411E+00 -1.91049882E+01  0.00000000E+00
  9.55249411E+00  9.55249411E+00 -1.91049882E+01  0.00000000E+00  9.55249411E+00
  9.55249411E+00 -1.91049882E+01  0.00000000E+00  9.55249411E+00  9.55249411E+00
 -1.91049882E+01  0.00000000E+00  9.55249411E+00  9.55249411E+00 -1.91049882E+01
  0.00000000E+00  9.55249411E+00  9.55249411E+00 -1.91049882E+01  0.00000000E+00
  9.55249411E+00  9.55249411E+00 -1.91049882E+01  0.00000000E+00  9.55249411E+00
  9.55249411E+00 -1.91049882E+01  0.00000000E+00  9.55249411E+00  9.55249411E+00
 -1.91049882E+01  0.00000000E+00  9.55249411E+00  9.55249411E+00 -1.91049882E+01
  0.00000000E+00  9.55249411E+00  9.55249411E+00 -1.91049882E+01  0.00000000E+00
  9.55249411E+00  9.55249411E+00 -1.91049882E+01  0.00000000E+00  9.55249411E+00
  9.55249411E+00 -1.91049882E+01  0.00000000E+00  9.55249411E+00  9.55249411E+00
 -1.91049882E+01  0.00000000E+00  9.55249411E+00  9.55249411E+00 -1.91049882E+01
  0.00000000E+00  9.55249411E+00  9.55249411E+00 -1.91049882E+01  0.00000000E+00
  9.55249411E+00  9.55249411E+00 -1.91049882E+01  0.00000000E+00  9.55249411E+00
  9.55249411E+00 -1.91049882E+01  0.00000000E+00  9.55249411E+00  9.55249411E+00
 -1.91049882E+01  0.00000000E+00  9.55249411E+00  9.55249411E+00 -1.91049882E+01
  0.00000000E+00  9.55249411E+00  9.55249411E+00 -1.91049882E+01  0.00000000E+00
  9.55249411E+00  9.55249411E+00 -1.91049882E+01  0.00000000E+00  9.55249411E+00
  9.55249411E+00 -1.91049882E+01  0.00000000E+00  9.55249411E+00  9.55249411E+00
 -1.91049882E+01  0.00000000E+00  9.55249411E+00  9.55249411E+00 -1.91049882E+01
  0.00000000E+00  9.55249411E+00  9.55249411E+00 -1.91049882E+01  0.00000000E+00
  9.55249411E+00  9.55249411E+00 -1.91049882E+01  0.00000000E+00  9.55249411E+00
  9.55249411E+00 -1.91049882E+01  0.00000000E+00  9.55249411E+00  9.55249411E+00
 -1.91049882E+01  0.00000000E+00  9.55249411E+00  9.55249411E+00 -1.91049882E+01
  0.00000000E+00  9.55249411E+00  9.55249411E+00 -1.91049882E+01  0.00000000E+00
  9.55249411E+00  9.55249411E+00 -1.91049882E+01  0.00000000E+00  9.55249411E+00
  9.55249411E+00 -1.91049882E+01  0.00000000E+00  9.55249411E+00  9.55249411E+00
 -1.91049882E+01  0.00000000E+00  9.55249411E+00  9.55249411E+00 -1.91049882E+01
  0.00000000E+00  9.55249411E+00  9.55249411E+00 -1.91049882E+01  0.00000000E+00
  9.55249411E+00  9.55249411E+00 -1.91049882E+01  0.00000000E+00  9.55249411E+00
  9.55249411E+00 -1.91049882E+01  0.00000000E+00  9.55249411E+00  9.55249411E+00
 -1.91049882E+01  0.00000000E+00  9.55249411E+00  9.55249411E+00 -1.91049882E+01
  0.00000000E+00  9.55249411E+00  9.55249411E+00 -1.91049882E+01  0.00000000E+00
  9.55249411E+00  9.55249411E+00 -1.91049882E+01  0.00000000E+00  9.55249411E+00
  9.55249411E+00 -1.91049882E+01  0.00000000E+00  9.55249411E+00  9.55249411E+00
 -1.91049882E+01  0.00000000E+00  9.55249411E+00  9.55249411E+00 -1.91049882E+01
  0.00000000E+00  9.55249411E+00  9.55249411E+00 -1.91049882E+01  0.00000000E+00
  9.55249411E+00  9.55249411E+00 -1.91049882E+01  0.00000000E+00  9.55249411E+00
  9.55249411E+00 -1.91049882E+01  0.00000000E+00  9.55249411E+00  9.55249411E+00
 -1.91049882E+01  0.00000000E+00  9.55249411E+00  9.55249411E+00 -1.91049882E+01
  0.00000000E+00  9.55249411E+00  9.55249411E+00 -1.91049882E+01  0.00000000E+00
  9.55249411E+00  9.55249411E+00 -1.91049882E+01  0.00000000E+00  9.55249411E+00
  9.55249411E+00 -1.91049882E+01  0.00000000E+00  9.55249411E+00  9.55249411E+00
 -1.91049882E+01  0.00000000E+00  9.55249411E+00  9.55249411E+00 -1.91049882E+01
  0.00000000E+00  9.55249411E+00  9.55249411E+00 -1.91049882E+01  0.00000000E+00
  9.55249411E+00  9.55249411E+00 -1.91049882E+01  0.00000000E+00  9.55249411E+00
  9.55249411E+00 -1.91049882E+01  0.00000000E+00  9.55249411E+00  9.55249411E+00
 -1.91049882E+01  0.00000000E+00  9.55249411E+00  9.55249411E+00 -1.91049882E+01
  0.00000000E+00  9.55249411E+00  9.55249411E+00 -1.91049882E+01  0.00000000E+00
  9.55249411E+00  9.55249411E+00 -1.91049882E+01  0.00000000E+00  9.55249411E+00
  9.55249411E+00 -1.91049882E+01  0.00000000E+00  9.55249411E+00  9.55249411E+00
 -1.91049882E+01  0.00000000E+00  9.55249411E+00  9.55249411E+00 -1.91049882E+01
  0.00000000E+00  9.55249411E+00  9.55249411E+00 -1.91049882E+01  0.00000000E+00
  9.55249411E+00  9.55249411E+00 -1.91049882E+01  0.00000000E+00  9.55249411E+00
  9.55249411E+00 -1.91049882E+01  0.00000000E+00  9.55249411E+00  9.55249411E+00
 -1.91049882E+01  0.00000000E+00  9.55249411E+00  9.55249411E+00 -1.91049882E+01
  0.00000000E+00  9.55249411E+00  9.55249411E+00 -1.91049882E+01  0.00000000E+00
  9.55249411E+00  9.55249411E+00 -1.91049882E+01  0.00000000E+00  9.55249411E+00
  9.55249411E+00 -1.91049882E+01  0.00000000E+00  9.55249411E+00  9.55249411E+00
 -1.91049882E+01  0.00000000E+00  9.55249411E+00  9.55249411E+00 -1.91049882E+01
  0.00000000E+00  9.55249411E+00  9.55249411E+00 -1.91049882E+01  0.00000000E+00
  9.55249411E+00  9.55249411E+00 -1.91049882E+01  0.00000000E+00  9.55249411E+00
  9.55249411E+00 -1.91049882E+01  0.00000000E+00  9.55249411E+00  9.55249411E+00
 -1.91049882E+01  0.00000000E+00  9.55249411E+00  9.55249411E+00 -1.91049882E+01
  0.00000000E+00  9.55249411E+00  9.55249411E+00 -1.91049882E+01  0.00000000E+00
  9.55249411E+00  9.55249411E+00 -1.91049882E+01  0.00000000E+00  9.55249411E+00
  9.55249411E+00 -1.91049882E+01  0.00000000E+00  9.55249411E+00  9.55249411E+00
 -1.91049882E+01  0.00000000E+00  9.55249411E+00  9.55249411E+00 -1.91049882E+01
  0.00000000E+00  9.55249411E+00  9.55249411E+00 -1.91049882E+01  0.00000000E+00
  9.55249411E+00  9.55249411E+00 -1.91049882E+01  0.00000000E+00  9.55249411E+00
  9.55249411E+00 -1.91049882E+01  0.00000000E+00  9.55249411E+00  9.55249411E+00
 -1.91049882E+01  0.00000000E+00  9.55249411E+00  9.55249411E+00 -1.91049882E+01
  0.00000000E+00  9.55249411E+00  9.55249411E+00 -1.91049882E+01  0.00000000E+00
  9.55249411E+00  9.55249411E+00 -1.91049882E+01  0.00000000E+00  9.55249411E+00
  9.55249411E+00 -1.91049882E+01  0.00000000E+00  9.55249411E+00  9.55249411E+00
 -1.91049882E+01  0.00000000E+00  9.55249411E+00  9.55249411E+00 -1.91049882E+01
  0.00000000E+00  9.55249411E+00  9.55249411E+00 -1.91049882E+01  0.00000000E+00
  9.55249411E+00  9.55249411E+00 -1.91049882E+01  0.00000000E+00  9.55249411E+00
  9.55249411E+00 -1.91049882E+01  0.00000000E+00  9.55249411E+00  9.55249411E+00
 -1.91049882E+01  0.00000000E+00  9.55249411E+00  9.55249411E+00 -1.91049882E+01
  0.00000000E+00  9.55249411E+00  9.55249411E+00 -1.91049882E+01  0.00000000E+00
  9.55249411E+00  9.55249411E+00 -1.91049882E+01  0.00000000E+00  9.55249411E+00
  9.55249411E+00 -1.91049882E+01  0.00000000E+00  9.55249411E+00  9.55249411E+00
 -1.91049882E+01  0.00000000E+00  9.55249411E+00  9.55249411E+00 -1.91049882E+01
  0.00000000E+00  9.55249411E+00  9.55249411E+00 -1.91049882E+01  0.00000000E+00
  9.55249411E+00  9.55249411E+00 -1.91049882E+01  0.00000000E+00  9.55249411E+00
  9.55249411E+00 -1.91049882E+01  0.00000000E+00  9.55249411E+00  9.55249411E+00
 -1.91049882E+01  0.00000000E+00  9.55249411E+00  9.55249411E+00 -1.91049882E+01
  0.00000000E+00  9.55249411E+00  9.55249411E+00 -1.91049882E+01  0.00000000E+00
  9.55249411E+00  9.55249411E+00 -1.91049882E+01  0.00000000E+00  9.55249411E+00
  9.55249411E+00 -1.91049882E+01  0.00000000E+00  9.55249411E+00  9.55249411E+00
 -1.91049882E+01  0.00000000E+00  9.55249411E+00  9.55249411E+00 -1.91049882E+01
  0.00000000E+00  9.55249411E+00  9.55249411E+00 -1.91049882E+01  0.00000000E+00
  9.55249411E+00  9.55249411E+00 -1.91049882E+01  0.00000000E+00  9.55249411E+00
  9.55249411E+00 -1.91049882E+01  0.00000000E+00  9.55249411E+00  9.55249411E+00
 -1.91049882E+01  0.00000000E+00  9.55249411E+00  9.55249411E+00 -1.91049882E+01
  0.00000000E+00  9.55249411E+00  9.55249411E+00 -1.91049882E+01  0.00000000E+00
  9.55249411E+00  9.55249411E+00 -1.91049882E+01  0.00000000E+00  9.55249411E+00
  9.55249411E+00 -1.91049882E+01  0.00000000E+00  9.55249411E+00  9.55249411E+00
 -1.91049882E+01  0.00000000E+00  9.55249411E+00  9.55249411E+00 -1.91049882E+01
  0.00000000E+00  9.55249411E+00  9.55249411E+00 -1.91049882E+01  0.00000000E+00
  9.55249411E+00  9.55249411E+00 -1.91049882E+01  0.00000000E+00  9.55249411E+00
  9.55249411E+00 -1.91049882E+01  0.00000000E+00  9.55249411E+00  9.55249411E+00
 -1.91049882E+01  0.00000000E+00  9.55249411E+00  9.55249411E+00 -1.91049882E+01
  0.00000000E+00  9.55249411E+00  9.55249411E+00 -1.91049882E+01  0.00000000E+00
  9.55249411E+00  9.55249411E+00 -1.91049882E+01  0.00000000E+00  9.55249411E+00
  9.55249411E+00 -1.91049882E+01  0.00000000E+00  9.55249411E+00  9.55249411E+00
 -1.91049882E+01  0.00000000E+00  9.55249411E+00  9.55249411E+00 -1.91049882E+01
  0.00000000E+00  9.55249411E+00  9.55249411E+00 -1.91049882E+01  0.00000000E+00
  9.55249411E+00  9.55249411E+00 -1.91049882E+01  0.00000000E+00  9.55249411E+00
  9.55249411E+00 -1.91049882E+01  0.00000000E+00  9.55249411E+00  9.55249411E+00
 -1.91049882E+01  0.00000000E+00  9.55249411E+00  9.55249411E+00 -1.91049882E+01
  0.00000000E+00  9.55249411E+00  9.55249411E+00 -1.91049882E+01  0.00000000E+00
  9.55249411E+00  9.55249411E+00 -1.91049882E+01  0.00000000E+00  9.55249411E+00
  9.55249411E+00 -1.91049882E+01  0.00000000E+00  9.55249411E+00  9.55249411E+00
 -1.91049882E+01  0.00000000E+00  9.55249411E+00  9.55249411E+00 -1.91049882E+01
  0.00000000E+00  9.55249411E+00  9.55249411E+00 -1.91049882E+01  0.00000000E+00
  9.55249411E+00  9.55249411E+00 -1.91049882E+01  0.00000000E+00  9.55249411E+00
  9.55249411E+00 -1.91049882E+01  0.00000000E+00  9.55249411E+00  9.55249411E+00
 -1.91049882E+01  0.00000000E+00  9.55249411E+00  9.55249411E+00 -1.91049882E+01
  0.00000000E+00  9.55249411E+00  9.55249411E+00 -1.91049882E+01  0.00000000E+00
  9.55249411E+00  9.55249411E+00 -1.91049882E+01  0.00000000E+00  9.55249411E+00
  9.55249411E+00 -1.91049882E+01  0.00000000E+00  9.55249411E+00  9.55249411E+00
 -1.91049882E+01  0.00000000E+00  9.55249411E+00  9.55249411E+00 -1.91049882E+01
  0.00000000E+00  9.55249411E+00  9.55249411E+00 -1.91049882E+01  0.00000000E+00
  9.55249411E+00  9.55249411E+00 -1.91049882E+01  0.00000000E+00  9.55249411E+00
  9.55249411E+00 -1.91049882E+01  0.00000000E+00  9.55249411E+00  9.55249411E+00
 -1.91049882E+01  0.00000000E+00  9.55249411E+00  9.55249411E+00 -1.91049882E+01
  0.00000000E+00  9.55249411E+00  9.55249411E+00 -1.91049882E+01  0.00000000E+00
  9.55249411E+00  9.55249411E+00 -1.91049882E+01  0.00000000E+00  9.55249411E+00
  9.55249411E+00 -1.91049882E+01  0.00000000E+00  9.55249411E+00  9.55249411E+00
 -1.91049882E+01  0.00000000E+00  9.55249411E+00  9.55249411E+00 -1.91049882E+01
  0.00000000E+00  9.55249411E+00  9.55249411E+00 -1.91049882E+01  0.00000000E+00
  9.55249411E+00  9.55249411E+00 -1.91049882E+01  0.00000000E+00  9.55249411E+00
  9.55249411E+00 -1.91049882E+01  0.00000000E+00  9.55249411E+00  9.55249411E+00
 -1.91049882E+01  0.00000000E+00  9.55249411E+00  9.55249411E+00 -1.91049882E+01
  0.00000000E+00  9.55249411E+00  9.55249411E+00 -1.91049882E+01  0.00000000E+00
  9.55249411E+00  9.55249411E+00 -1.91049882E+01  0.00000000E+00  9.55249411E+00
  9.55249411E+00 -1.91049882E+01  0.00000000E+00  9.55249411E+00  9.55249411E+00
 -1.91049882E+01  0.00000000E+00  9.55249411E+00  9.55249411E+00 -1.91049882E+01
  0.00000000E+00  9.55249411E+00  9.55249411E+00 -1.91049882E+01  0.00000000E+00
  9.55249411E+00  9.55249411E+00 -1.91049882E+01  0.00000000E+00  9.55249411E+00
  9.55249411E+00 -1.91049882E+01  0.00000000E+00  9.55249411E+00  9.55249411E+00
 -1.91049882E+01  0.00000000E+00  9.55249411E+00  9.55249411E+00 -1.91049882E+01
  0.00000000E+00  9.55249411E+00  9.55249411E+00 -1.91049882E+01  0.00000000E+00
  9.55249411E+00  9.55249411E+00 -1.91049882E+01  0.00000000E+00  9.55249411E+00
  9.55249411E+00 -1.91049882E+01  0.00000000E+00  9.55249411E+00  9.55249411E+00
 -1.91049882E+01  0.00000000E+00  9.55249411E+00  9.55249411E+00 -1.91049882E+01
  0.00000000E+00  9.55249411E+00  9.55249411E+00 -1.91049882E+01  0.00000000E+00
  9.55249411E+00  9.55249411E+00 -1.91049882E+01  0.00000000E+00  9.55249411E+00
  9.55249411E+00 -1.91049882E+01  0.00000000E+00  9.55249411E+00  9.55249411E+00
 -1.91049882E+01  0.00000000E+00  9.55249411E+00  9.55249411E+00 -1.91049882E+01
  0.00000000E+00  9.55249411E+00  9.55249411E+00 -1.91049882E+01  0.00000000E+00
  9.55249411E+00  9.55249411E+00 -1.91049882E+01  0.00000000E+00  9.55249411E+00
  9.55249411E+00 -1.91049882E+01  0.00000000E+00  9.55249411E+00  9.55249411E+00
 -1.91049882E+01  0.00000000E+00  9.55249411E+00  9.55249411E+00 -1.91049882E+01
  0.00000000E+00  9.55249411E+00  9.55249411E+00 -1.91049882E+01  0.00000000E+00
  9.55249411E+00  9.55249411E+00 -1.91049882E+01  0.00000000E+00  9.55249411E+00
  9.55249411E+00 -1.91049882E+01  0.00000000E+00  9.55249411E+00  9.55249411E+00
 -1.91049882E+01  0.00000000E+00  9.55249411E+00  9.55249411E+00 -1.91049882E+01
  0.00000000E+00  9.55249411E+00  9.55249411E+00 -1.91049882E+01  0.00000000E+00
  9.55249411E+00  9.55249411E+00 -1.91049882E+01  0.00000000E+00  9.55249411E+00
  9.55249411E+00 -1.91049882E+01  0.00000000E+00  9.55249411E+00  9.55249411E+00
 -1.91049882E+01  0.00000000E+00  9.55249411E+00  9.55249411E+00 -1.91049882E+01
  0.00000000E+00  9.55249411E+00  9.55249411E+00 -1.91049882E+01  0.00000000E+00
  9.55249411E+00  9.55249411E+00 -1.91049882E+01  0.00000000E+00  9.55249411E+00
  9.55249411E+00 -1.91049882E+01  0.00000000E+00  9.55249411E+00  9.55249411E+00
 -1.91049882E+01  0.00000000E+00  9.55249411E+00  9.55249411E+00 -1.91049882E+01
  0.00000000E+00  9.55249411E+00  9.55249411E+00 -1.91049882E+01  0.00000000E+00
  9.55249411E+00  9.55249411E+00 -1.91049882E+01  0.00000000E+00  9.55249411E+00
  9.55249411E+00 -1.91049882E+01  0.00000000E+00  9.55249411E+00  9.55249411E+00
 -1.91049882E+01  0.00000000E+00  9.55249411E+00  9.55249411E+00 -1.91049882E+01
  0.00000000E+00  9.55249411E+00  9.55249411E+00 -1.91049882E+01  0.00000000E+00
  9.55249411E+00  9.55249411E+00 -1.91049882E+01  0.00000000E+00  9.55249411E+00
  9.55249411E+00 -1.91049882E+01  0.00000000E+00  9.55249411E+00  9.55249411E+00
 -1.91049882E+01  0.00000000E+00  9.55249411E+00  9.55249411E+00 -1.91049882E+01
  0.00000000E+00  9.55249411E+00  9.55249411E+00 -1.91049882E+01  0.00000000E+00
  9.55249411E+00  9.55249411E+00 -1.91049882E+01  0.00000000E+00  9.55249411E+00
  9.55249411E+00 -1.91049882E+01  0.00000000E+00  9.55249411E+00  9.55249411E+00
 -1.91049882E+01  0.00000000E+00  9.55249411E+00  9.55249411E+00 -1.91049882E+01
  0.00000000E+00  9.55249411E+00  9.55249411E+00 -1.91049882E+01  0.00000000E+00
  9.55249411E+00  9.55249411E+00 -1.91049882E+01  0.00000000E+00  9.55249411E+00
  9.55249411E+00 -1.91049882E+01  0.00000000E+00  9.55249411E+00  9.55249411E+00
 -1.91049882E+01  0.00000000E+00  9.55249411E+00  9.55249411E+00 -1.91049882E+01
  0.00000000E+00  9.55249411E+00  9.55249411E+00 -1.91049882E+01  0.00000000E+00
  9.55249411E+00  9.55249411E+00 -1.91049882E+01  0.00000000E+00  9.55249411E+00
  9.55249411E+00 -1.91049882E+01  0.00000000E+00  9.55249411E+00  9.55249411E+00
 -1.91049882E+01  0.00000000E+00  9.55249411E+00  9.55249411E+00 -1.91049882E+01
  0.00000000E+00  9.55249411E+00  9.55249411E+00 -1.91049882E+01  0.00000000E+00
  9.55249411E+00  9.55249411E+00 -1.91049882E+01  0.00000000E+00  9.55249411E+00
  9.55249411E+00 -1.91049882E+01  0.00000000E+00  9.55249411E+00  9.55249411E+00
 -1.91049882E+01  0.00000000E+00  9.55249411E+00  9.55249411E+00 -1.91049882E+01
  0.00000000E+00  9.55249411E+00  9.55249411E+00 -1.91049882E+01  0.00000000E+00
  9.55249411E+00  9.55249411E+00 -1.91049882E+01  0.00000000E+00  9.55249411E+00
  9.55249411E+00 -1.91049882E+01  0.00000000E+00  9.55249411E+00  9.55249411E+00
 -1.91049882E+01  0.00000000E+00  9.55249411E+00  9.55249411E+00 -1.91049882E+01
  0.00000000E+00  9.55249411E+00  9.55249411E+00 -1.91049882E+01  0.00000000E+00
  9.55249411E+00  9.55249411E+00 -1.91049882E+01  0.00000000E+00  9.55249411E+00
  9.55249411E+00 -1.91049882E+01  0.00000000E+00  9.55249411E+00  9.55249411E+00
 -1.91049882E+01  0.00000000E+00  9.55249411E+00  9.55249411E+00 -1.91049882E+01
  0.00000000E+00  9.55249411E+00  9.55249411E+00 -1.91049882E+01  0.00000000E+00
  9.55249411E+00  9.55249411E+00 -1.91049882E+01  0.00000000E+00  9.55249411E+00
  9.55249411E+00 -1.91049882E+01  0.00000000E+00  9.55249411E+00  9.55249411E+00
 -1.91049882E+01  0.00000000E+00  9.55249411E+00  9.55249411E+00 -1.91049882E+01
  0.00000000E+00  9.55249411E+00  9.55249411E+00 -1.91049882E+01  0.00000000E+00
  9.55249411E+00  9.55249411E+00 -1.91049882E+01  0.00000000E+00  9.55249411E+00
  9.55249411E+00 -1.91049882E+01  0.00000000E+00  9.55249411E+00  9.55249411E+00
 -1.91049882E+01  0.00000000E+00  9.55249411E+00  9.55249411E+00 -1.91049882E+01
  0.00000000E+00  9.55249411E+00  9.55249411E+00 -1.91049882E+01  0.00000000E+00
  9.55249411E+00  9.55249411E+00 -1.91049882E+01  0.00000000E+00  9.55249411E+00
  9.55249411E+00 -1.91049882E+01  0.00000000E+00  9.55249411E+00  9.55249411E+00
 -1.91049882E+01  0.00000000E+00  9.55249411E+00  9.55249411E+00 -1.91049882E+01
  0.00000000E+00  9.55249411E+00  9.55249411E+00 -1.91049882E+01  0.00000000E+00
  9.55249411E+00  9.55249411E+00 -1.91049882E+01  0.00000000E+00  9.55249411E+00
  9.55249411E+00 -1.91049882E+01  0.00000000E+00  9.55249411E+00  9.55249411E+00
 -1.91049882E+01  0.00000000E+00  9.55249411E+00  9.55249411E+00 -1.91049882E+01
  0.00000000E+00  9.55249411E+00  9.55249411E+00 -1.91049882E+01  0.00000000E+00
  9.55249411E+00  9.55249411E+00 -1.91049882E+01  0.00000000E+00  9.55249411E+00
  9.55249411E+00 -1.91049882E+01  0.00000000E+00  9.55249411E+00  9.55249411E+00
 -1.91049882E+01  0.00000000E+00  9.55249411E+00  9.55249411E+00 -1.91049882E+01
  0.00000000E+00  9.55249411E+00  9.55249411E+00 -1.91049882E+01  0.00000000E+00
  9.55249411E+00  9.55249411E+00 -1.91049882E+01  0.00000000E+00  9.55249411E+00
  9.55249411E+00 -1.91049882E+01  0.00000000E+00  9.55249411E+00  9.55249411E+00
 -1.91049882E+01  0.00000000E+00  9.55249411E+00  9.55249411E+00 -1.91049882E+01
  0.00000000E+00  9.55249411E+00  9.55249411E+00 -1.91049882E+01  0.00000000E+00
  9.55249411E+00  9.55249411E+00 -1.91049882E+01  0.00000000E+00  9.55249411E+00
  9.55249411E+00 -1.91049882E+01  0.00000000E+00  9.55249411E+00  9.55249411E+00
 -1.91049882E+01  0.00000000E+00  9.55249411E+00  9.55249411E+00 -1.91049882E+01
  0.00000000E+00  9.55249411E+00  9.55249411E+00 -1.91049882E+01  0.00000000E+00
  9.55249411E+00  9.55249411E+00 -1.91049882E+01  0.00000000E+00  9.55249411E+00
  9.55249411E+00 -1.91049882E+01  0.00000000E+00  9.55249411E+00  9.55249411E+00
 -1.91049882E+01  0.00000000E+00  9.55249411E+00  9.55249411E+00 -1.91049882E+01
  0.00000000E+00  9.55249411E+00  9.55249411E+00 -1.91049882E+01  0.00000000E+00
  9.55249411E+00  9.55249411E+00 -1.91049882E+01  0.00000000E+00  9.55249411E+00
  9.55249411E+00 -1.91049882E+01  0.00000000E+00  9.55249411E+00  9.55249411E+00
 -1.91049882E+01  0.00000000E+00  9.55249411E+00  9.55249411E+00 -1.91049882E+01
  0.00000000E+00  9.55249411E+00  9.55249411E+00 -1.91049882E+01  0.00000000E+00
  9.55249411E+00  9.55249411E+00 -1.91049882E+01  0.00000000E+00  9.55249411E+00
  9.55249411E+00 -1.91049882E+01  0.00000000E+00  9.55249411E+00  9.55249411E+00
 -1.91049882E+01  0.00000000E+00  9.55249411E+00  9.55249411E+00 -1.91049882E+01
  0.00000000E+00  9.55249411E+00  9.55249411E+00 -1.91049882E+01  0.00000000E+00
  9.55249411E+00  9.55249411E+00 -1.91049882E+01  0.00000000E+00  9.55249411E+00
  9.55249411E+00 -1.91049882E+01  0.00000000E+00  9.55249411E+00  9.55249411E+00
 -1.91049882E+01  0.00000000E+00  9.55249411E+00  9.55249411E+00 -1.91049882E+01
  0.00000000E+00  9.55249411E+00  9.55249411E+00 -1.91049882E+01  0.00000000E+00
  9.55249411E+00  9.55249411E+00 -1.91049882E+01  0.00000000E+00  9.55249411E+00
  9.55249411E+00 -1.91049882E+01  0.00000000E+00  9.55249411E+00  9.55249411E+00
 -1.91049882E+01  0.00000000E+00  9.55249411E+00  9.55249411E+00 -1.91049882E+01
  0.00000000E+00  9.55249411E+00  9.55249411E+00 -1.91049882E+01  0.00000000E+00
  9.55249411E+00  9.55249411E+00 -1.91049882E+01  0.00000000E+00  9.55249411E+00
  9.55249411E+00 -1.91049882E+01  0.00000000E+00  9.55249411E+00  9.55249411E+00
 -1.91049882E+01  0.00000000E+00  9.55249411E+00  9.55249411E+00 -1.91049882E+01
  0.00000000E+00  9.55249411E+00  9.55249411E+00 -1.91049882E+01  0.00000000E+00
  9.55249411E+00  9.55249411E+00 -1.91049882E+01  0.00000000E+00  9.55249411E+00
  9.55249411E+00 -1.91049882E+01  0.00000000E+00  9.55249411E+00  9.55249411E+00
 -1.91049882E+01  0.00000000E+00  9.55249411E+00  9.55249411E+00 -1.91049882E+01
  0.00000000E+00  9.55249411E+00  9.55249411E+00 -1.91049882E+01  0.00000000E+00
  9.55249411E+00  9.55249411E+00 -1.91049882E+01  0.00000000E+00  9.55249411E+00
  9.55249411E+00 -1.91049882E+01  0.00000000E+00  9.55249411E+00  9.55249411E+00
 -1.91049882E+01  0.00000000E+00  9.55249411E+00  9.55249411E+00 -1.91049882E+01
  0.00000000E+00  9.55249411E+00  9.55249411E+00 -1.91049882E+01  0.00000000E+00
  9.55249411E+00  9.55249411E+00 -1.91049882E+01  0.00000000E+00  9.55249411E+00
  9.55249411E+00 -1.91049882E+01  0.00000000E+00  9.55249411E+00  9.55249411E+00
 -1.91049882E+01  0.00000000E+00  9.55249411E+00  9.55249411E+00 -1.91049882E+01
  0.00000000E+00  9.55249411E+00  9.55249411E+00 -1.91049882E+01  0.00000000E+00
  9.55249411E+00  9.55249411E+00 -1.91049882E+01  0.00000000E+00  9.55249411E+00
  9.55249411E+00 -1.91049882E+01  0.00000000E+00  9.55249411E+00  9.55249411E+00
 -1.91049882E+01  0.00000000E+00  9.55249411E+00  9.55249411E+00 -1.91049882E+01
  0.00000000E+00  9.55249411E+00  9.55249411E+00 -1.91049882E+01  0.00000000E+00
  9.55249411E+00  9.55249411E+00 -1.91049882E+01  0.00000000E+00  9.55249411E+00
  9.55249411E+00 -1.91049882E+01  0.00000000E+00  9.55249411E+00  9.55249411E+00
 -1.91049882E+01  0.00000000E+00  9.55249411E+00  9.55249411E+00 -1.91049882E+01
  0.00000000E+00  9.55249411E+00  9.55249411E+00 -1.91049882E+01  0.00000000E+00
  9.55249411E+00  9.55249411E+00 -1.91049882E+01  0.00000000E+00  9.55249411E+00
  9.55249411E+00 -1.91049882E+01  0.00000000E+00  9.55249411E+00  9.55249411E+00
 -1.91049882E+01  0.00000000E+00  9.55249411E+00  9.55249411E+00 -1.91049882E+01
  0.00000000E+00  9.55249411E+00  9.55249411E+00 -1.91049882E+01  0.00000000E+00
  9.55249411E+00  9.55249411E+00 -1.91049882E+01  0.00000000E+00  9.55249411E+00
  9.55249411E+00 -1.91049882E+01  0.00000000E+00  9.55249411E+00  9.55249411E+00
 -1.91049882E+01  0.00000000E+00  9.55249411E+00  9.55249411E+00 -1.91049882E+01
  0.00000000E+00  9.55249411E+00  9.55249411E+00 -1.91049882E+01  0.00000000E+00
  9.55249411E+00  9.55249411E+00 -1.91049882E+01  0.00000000E+00  9.55249411E+00
  9.55249411E+00 -1.91049882E+01  0.00000000E+00  9.55249411E+00  9.55249411E+00
 -1.91049882E+01  0.00000000E+00  9.55249411E+00  9.55249411E+00 -1.91049882E+01
  0.00000000E+00  9.55249411E+00  9.55249411E+00 -1.91049882E+01  0.00000000E+00
  9.55249411E+00  9.55249411E+00 -1.91049882E+01  0.00000000E+00  9.55249411E+00
  9.55249411E+00 -1.91049882E+01  0.00000000E+00  9.55249411E+00  9.55249411E+00
 -1.91049882E+01  0.00000000E+00  9.55249411E+00  9.55249411E+00 -1.91049882E+01
  0.00000000E+00  9.55249411E+00  9.55249411E+00 -1.91049882E+01  0.00000000E+00
  9.55249411E+00  9.55249411E+00 -1.91049882E+01  0.00000000E+00  9.55249411E+00
  9.55249411E+00 -1.91049882E+01  0.00000000E+00  9.55249411E+00  9.55249411E+00
 -1.91049882E+01  0.00000000E+00  9.55249411E+00  9.55249411E+00 -1.91049882E+01
  0.00000000E+00  9.55249411E+00  9.55249411E+00 -1.91049882E+01  0.00000000E+00
  9.55249411E+00  9.55249411E+00 -1.91049882E+01  0.00000000E+00  9.55249411E+00
  9.55249411E+00 -1.91049882E+01  0.00000000E+00  9.55249411E+00  9.55249411E+00
 -1.91049882E+01  0.00000000E+00  9.55249411E+00  9.55249411E+00 -1.91049882E+01
  0.00000000E+00  9.55249411E+00  9.55249411E+00 -1.91049882E+01  0.00000000E+00
  9.55249411E+00  9.55249411E+00 -1.91049882E+01  0.00000000E+00  9.55249411E+00
  9.55249411E+00 -1.91049882E+01  0.00000000E+00  9.55249411E+00  9.55249411E+00
 -1.91049882E+01  0.00000000E+00  9.55249411E+00  9.55249411E+00 -1.91049882E+01
  0.00000000E+00  9.55249411E+00  9.55249411E+00 -1.91049882E+01  0.00000000E+00
  9.55249411E+00  9.55249411E+00 -1.91049882E+01  0.00000000E+00  9.55249411E+00
  9.55249411E+00 -1.91049882E+01  0.00000000E+00  9.55249411E+00  9.55249411E+00
 -1.91049882E+01  0.00000000E+00  9.55249411E+00  9.55249411E+00 -1.91049882E+01
  0.00000000E+00  9.55249411E+00  9.55249411E+00 -1.91049882E+01  0.00000000E+00
  9.55249411E+00  9.55249411E+00 -1.91049882E+01  0.00000000E+00  9.55249411E+00
  9.55249411E+00 -1.91049882E+01  0.00000000E+00  9.55249411E+00  9.55249411E+00
 -1.91049882E+01  0.00000000E+00  9.55249411E+00  9.55249411E+00 -1.91049882E+01
  0.00000000E+00  9.55249411E+00  9.55249411E+00 -1.91049882E+01  0.00000000E+00
  9.55249411E+00  9.55249411E+00 -1.91049882E+01  0.00000000E+00  9.55249411E+00
  9.55249411E+00 -1.91049882E+01  0.00000000E+00  9.55249411E+00  9.55249411E+00
 -1.91049882E+01  0.00000000E+00  9.55249411E+00  9.55249411E+00 -1.91049882E+01
  0.00000000E+00  9.55249411E+00  9.55249411E+00 -1.91049882E+01  0.00000000E+00
  9.55249411E+00  9.55249411E+00 -1.91049882E+01  0.00000000E+00  9.55249411E+00
  9.55249411E+00 -1.91049882E+01  0.00000000E+00  9.55249411E+00  9.55249411E+00
 -1.91049882E+01  0.00000000E+00  9.55249411E+00  9.55249411E+00 -1.91049882E+01
  0.00000000E+00  9.55249411E+00  9.55249411E+00 -1.91049882E+01  0.00000000E+00
  9.55249411E+00  9.55249411E+00 -1.91049882E+01  0.00000000E+00  9.55249411E+00
  9.55249411E+00 -1.91049882E+01  0.00000000E+00  9.55249411E+00  9.55249411E+00
 -1.91049882E+01  0.00000000E+00  9.55249411E+00  9.55249411E+00 -1.91049882E+01
  0.00000000E+00  9.55249411E+00  9.55249411E+00 -1.91049882E+01  0.00000000E+00
  9.55249411E+00  9.55249411E+00 -1.91049882E+01  0.00000000E+00  9.55249411E+00
  9.55249411E+00 -1.91049882E+01  0.00000000E+00  9.55249411E+00  9.55249411E+00
 -1.91049882E+01  0.00000000E+00  9.55249411E+00  9.55249411E+00 -1.91049882E+01
  0.00000000E+00  9.55249411E+00  9.55249411E+00 -1.91049882E+01  0.00000000E+00
  9.55249411E+00  9.55249411E+00 -1.91049882E+01  0.00000000E+00  9.55249411E+00
  9.55249411E+00 -1.91049882E+01  0.00000000E+00  9.55249411E+00  9.55249411E+00
 -1.91049882E+01  0.00000000E+00  9.55249411E+00  9.55249411E+00 -1.91049882E+01
  0.00000000E+00  9.55249411E+00  9.55249411E+00 -1.91049882E+01  0.00000000E+00
  9.55249411E+00  9.55249411E+00 -1.91049882E+01  0.00000000E+00  9.55249411E+00
  9.55249411E+00 -1.91049882E+01  0.00000000E+00  9.55249411E+00  9.55249411E+00
 -1.91049882E+01  0.00000000E+00  9.55249411E+00  9.55249411E+00 -1.91049882E+01
  0.00000000E+00  9.55249411E+00  9.55249411E+00 -1.91049882E+01  0.00000000E+00
  9.55249411E+00  9.55249411E+00 -1.91049882E+01  0.00000000E+00  9.55249411E+00
  9.55249411E+00 -1.91049882E+01  0.00000000E+00  9.55249411E+00  9.55249411E+00
 -1.91049882E+01  0.00000000E+00  9.55249411E+00  9.55249411E+00 -1.91049882E+01
  0.00000000E+00  9.55249411E+00  9.55249411E+00 -1.91049882E+01  0.00000000E+00
  9.55249411E+00  9.55249411E+00 -1.91049882E+01  0.00000000E+00  9.55249411E+00
  9.55249411E+00 -1.91049882E+01  0.00000000E+00  9.55249411E+00  9.55249411E+00
 -1.91049882E+01  0.00000000E+00  9.55249411E+00  9.55249411E+00 -1.91049882E+01
  0.00000000E+00  9.55249411E+00  9.55249411E+00 -1.91049882E+01  0.00000000E+00
  9.55249411E+00  9.55249411E+00 -1.91049882E+01  0.00000000E+00  9.55249411E+00
  9.55249411E+00 -1.91049882E+01  0.00000000E+00  9.55249411E+00  9.55249411E+00
 -1.91049882E+01  0.00000000E+00  9.55249411E+00  9.55249411E+00 -1.91049882E+01
  0.00000000E+00  9.55249411E+00  9.55249411E+00 -1.91049882E+01  0.00000000E+00
  9.55249411E+00  9.55249411E+00 -1.91049882E+01  0.00000000E+00  9.55249411E+00
  9.55249411E+00 -1.91049882E+01  0.00000000E+00  9.55249411E+00  9.55249411E+00
 -1.91049882E+01  0.00000000E+00  9.55249411E+00  9.55249411E+00 -1.91049882E+01
  0.00000000E+00  9.55249411E+00  9.55249411E+00 -1.91049882E+01  0.00000000E+00
  9.55249411E+00  9.55249411E+00 -1.91049882E+01  0.00000000E+00  9.55249411E+00
  9.55249411E+00 -1.91049882E+01  0.00000000E+00  9.55249411E+00  9.55249411E+00
 -1.91049882E+01  0.00000000E+00  9.55249411E+00  9.55249411E+00 -1.91049882E+01
  0.00000000E+00  9.55249411E+00  9.55249411E+00 -1.91049882E+01  0.00000000E+00
  9.55249411E+00  9.55249411E+00 -1.91049882E+01  0.00000000E+00  9.55249411E+00
  9.55249411E+00 -1.91049882E+01  0.00000000E+00  9.55249411E+00  9.55249411E+00
 -1.91049882E+01  0.00000000E+00  9.55249411E+00  9.55249411E+00 -1.91049882E+01
  0.00000000E+00  9.55249411E+00  9.55249411E+00 -1.91049882E+01  0.00000000E+00
  9.55249411E+00  9.55249411E+00 -1.91049882E+01  0.00000000E+00  9.55249411E+00
  9.55249411E+00 -1.91049882E+01  0.00000000E+00  9.55249411E+00  9.55249411E+00
 -1.91049882E+01  0.00000000E+00  9.55249411E+00  9.55249411E+00 -1.91049882E+01
  0.00000000E+00  9.55249411E+00  9.55249411E+00 -1.91049882E+01  0.00000000E+00
  9.55249411E+00  9.55249411E+00 -1.91049882E+01  0.00000000E+00  9.55249411E+00
  9.55249411E+00 -1.91049882E+01  0.00000000E+00  9.55249411E+00  9.55249411E+00
 -1.91049882E+01  0.00000000E+00  9.55249411E+00  9.55249411E+00 -1.91049882E+01
  0.00000000E+00  9.55249411E+00  9.55249411E+00 -1.91049882E+01  0.00000000E+00
  9.55249411E+00  9.55249411E+00 -1.91049882E+01  0.00000000E+00  9.55249411E+00
  9.55249411E+00 -1.91049882E+01  0.00000000E+00  9.55249411E+00  9.55249411E+00
 -1.91049882E+01  0.00000000E+00  9.55249411E+00  9.55249411E+00 -1.91049882E+01
  0.00000000E+00  9.55249411E+00  9.55249411E+00 -1.91049882E+01  0.00000000E+00
  9.55249411E+00  9.55249411E+00 -1.91049882E+01  0.00000000E+00  9.55249411E+00
  9.55249411E+00 -1.91049882E+01  0.00000000E+00  9.55249411E+00  9.55249411E+00
 -1.91049882E+01  0.00000000E+00  9.55249411E+00  9.55249411E+00 -1.91049882E+01
  0.00000000E+00  9.55249411E+00  9.55249411E+00 -1.91049882E+01  0.00000000E+00
  9.55249411E+00  9.55249411E+00 -1.91049882E+01  0.00000000E+00  9.55249411E+00
  9.55249411E+00 -1.91049882E+01  0.00000000E+00  9.55249411E+00  9.55249411E+00
 -1.91049882E+01  0.00000000E+00  9.55249411E+00  9.55249411E+00 -1.91049882E+01
  0.00000000E+00  9.55249411E+00  9.55249411E+00 -1.91049882E+01  0.00000000E+00
  9.55249411E+00  9.55249411E+00 -1.91049882E+01  0.00000000E+00  9.55249411E+00
  9.55249411E+00 -1.91049882E+01  0.00000000E+00  9.55249411E+00  9.55249411E+00
 -1.91049882E+01  0.00000000E+00  9.55249411E+00  9.55249411E+00 -1.91049882E+01
  0.00000000E+00  9.55249411E+00  9.55249411E+00 -1.91049882E+01  0.00000000E+00
  9.55249411E+00  9.55249411E+00 -1.91049882E+01  0.00000000E+00  9.55249411E+00
  9.55249411E+00 -1.91049882E+01  0.00000000E+00  9.55249411E+00  9.55249411E+00
 -1.91049882E+01  0.00000000E+00  9.55249411E+00  9.55249411E+00 -1.91049882E+01
  0.00000000E+00  9.55249411E+00  9.55249411E+00 -1.91049882E+01  0.00000000E+00
  9.55249411E+00  9.55249411E+00 -1.91049882E+01  0.00000000E+00  9.55249411E+00
  9.55249411E+00 -1.91049882E+01  0.00000000E+00  9.55249411E+00  9.55249411E+00
 -1.91049882E+01  0.00000000E+00  9.55249411E+00  9.55249411E+00 -1.91049882E+01
  0.00000000E+00  9.55249411E+00  9.55249411E+00 -1.91049882E+01  0.00000000E+00
  9.55249411E+00  9.55249411E+00 -1.91049882E+01  0.00000000E+00  9.55249411E+00
  9.55249411E+00 -1.91049882E+01  0.00000000E+00  9.55249411E+00  9.55249411E+00
 -1.91049882E+01  0.00000000E+00  9.55249411E+00  9.55249411E+00 -1.91049882E+01
  0.00000000E+00  9.55249411E+00  9.55249411E+00 -1.91049882E+01  0.00000000E+00
  9.55249411E+00  9.55249411E+00 -1.91049882E+01  0.00000000E+00  9.55249411E+00
  9.55249411E+00 -1.91049882E+01  0.00000000E+00  9.55249411E+00  9.55249411E+00
 -1.91049882E+01  0.00000000E+00  9.55249411E+00  9.55249411E+00 -1.91049882E+01
  0.00000000E+00  9.55249411E+00  9.55249411E+00 -1.91049882E+01  0.00000000E+00
  9.55249411E+00  9.55249411E+00 -1.91049882E+01  0.00000000E+00  9.55249411E+00
  9.55249411E+00 -1.91049882E+01  0.00000000E+00  9.55249411E+00  9.55249411E+00
 -1.91049882E+01  0.00000000E+00  9.55249411E+00  9.55249411E+00 -1.91049882E+01
  0.00000000E+00  9.55249411E+00  9.55249411E+00 -1.91049882E+01  0.00000000E+00
  9.55249411E+00  9.55249411E+00 -1.91049882E+01  0.00000000E+00  9.55249411E+00
  9.55249411E+00 -1.91049882E+01  0.00000000E+00  9.55249411E+00  9.55249411E+00
 -1.91049882E+01  0.00000000E+00  9.55249411E+00  9.55249411E+00 -1.91049882E+01
  0.00000000E+00  9.55249411E+00  9.55249411E+00 -1.91049882E+01  0.00000000E+00
  9.55249411E+00  9.55249411E+00 -1.91049882E+01  0.00000000E+00  9.55249411E+00
  9.55249411E+00 -1.91049882E+01  0.00000000E+00  9.55249411E+00  9.55249411E+00
 -1.91049882E+01  0.00000000E+00  9.55249411E+00  9.55249411E+00 -1.91049882E+01
  0.00000000E+00  9.55249411E+00  9.55249411E+00 -1.91049882E+01  0.00000000E+00
  9.55249411E+00  9.55249411E+00 -1.91049882E+01  0.00000000E+00  9.55249411E+00
  9.55249411E+00 -1.91049882E+01  0.00000000E+00  9.55249411E+00  9.55249411E+00
 -1.91049882E+01  0.00000000E+00  9.55249411E+00  9.55249411E+00 -1.91049882E+01
  0.00000000E+00  9.55249411E+00  9.55249411E+00 -1.91049882E+01  0.00000000E+00
  9.55249411E+00  9.55249411E+00 -1.91049882E+01  0.00000000E+00  9.55249411E+00
  9.55249411E+00 -1.91049882E+01  0.00000000E+00  9.55249411E+00  9.55249411E+00
 -1.91049882E+01  0.00000000E+00  9.55249411E+00  9.55249411E+00 -1.91049882E+01
  0.00000000E+00  9.55249411E+00  9.55249411E+00 -1.91049882E+01  0.00000000E+00
  9.55249411E+00  9.55249411E+00 -1.91049882E+01  0.00000000E+00  9.55249411E+00
  9.55249411E+00 -1.91049882E+01  0.00000000E+00  9.55249411E+00  9.55249411E+00
 -1.91049882E+01  0.00000000E+00  9.55249411E+00  9.55249411E+00 -1.91049882E+01
  0.00000000E+00  9.55249411E+00  9.55249411E+00 -1.91049882E+01  0.00000000E+00
  9.55249411E+00  9.55249411E+00 -1.91049882E+01  0.00000000E+00  9.55249411E+00
  9.55249411E+00 -1.91049882E+01  0.00000000E+00  9.55249411E+00  9.55249411E+00
 -1.91049882E+01  0.00000000E+00  9.55249411E+00  9.55249411E+00 -1.91049882E+01
  0.00000000E+00  9.55249411E+00  9.55249411E+00 -1.91049882E+01  0.00000000E+00
  9.55249411E+00  9.55249411E+00 -1.91049882E+01  0.00000000E+00  9.55249411E+00
  9.55249411E+00 -1.91049882E+01  0.00000000E+00  9.55249411E+00  9.55249411E+00
 -1.91049882E+01  0.00000000E+00  9.55249411E+00  9.55249411E+00 -1.91049882E+01
  0.00000000E+00  9.55249411E+00  9.55249411E+00 -1.91049882E+01  0.00000000E+00
  9.55249411E+00  9.55249411E+00 -1.91049882E+01  0.00000000E+00  9.55249411E+00
  9.55249411E+00 -1.91049882E+01  0.00000000E+00  9.55249411E+00  9.55249411E+00
 -1.91049882E+01  0.00000000E+00  9.55249411E+00  9.55249411E+00 -1.91049882E+01
  0.00000000E+00  9.55249411E+00  9.55249411E+00 -1.91049882E+01  0.00000000E+00
  9.55249411E+00  9.55249411E+00 -1.91049882E+01  0.00000000E+00  9.55249411E+00
  9.55249411E+00 -1.91049882E+01  0.00000000E+00  9.55249411E+00  9.55249411E+00
 -1.91049882E+01  0.00000000E+00  9.55249411E+00  9.55249411E+00 -1.91049882E+01
  0.00000000E+00  9.55249411E+00  9.55249411E+00 -1.91049882E+01  0.00000000E+00
  9.55249411E+00  9.55249411E+00 -1.91049882E+01  0.00000000E+00  9.55249411E+00
  9.55249411E+00 -1.91049882E+01  0.00000000E+00  9.55249411E+00  9.55249411E+00
 -1.91049882E+01  0.00000000E+00  9.55249411E+00  9.55249411E+00 -1.91049882E+01
  0.00000000E+00  9.55249411E+00  9.55249411E+00 -1.91049882E+01  0.00000000E+00
  9.55249411E+00  9.55249411E+00 -1.91049882E+01  0.00000000E+00  9.55249411E+00
  9.55249411E+00 -1.91049882E+01  0.00000000E+00  9.55249411E+00  9.55249411E+00
 -1.91049882E+01  0.00000000E+00  9.55249411E+00  9.55249411E+00 -1.91049882E+01
  0.00000000E+00  9.55249411E+00  9.55249411E+00 -1.91049882E+01  0.00000000E+00
  9.55249411E+00  9.55249411E+00 -1.91049882E+01  0.00000000E+00  9.55249411E+00
  9.55249411E+00 -1.91049882E+01  0.00000000E+00  9.55249411E+00  9.55249411E+00
 -1.91049882E+01  0.00000000E+00  9.55249411E+00  9.55249411E+00 -1.91049882E+01
  0.00000000E+00  9.55249411E+00  9.55249411E+00 -1.91049882E+01  0.00000000E+00
  9.55249411E+00  9.55249411E+00 -1.91049882E+01  0.00000000E+00  9.55249411E+00
  9.55249411E+00 -1.91049882E+01  0.00000000E+00  9.55249411E+00  9.55249411E+00
 -1.91049882E+01  0.00000000E+00  9.55249411E+00  9.55249411E+00 -1.91049882E+01
  0.00000000E+00  9.55249411E+00  9.55249411E+00 -1.91049882E+01  0.00000000E+00
  9.55249411E+00  9.55249411E+00 -1.91049882E+01  0.00000000E+00  9.55249411E+00
  9.55249411E+00 -1.91049882E+01  0.00000000E+00  9.55249411E+00  9.55249411E+00
 -1.91049882E+01  0.00000000E+00  9.55249411E+00  9.55249411E+00 -1.91049882E+01
  0.00000000E+00  9.55249411E+00  9.55249411E+00 -1.91049882E+01  0.00000000E+00
  9.55249411E+00  9.55249411E+00 -1.91049882E+01  0.00000000E+00  9.55249411E+00
  9.55249411E+00 -1.91049882E+01  0.00000000E+00  9.55249411E+00  9.55249411E+00
 -1.91049882E+01  0.00000000E+00  9.55249411E+00  9.55249411E+00 -1.91049882E+01
  0.00000000E+00  9.55249411E+00  9.55249411E+00 -1.91049882E+01  0.00000000E+00
  9.55249411E+00  9.55249411E+00 -1.91049882E+01  0.00000000E+00  9.55249411E+00
  9.55249411E+00 -1.91049882E+01  0.00000000E+00  9.55249411E+00  9.55249411E+00
 -1.91049882E+01  0.00000000E+00  9.55249411E+00  9.55249411E+00 -1.91049882E+01
  0.00000000E+00  9.55249411E+00  9.55249411E+00 -1.91049882E+01  0.00000000E+00
  9.55249411E+00  9.55249411E+00 -1.91049882E+01  0.00000000E+00  9.55249411E+00
  9.55249411E+00 -1.91049882E+01  0.00000000E+00  9.55249411E+00  9.55249411E+00
 -1.91049882E+01  0.00000000E+00  9.55249411E+00  9.55249411E+00 -1.91049882E+01
  0.00000000E+00  9.55249411E+00  9.55249411E+00 -1.91049882E+01  0.00000000E+00
  9.55249411E+00  9.55249411E+00 -1.91049882E+01  0.00000000E+00  9.55249411E+00
  9.55249411E+00 -1.91049882E+01  0.00000000E+00  9.55249411E+00  9.55249411E+00
 -1.91049882E+01  0.00000000E+00  9.55249411E+00  9.55249411E+00 -1.91049882E+01
  0.00000000E+00  9.55249411E+00  9.55249411E+00 -1.91049882E+01  0.00000000E+00
  9.55249411E+00  9.55249411E+00 -1.91049882E+01  0.00000000E+00  9.55249411E+00
  9.55249411E+00 -1.91049882E+01  0.00000000E+00  9.55249411E+00  9.55249411E+00
 -1.91049882E+01  0.00000000E+00  9.55249411E+00  9.55249411E+00 -1.91049882E+01
  0.00000000E+00  9.55249411E+00  9.55249411E+00 -1.91049882E+01  0.00000000E+00
  9.55249411E+00  9.55249411E+00 -1.91049882E+01  0.00000000E+00  9.55249411E+00
  9.55249411E+00 -1.91049882E+01  0.00000000E+00  9.55249411E+00  9.55249411E+00
 -1.91049882E+01  0.00000000E+00  9.55249411E+00  9.55249411E+00 -1.91049882E+01
  0.00000000E+00  9.55249411E+00  9.55249411E+00 -1.91049882E+01  0.00000000E+00
  9.55249411E+00  9.55249411E+00 -1.91049882E+01  0.00000000E+00  9.55249411E+00
  9.55249411E+00 -1.91049882E+01  0.00000000E+00  9.55249411E+00  9.55249411E+00
 -1.91049882E+01  0.00000000E+00  9.55249411E+00  9.55249411E+00 -1.91049882E+01
  0.00000000E+00  9.55249411E+00  9.55249411E+00 -1.91049882E+01  0.00000000E+00
  9.55249411E+00  9.55249411E+00 -1.91049882E+01  0.00000000E+00  9.55249411E+00
  9.55249411E+00 -1.91049882E+01  0.00000000E+00  9.55249411E+00  9.55249411E+00
 -1.91049882E+01  0.00000000E+00  9.55249411E+00  9.55249411E+00 -1.91049882E+01
  0.00000000E+00  9.55249411E+00  9.55249411E+00 -1.91049882E+01  0.00000000E+00
  9.55249411E+00  9.55249411E+00 -1.91049882E+01  0.00000000E+00  9.55249411E+00
  9.55249411E+00 -1.91049882E+01  0.00000000E+00  9.55249411E+00  9.55249411E+00
 -1.91049882E+01  0.00000000E+00  9.55249411E+00  9.55249411E+00 -1.91049882E+01
  0.00000000E+00  9.55249411E+00  9.55249411E+00 -1.91049882E+01  0.00000000E+00
  9.55249411E+00  9.55249411E+00 -1.91049882E+01  0.00000000E+00  9.55249411E+00
  9.55249411E+00 -1.91049882E+01  0.00000000E+00  9.55249411E+00  9.55249411E+00
 -1.91049882E+01  0.00000000E+00  9.55249411E+00  9.55249411E+00 -1.91049882E+01
  0.00000000E+00  9.55249411E+00  9.55249411E+00 -1.91049882E+01  0.00000000E+00
  9.55249411E+00  9.55249411E+00 -1.91049882E+01  0.00000000E+00  9.55249411E+00
  9.55249411E+00 -1.91049882E+01  0.00000000E+00  9.55249411E+00  9.55249411E+00
 -1.91049882E+01  0.00000000E+00  9.55249411E+00  9.55249411E+00 -1.91049882E+01
  0.00000000E+00  9.55249411E+00  9.55249411E+00 -1.91049882E+01  0.00000000E+00
  9.55249411E+00  9.55249411E+00 -1.91049882E+01  0.00000000E+00  9.55249411E+00
  9.55249411E+00 -1.91049882E+01  0.00000000E+00  9.55249411E+00  9.55249411E+00
 -1.91049882E+01  0.00000000E+00  9.55249411E+00  9.55249411E+00 -1.91049882E+01
  0.00000000E+00  9.55249411E+00  9.55249411E+00 -1.91049882E+01  0.00000000E+00
  9.55249411E+00  9.55249411E+00 -1.91049882E+01  0.00000000E+00  9.55249411E+00
  9.55249411E+00 -1.91049882E+01  0.00000000E+00  9.55249411E+00  9.55249411E+00
 -1.91049882E+01  0.00000000E+00  9.55249411E+00  9.55249411E+00 -1.91049882E+01
  0.00000000E+00  9.55249411E+00  9.55249411E+00 -1.91049882E+01  0.00000000E+00
  9.55249411E+00  9.55249411E+00 -1.91049882E+01  0.00000000E+00  9.55249411E+00
  9.55249411E+00 -1.91049882E+01  0.00000000E+00  9.55249411E+00  9.55249411E+00
 -1.91049882E+01  0.00000000E+00  9.55249411E+00  9.55249411E+00 -1.91049882E+01
  0.00000000E+00  9.55249411E+00  9.55249411E+00 -1.91049882E+01  0.00000000E+00
  9.55249411E+00  9.55249411E+00 -1.91049882E+01  0.00000000E+00  9.55249411E+00
  9.55249411E+00 -1.91049882E+01  0.00000000E+00  9.55249411E+00  9.55249411E+00
 -1.91049882E+01  0.00000000E+00  9.55249411E+00  9.55249411E+00 -1.91049882E+01
  0.00000000E+00  9.55249411E+00  9.55249411E+00 -1.91049882E+01  0.00000000E+00
  9.55249411E+00  9.55249411E+00 -1.91049882E+01  0.00000000E+00  9.55249411E+00
  9.55249411E+00 -1.91049882E+01  0.00000000E+00  9.55249411E+00  9.55249411E+00
 -1.91049882E+01  0.00000000E+00  9.55249411E+00  9.55249411E+00 -1.91049882E+01
  0.00000000E+00  9.55249411E+00  9.55249411E+00 -1.91049882E+01  0.00000000E+00
  9.55249411E+00  9.55249411E+00 -1.91049882E+01  0.00000000E+00  9.55249411E+00
  9.55249411E+00 -1.91049882E+01  0.00000000E+00  9.55249411E+00  9.55249411E+00
 -1.91049882E+01  0.00000000E+00  9.55249411E+00  9.55249411E+00 -1.91049882E+01
  0.00000000E+00  9.55249411E+00  9.55249411E+00 -1.91049882E+01  0.00000000E+00
  9.55249411E+00  9.55249411E+00 -1.91049882E+01  0.00000000E+00  9.55249411E+00
  9.55249411E+00 -1.91049882E+01  0.00000000E+00  9.55249411E+00  9.55249411E+00
 -1.91049882E+01  0.00000000E+00  9.55249411E+00  9.55249411E+00 -1.91049882E+01
  0.00000000E+00  9.55249411E+00  9.55249411E+00 -1.91049882E+01  0.00000000E+00
  9.55249411E+00  9.55249411E+00 -1.91049882E+01  0.00000000E+00  9.55249411E+00
  9.55249411E+00 -1.91049882E+01  0.00000000E+00  9.55249411E+00  9.55249411E+00
 -1.91049882E+01  0.00000000E+00  9.55249411E+00  9.55249411E+00 -1.91049882E+01
  0.00000000E+00  9.55249411E+00  9.55249411E+00 -1.91049882E+01  0.00000000E+00
  9.55249411E+00  9.55249411E+00 -1.91049882E+01  0.00000000E+00  9.55249411E+00
  9.55249411E+00 -1.91049882E+01  0.00000000E+00  9.55249411E+00  9.55249411E+00
 -1.91049882E+01  0.00000000E+00  9.55249411E+00  9.55249411E+00 -1.91049882E+01
  0.00000000E+00  9.55249411E+00  9.55249411E+00 -1.91049882E+01  0.00000000E+00
  9.55249411E+00  9.55249411E+00 -1.91049882E+01  0.00000000E+00  9.55249411E+00
  9.55249411E+00 -1.91049882E+01  0.00000000E+00  9.55249411E+00  9.55249411E+00
 -1.91049882E+01  0.00000000E+00  9.55249411E+00  9.55249411E+00 -1.91049882E+01
  0.00000000E+00  9.55249411E+00  9.55249411E+00 -1.91049882E+01  0.00000000E+00
  9.55249411E+00  9.55249411E+00 -1.91049882E+01  0.00000000E+00  9.55249411E+00
  9.55249411E+00 -1.91049882E+01  0.00000000E+00  9.55249411E+00  9.55249411E+00
 -1.91049882E+01  0.00000000E+00  9.55249411E+00  9.55249411E+00 -1.91049882E+01
  0.00000000E+00  9.55249411E+00  9.55249411E+00 -1.91049882E+01  0.00000000E+00
  9.55249411E+00  9.55249411E+00 -1.91049882E+01  0.00000000E+00  9.55249411E+00
  9.55249411E+00 -1.91049882E+01  0.00000000E+00  9.55249411E+00  9.55249411E+00
 -1.91049882E+01  0.00000000E+00  9.55249411E+00  9.55249411E+00 -1.91049882E+01
  0.00000000E+00  9.55249411E+00  9.55249411E+00 -1.91049882E+01  0.00000000E+00
  9.55249411E+00  9.55249411E+00 -1.91049882E+01  0.00000000E+00  9.55249411E+00
  9.55249411E+00 -1.91049882E+01  0.00000000E+00  9.55249411E+00  9.55249411E+00
 -1.91049882E+01  0.00000000E+00  9.55249411E+00  9.55249411E+00 -1.91049882E+01
  0.00000000E+00  9.55249411E+00  9.55249411E+00 -1.91049882E+01  0.00000000E+00
  9.55249411E+00  9.55249411E+00 -1.91049882E+01  0.00000000E+00  9.55249411E+00
  9.55249411E+00 -1.91049882E+01  0.00000000E+00  9.55249411E+00  9.55249411E+00
 -1.91049882E+01  0.00000000E+00  9.55249411E+00  9.55249411E+00 -1.91049882E+01
  0.00000000E+00  9.55249411E+00  9.55249411E+00 -1.91049882E+01  0.00000000E+00
  9.55249411E+00  9.55249411E+00 -1.91049882E+01  0.00000000E+00  9.55249411E+00
  9.55249411E+00 -1.91049882E+01  0.00000000E+00  9.55249411E+00  9.55249411E+00
 -1.91049882E+01  0.00000000E+00  9.55249411E+00  9.55249411E+00 -1.91049882E+01
  0.00000000E+00  9.55249411E+00  9.55249411E+00 -1.91049882E+01  0.00000000E+00
  9.55249411E+00  9.55249411E+00 -1.91049882E+01  0.00000000E+00  9.55249411E+00
  9.55249411E+00 -1.91049882E+01  0.00000000E+00  9.55249411E+00  9.55249411E+00
 -1.91049882E+01  0.00000000E+00  9.55249411E+00  9.55249411E+00 -1.91049882E+01
  0.00000000E+00  9.55249411E+00  9.55249411E+00 -1.91049882E+01  0.00000000E+00
  9.55249411E+00  9.55249411E+00 -1.91049882E+01  0.00000000E+00  9.55249411E+00
  9.55249411E+00 -1.91049882E+01  0.00000000E+00  9.55249411E+00  9.55249411E+00
 -1.91049882E+01  0.00000000E+00  9.55249411E+00  9.55249411E+00 -1.91049882E+01
  0.00000000E+00  9.55249411E+00  9.55249411E+00 -1.91049882E+01  0.00000000E+00
  9.55249411E+00  9.55249411E+00 -1.91049882E+01  0.00000000E+00  9.55249411E+00
  9.55249411E+00 -1.91049882E+01  0.00000000E+00  9.55249411E+00  9.55249411E+00
 -1.91049882E+01  0.00000000E+00  9.55249411E+00  9.55249411E+00 -1.91049882E+01
  0.00000000E+00  9.55249411E+00  9.55249411E+00 -1.91049882E+01  0.00000000E+00
  9.55249411E+00  9.55249411E+00 -1.91049882E+01  0.00000000E+00  9.55249411E+00
  9.55249411E+00 -1.91049882E+01  0.00000000E+00  9.55249411E+00  9.55249411E+00
 -1.91049882E+01  0.00000000E+00  9.55249411E+00  9.55249411E+00 -1.91049882E+01
  0.00000000E+00  9.55249411E+00  9.55249411E+00 -1.91049882E+01  0.00000000E+00
  9.55249411E+00  9.55249411E+00 -1.91049882E+01  0.00000000E+00  9.55249411E+00
  9.55249411E+00 -1.91049882E+01  0.00000000E+00  9.55249411E+00  9.55249411E+00
 -1.91049882E+01  0.00000000E+00  9.55249411E+00  9.55249411E+00 -1.91049882E+01
  0.00000000E+00  9.55249411E+00  9.55249411E+00 -1.91049882E+01  0.00000000E+00
  9.55249411E+00  9.55249411E+00 -1.91049882E+01  0.00000000E+00  9.55249411E+00
  9.55249411E+00 -1.91049882E+01  0.00000000E+00  9.55249411E+00  9.55249411E+00
 -1.91049882E+01  0.00000000E+00  9.55249411E+00  9.55249411E+00 -1.91049882E+01
  0.00000000E+00  9.55249411E+00  9.55249411E+00 -1.91049882E+01  0.00000000E+00
  9.55249411E+00  9.55249411E+00 -1.91049882E+01  0.00000000E+00  9.55249411E+00
  9.55249411E+00 -1.91049882E+01  0.00000000E+00  9.55249411E+00  9.55249411E+00
 -1.91049882E+01  0.00000000E+00  9.55249411E+00  9.55249411E+00 -1.91049882E+01
  0.00000000E+00  9.55249411E+00  9.55249411E+00 -1.91049882E+01  0.00000000E+00
  9.55249411E+00  9.55249411E+00 -1.91049882E+01  0.00000000E+00  9.55249411E+00
  9.55249411E+00 -1.91049882E+01  0.00000000E+00  9.55249411E+00  9.55249411E+00
 -1.91049882E+01  0.00000000E+00  9.55249411E+00  9.55249411E+00 -1.91049882E+01
  0.00000000E+00  9.55249411E+00  9.55249411E+00 -1.91049882E+01  0.00000000E+00
  9.55249411E+00  9.55249411E+00 -1.91049882E+01  0.00000000E+00  9.55249411E+00
  9.55249411E+00 -1.91049882E+01  0.00000000E+00  9.55249411E+00  9.55249411E+00
 -1.91049882E+01  0.00000000E+00  9.55249411E+00  9.55249411E+00 -1.91049882E+01
  0.00000000E+00  9.55249411E+00  9.55249411E+00 -1.91049882E+01  0.00000000E+00
  9.55249411E+00  9.55249411E+00 -1.91049882E+01  0.00000000E+00  9.55249411E+00
  9.55249411E+00 -1.91049882E+01  0.00000000E+00  9.55249411E+00  9.55249411E+00
 -1.91049882E+01  0.00000000E+00  9.55249411E+00  9.55249411E+00 -1.91049882E+01
  0.00000000E+00  9.55249411E+00  9.55249411E+00 -1.91049882E+01  0.00000000E+00
  9.55249411E+00  9.55249411E+00 -1.91049882E+01  0.00000000E+00  9.55249411E+00
  9.55249411E+00 -1.91049882E+01  0.00000000E+00  9.55249411E+00  9.55249411E+00
 -1.91049882E+01  0.00000000E+00  9.55249411E+00  9.55249411E+00 -1.91049882E+01
  0.00000000E+00  9.55249411E+00  9.55249411E+00 -1.91049882E+01  0.00000000E+00
  9.55249411E+00  9.55249411E+00 -1.91049882E+01  0.00000000E+00  9.55249411E+00
  9.55249411E+00 -1.91049882E+01  0.00000000E+00  9.55249411E+00  9.55249411E+00
 -1.91049882E+01  0.00000000E+00  9.55249411E+00  9.55249411E+00 -1.91049882E+01
  0.00000000E+00  9.55249411E+00  9.55249411E+00 -1.91049882E+01  0.00000000E+00
  9.55249411E+00  9.55249411E+00 -1.91049882E+01  0.00000000E+00  9.55249411E+00
  9.55249411E+00 -1.91049882E+01  0.00000000E+00  9.55249411E+00  9.55249411E+00
 -1.91049882E+01  0.00000000E+00  9.55249411E+00  9.55249411E+00 -1.91049882E+01
  0.00000000E+00  9.55249411E+00  9.55249411E+00 -1.91049882E+01  0.00000000E+00
  9.55249411E+00  9.55249411E+00 -1.91049882E+01  0.00000000E+00  9.55249411E+00
  9.55249411E+00 -1.91049882E+01  0.00000000E+00  9.55249411E+00  9.55249411E+00
 -1.91049882E+01  0.00000000E+00  9.55249411E+00  9.55249411E+00 -1.91049882E+01
  0.00000000E+00  9.55249411E+00  9.55249411E+00 -1.91049882E+01  0.00000000E+00
  9.55249411E+00  9.55249411E+00 -1.91049882E+01  0.00000000E+00  9.55249411E+00
  9.55249411E+00 -1.91049882E+01  0.00000000E+00  9.55249411E+00  9.55249411E+00
 -1.91049882E+01  0.00000000E+00  9.55249411E+00  9.55249411E+00 -1.91049882E+01
  0.00000000E+00  9.55249411E+00  9.55249411E+00 -1.91049882E+01  0.00000000E+00
  9.55249411E+00  9.55249411E+00 -1.91049882E+01  0.00000000E+00  9.55249411E+00
  9.55249411E+00 -1.91049882E+01  0.00000000E+00  9.55249411E+00  9.55249411E+00
 -1.91049882E+01  0.00000000E+00  9.55249411E+00  9.55249411E+00 -1.91049882E+01
  0.00000000E+00  9.55249411E+00  9.55249411E+00 -1.91049882E+01  0.00000000E+00
  9.55249411E+00  9.55249411E+00 -1.91049882E+01  0.00000000E+00  9.55249411E+00
  9.55249411E+00 -1.91049882E+01  0.00000000E+00  9.55249411E+00  9.55249411E+00
 -1.91049882E+01  0.00000000E+00  9.55249411E+00  9.55249411E+00 -1.91049882E+01
  0.00000000E+00  9.55249411E+00  9.55249411E+00 -1.91049882E+01  0.00000000E+00
  9.55249411E+00  9.55249411E+00 -1.91049882E+01  0.00000000E+00  9.55249411E+00
  9.55249411E+00 -1.91049882E+01  0.00000000E+00  9.55249411E+00  9.55249411E+00
 -1.91049882E+01  0.00000000E+00  9.55249411E+00  9.55249411E+00 -1.91049882E+01
  0.00000000E+00  9.55249411E+00  9.55249411E+00 -1.91049882E+01  0.00000000E+00
  9.55249411E+00  9.55249411E+00 -1.91049882E+01  0.00000000E+00  9.55249411E+00
  9.55249411E+00 -1.91049882E+01  0.00000000E+00  9.55249411E+00  9.55249411E+00
 -1.91049882E+01  0.00000000E+00  9.55249411E+00  9.55249411E+00 -1.91049882E+01
  0.00000000E+00  9.55249411E+00  9.55249411E+00 -1.91049882E+01  0.00000000E+00
  9.55249411E+00  9.55249411E+00 -1.91049882E+01  0.00000000E+00  9.55249411E+00
  9.55249411E+00 -1.91049882E+01  0.00000000E+00  9.55249411E+00  9.55249411E+00
 -1.91049882E+01  0.00000000E+00  9.55249411E+00  9.55249411E+00 -1.91049882E+01
  0.00000000E+00  9.55249411E+00  9.55249411E+00 -1.91049882E+01  0.00000000E+00
  9.55249411E+00  9.55249411E+00 -1.91049882E+01  0.00000000E+00  9.55249411E+00
  9.55249411E+00 -1.91049882E+01  0.00000000E+00  9.55249411E+00  9.55249411E+00
 -1.91049882E+01  0.00000000E+00  9.55249411E+00  9.55249411E+00 -1.91049882E+01
  0.00000000E+00  9.55249411E+00  9.55249411E+00 -1.91049882E+01  0.00000000E+00
  9.55249411E+00  9.55249411E+00 -1.91049882E+01  0.00000000E+00  9.55249411E+00
  9.55249411E+00 -1.91049882E+01  0.00000000E+00  9.55249411E+00  9.55249411E+00
 -1.91049882E+01  0.00000000E+00  9.55249411E+00  9.55249411E+00 -1.91049882E+01
  0.00000000E+00  9.55249411E+00  9.55249411E+00 -1.91049882E+01  0.00000000E+00
  9.55249411E+00  9.55249411E+00 -1.91049882E+01  0.00000000E+00  9.55249411E+00
  9.55249411E+00 -1.91049882E+01  0.00000000E+00  9.55249411E+00  9.55249411E+00
 -1.91049882E+01  0.00000000E+00  9.55249411E+00  9.55249411E+00 -1.91049882E+01
  0.00000000E+00  9.55249411E+00  9.55249411E+00 -1.91049882E+01  0.00000000E+00
  9.55249411E+00  9.55249411E+00 -1.91049882E+01  0.00000000E+00  9.55249411E+00
  9.55249411E+00 -1.91049882E+01  0.00000000E+00  9.55249411E+00  9.55249411E+00
 -1.91049882E+01  0.00000000E+00  9.55249411E+00  9.55249411E+00 -1.91049882E+01
  0.00000000E+00  9.55249411E+00  9.55249411E+00 -1.91049882E+01  0.00000000E+00
  9.55249411E+00  9.55249411E+00 -1.91049882E+01  0.00000000E+00  9.55249411E+00
  9.55249411E+00 -1.91049882E+01  0.00000000E+00  9.55249411E+00  9.55249411E+00
 -1.91049882E+01  0.00000000E+00  9.55249411E+00  9.55249411E+00 -1.91049882E+01
  0.00000000E+00  9.55249411E+00  9.55249411E+00 -1.91049882E+01  0.00000000E+00
  9.55249411E+00  9.55249411E+00 -1.91049882E+01  0.00000000E+00  9.55249411E+00
  9.55249411E+00 -1.91049882E+01  0.00000000E+00  9.55249411E+00  9.55249411E+00
 -1.91049882E+01  0.00000000E+00  9.55249411E+00  9.55249411E+00 -1.91049882E+01
  0.00000000E+00  9.55249411E+00  9.55249411E+00 -1.91049882E+01  0.00000000E+00
  9.55249411E+00  9.55249411E+00 -1.91049882E+01  0.00000000E+00  9.55249411E+00
  9.55249411E+00 -1.91049882E+01  0.00000000E+00  9.55249411E+00  9.55249411E+00
 -1.91049882E+01  0.00000000E+00  9.55249411E+00  9.55249411E+00 -1.91049882E+01
  0.00000000E+00  9.55249411E+00  9.55249411E+00 -1.91049882E+01  0.00000000E+00
  9.55249411E+00  9.55249411E+00 -1.91049882E+01  0.00000000E+00  9.55249411E+00
  9.55249411E+00 -1.91049882E+01  0.00000000E+00  9.55249411E+00  9.55249411E+00
 -1.91049882E+01  0.00000000E+00  9.55249411E+00  9.55249411E+00 -1.91049882E+01
  0.00000000E+00  9.55249411E+00  9.55249411E+00 -1.91049882E+01  0.00000000E+00
  9.55249411E+00  9.55249411E+00 -1.91049882E+01  0.00000000E+00  9.55249411E+00
  9.55249411E+00 -1.91049882E+01  0.00000000E+00  9.55249411E+00  9.55249411E+00
 -1.91049882E+01  0.00000000E+00  9.55249411E+00  9.55249411E+00 -1.91049882E+01
  0.00000000E+00  9.55249411E+00  9.55249411E+00 -1.91049882E+01  0.00000000E+00
  9.55249411E+00  9.55249411E+00 -1.91049882E+01  0.00000000E+00  9.55249411E+00
  9.55249411E+00 -1.91049882E+01  0.00000000E+00  9.55249411E+00  9.55249411E+00
 -1.91049882E+01  0.00000000E+00  9.55249411E+00  9.55249411E+00 -1.91049882E+01
  0.00000000E+00  9.55249411E+00  9.55249411E+00 -1.91049882E+01  0.00000000E+00
  9.55249411E+00  9.55249411E+00 -1.91049882E+01  0.00000000E+00  9.55249411E+00
  9.55249411E+00 -1.91049882E+01  0.00000000E+00  9.55249411E+00  9.55249411E+00
 -1.91049882E+01  0.00000000E+00  9.55249411E+00  9.55249411E+00 -1.91049882E+01
  0.00000000E+00  9.55249411E+00  9.55249411E+00 -1.91049882E+01  0.00000000E+00
  9.55249411E+00  9.55249411E+00 -1.91049882E+01  0.00000000E+00  9.55249411E+00
  9.55249411E+00 -1.91049882E+01  0.00000000E+00  9.55249411E+00  9.55249411E+00
 -1.91049882E+01  0.00000000E+00  9.55249411E+00  9.55249411E+00 -1.91049882E+01
  0.00000000E+00  9.55249411E+00  9.55249411E+00 -1.91049882E+01  0.00000000E+00
  9.55249411E+00  9.55249411E+00 -1.91049882E+01  0.00000000E+00  9.55249411E+00
  9.55249411E+00 -1.91049882E+01  0.00000000E+00  9.55249411E+00  9.55249411E+00
 -1.91049882E+01  0.00000000E+00  9.55249411E+00  9.55249411E+00 -1.91049882E+01
  0.00000000E+00  9.55249411E+00  9.55249411E+00 -1.91049882E+01  0.00000000E+00
  9.55249411E+00  9.55249411E+00 -1.91049882E+01  0.00000000E+00  9.55249411E+00
  9.55249411E+00 -1.91049882E+01  0.00000000E+00  9.55249411E+00  9.55249411E+00
 -1.91049882E+01  0.00000000E+00  9.55249411E+00  9.55249411E+00 -1.91049882E+01
  0.00000000E+00  9.55249411E+00  9.55249411E+00 -1.91049882E+01  0.00000000E+00
  9.55249411E+00  9.55249411E+00 -1.91049882E+01  0.00000000E+00  9.55249411E+00
  9.55249411E+00 -1.91049882E+01  0.00000000E+00  9.55249411E+00  9.55249411E+00
 -1.91049882E+01  0.00000000E+00  9.55249411E+00  9.55249411E+00 -1.91049882E+01
  0.00000000E+00  9.55249411E+00  9.55249411E+00 -1.91049882E+01  0.00000000E+00
  9.55249411E+00  9.55249411E+00 -1.91049882E+01  0.00000000E+00  9.55249411E+00
  9.55249411E+00 -1.91049882E+01  0.00000000E+00  9.55249411E+00  9.55249411E+00
 -1.91049882E+01  0.00000000E+00  9.55249411E+00  9.55249411E+00 -1.91049882E+01
  0.00000000E+00  9.55249411E+00  9.55249411E+00 -1.91049882E+01  0.00000000E+00
  9.55249411E+00  9.55249411E+00 -1.91049882E+01  0.00000000E+00  9.55249411E+00
  9.55249411E+00 -1.91049882E+01  0.00000000E+00  9.55249411E+00  9.55249411E+00
 -1.91049882E+01  0.00000000E+00  9.55249411E+00  9.55249411E+00 -1.91049882E+01
  0.00000000E+00  9.55249411E+00  9.55249411E+00 -1.91049882E+01  0.00000000E+00
  9.55249411E+00  9.55249411E+00 -1.91049882E+01  0.00000000E+00  9.55249411E+00
  9.55249411E+00 -1.91049882E+01  0.00000000E+00  9.55249411E+00  9.55249411E+00
 -1.91049882E+01  0.00000000E+00  9.55249411E+00  9.55249411E+00 -1.91049882E+01
  0.00000000E+00  9.55249411E+00  9.55249411E+00 -1.91049882E+01  0.00000000E+00
  9.55249411E+00  9.55249411E+00 -1.91049882E+01  0.00000000E+00  9.55249411E+00
  9.55249411E+00 -1.91049882E+01  0.00000000E+00  9.55249411E+00  9.55249411E+00
 -1.91049882E+01  0.00000000E+00  9.55249411E+00  9.55249411E+00 -1.91049882E+01
  0.00000000E+00  9.55249411E+00  9.55249411E+00 -1.91049882E+01  0.00000000E+00
  9.55249411E+00  9.55249411E+00 -1.91049882E+01  0.00000000E+00  9.55249411E+00
  9.55249411E+00 -1.91049882E+01  0.00000000E+00  9.55249411E+00  9.55249411E+00
 -1.91049882E+01  0.00000000E+00  9.55249411E+00  9.55249411E+00 -1.91049882E+01
  0.00000000E+00  9.55249411E+00  9.55249411E+00 -1.91049882E+01  0.00000000E+00
  9.55249411E+00  9.55249411E+00 -1.91049882E+01  0.00000000E+00  9.55249411E+00
  9.55249411E+00 -1.91049882E+01  0.00000000E+00  9.55249411E+00  9.55249411E+00
 -1.91049882E+01  0.00000000E+00  9.55249411E+00  9.55249411E+00 -1.91049882E+01
  0.00000000E+00  9.55249411E+00  9.55249411E+00 -1.91049882E+01  0.00000000E+00
  9.55249411E+00  9.55249411E+00 -1.91049882E+01  0.00000000E+00  9.55249411E+00
  9.55249411E+00 -1.91049882E+01  0.00000000E+00  9.55249411E+00  9.55249411E+00
 -1.91049882E+01  0.00000000E+00  9.55249411E+00  9.55249411E+00 -1.91049882E+01
  0.00000000E+00  9.55249411E+00  9.55249411E+00 -1.91049882E+01  0.00000000E+00
  9.55249411E+00  9.55249411E+00 -1.91049882E+01  0.00000000E+00  9.55249411E+00
  9.55249411E+00 -1.91049882E+01  0.00000000E+00  9.55249411E+00  9.55249411E+00
 -1.91049882E+01  0.00000000E+00  9.55249411E+00  9.55249411E+00 -1.91049882E+01
  0.00000000E+00  9.55249411E+00  9.55249411E+00 -1.91049882E+01  0.00000000E+00
  9.55249411E+00  9.55249411E+00 -1.91049882E+01  0.00000000E+00  9.55249411E+00
  9.55249411E+00 -1.91049882E+01  0.00000000E+00  9.55249411E+00  9.55249411E+00
 -1.91049882E+01  0.00000000E+00  9.55249411E+00  9.55249411E+00 -1.91049882E+01
  0.00000000E+00  9.55249411E+00  9.55249411E+00 -1.91049882E+01  0.00000000E+00
  9.55249411E+00  9.55249411E+00 -1.91049882E+01  0.00000000E+00  9.55249411E+00
  9.55249411E+00 -1.91049882E+01  0.00000000E+00  9.55249411E+00  9.55249411E+00
 -1.91049882E+01  0.00000000E+00  9.55249411E+00  9.55249411E+00 -1.91049882E+01
  0.00000000E+00  9.55249411E+00  9.55249411E+00 -1.91049882E+01  0.00000000E+00
  9.55249411E+00  9.55249411E+00 -1.91049882E+01  0.00000000E+00  9.55249411E+00
  9.55249411E+00 -1.91049882E+01  0.00000000E+00  9.55249411E+00  9.55249411E+00
 -1.91049882E+01  0.00000000E+00  9.55249411E+00  9.55249411E+00 -1.91049882E+01
  0.00000000E+00  9.55249411E+00  9.55249411E+00 -1.91049882E+01  0.00000000E+00
  9.55249411E+00  9.55249411E+00 -1.91049882E+01  0.00000000E+00  9.55249411E+00
  9.55249411E+00 -1.91049882E+01  0.00000000E+00  9.55249411E+00  9.55249411E+00
 -1.91049882E+01  0.00000000E+00  9.55249411E+00  9.55249411E+00 -1.91049882E+01
  0.00000000E+00  9.55249411E+00  9.55249411E+00 -1.91049882E+01  0.00000000E+00
  9.55249411E+00  9.55249411E+00 -1.91049882E+01  0.00000000E+00  9.55249411E+00
  9.55249411E+00 -1.91049882E+01  0.00000000E+00  9.55249411E+00  9.55249411E+00
 -1.91049882E+01  0.00000000E+00  9.55249411E+00  9.55249411E+00 -1.91049882E+01
  0.00000000E+00  9.55249411E+00  9.55249411E+00 -1.91049882E+01  0.00000000E+00
  9.55249411E+00  9.55249411E+00 -1.91049882E+01  0.00000000E+00  9.55249411E+00
  9.55249411E+00 -1.91049882E+01  0.00000000E+00  9.55249411E+00  9.55249411E+00
 -1.91049882E+01  0.00000000E+00  9.55249411E+00  9.55249411E+00 -1.91049882E+01
  0.00000000E+00  9.55249411E+00  9.55249411E+00 -1.91049882E+01  0.00000000E+00
  9.55249411E+00  9.55249411E+00 -1.91049882E+01  0.00000000E+00  9.55249411E+00
  9.55249411E+00 -1.91049882E+01  0.00000000E+00  9.55249411E+00  9.55249411E+00
 -1.91049882E+01  0.00000000E+00  9.55249411E+00  9.55249411E+00 -1.91049882E+01
  0.00000000E+00  9.55249411E+00  9.55249411E+00 -1.91049882E+01  0.00000000E+00
  9.55249411E+00  9.55249411E+00 -1.91049882E+01  0.00000000E+00  9.55249411E+00
  9.55249411E+00 -1.91049882E+01  0.00000000E+00  9.55249411E+00  9.55249411E+00
 -1.91049882E+01  0.00000000E+00  9.55249411E+00  9.55249411E+00 -1.91049882E+01
  0.00000000E+00  9.55249411E+00  9.55249411E+00 -1.91049882E+01  0.00000000E+00
  9.55249411E+00  9.55249411E+00 -1.91049882E+01  0.00000000E+00  9.55249411E+00
  9.55249411E+00 -1.91049882E+01  0.00000000E+00  9.55249411E+00  9.55249411E+00
 -1.91049882E+01  0.00000000E+00  9.55249411E+00  9.55249411E+00 -1.91049882E+01
  0.00000000E+00  9.55249411E+00  9.55249411E+00 -1.91049882E+01  0.00000000E+00
  9.55249411E+00  9.55249411E+00 -1.91049882E+01  0.00000000E+00  9.55249411E+00
  9.55249411E+00 -1.91049882E+01  0.00000000E+00  9.55249411E+00  9.55249411E+00
 -1.91049882E+01  0.00000000E+00  9.55249411E+00  9.55249411E+00 -1.91049882E+01
  0.00000000E+00  9.55249411E+00  9.55249411E+00 -1.91049882E+01  0.00000000E+00
  9.55249411E+00  9.55249411E+00 -1.91049882E+01  0.00000000E+00  9.55249411E+00
  9.55249411E+00 -1.91049882E+01  0.00000000E+00  9.55249411E+00  9.55249411E+00
 -1.91049882E+01  0.00000000E+00  9.55249411E+00  9.55249411E+00 -1.91049882E+01
  0.00000000E+00  9.55249411E+00  9.55249411E+00 -1.91049882E+01  0.00000000E+00
  9.55249411E+00  9.55249411E+00 -1.91049882E+01  0.00000000E+00  9.55249411E+00
  9.55249411E+00 -1.91049882E+01  0.00000000E+00  9.55249411E+00  9.55249411E+00
 -1.91049882E+01  0.00000000E+00  9.55249411E+00  9.55249411E+00 -1.91049882E+01
  0.00000000E+00  9.55249411E+00  9.55249411E+00 -1.91049882E+01  0.00000000E+00
  9.55249411E+00  9.55249411E+00 -1.91049882E+01  0.00000000E+00  9.55249411E+00
  9.55249411E+00 -1.91049882E+01  0.00000000E+00  9.55249411E+00  9.55249411E+00
 -1.91049882E+01  0.00000000E+00  9.55249411E+00  9.55249411E+00 -1.91049882E+01
  0.00000000E+00  9.55249411E+00  9.55249411E+00 -1.91049882E+01  0.00000000E+00
  9.55249411E+00  9.55249411E+00 -1.91049882E+01  0.00000000E+00  9.55249411E+00
  9.55249411E+00 -1.91049882E+01  0.00000000E+00  9.55249411E+00  9.55249411E+00
 -1.91049882E+01  0.00000000E+00  9.55249411E+00  9.55249411E+00 -1.91049882E+01
  0.00000000E+00  9.55249411E+00  9.55249411E+00 -1.91049882E+01  0.00000000E+00
  9.55249411E+00  9.55249411E+00 -1.91049882E+01  0.00000000E+00  9.55249411E+00
  9.55249411E+00 -1.91049882E+01  0.00000000E+00  9.55249411E+00  9.55249411E+00
 -1.91049882E+01  0.00000000E+00  9.55249411E+00  9.55249411E+00 -1.91049882E+01
  0.00000000E+00  9.55249411E+00  9.55249411E+00 -1.91049882E+01  0.00000000E+00
  9.55249411E+00  9.55249411E+00 -1.91049882E+01  0.00000000E+00  9.55249411E+00
  9.55249411E+00 -1.91049882E+01  0.00000000E+00  9.55249411E+00  9.55249411E+00
 -1.91049882E+01  0.00000000E+00  9.55249411E+00  9.55249411E+00 -1.91049882E+01
  0.00000000E+00  9.55249411E+00  9.55249411E+00 -1.91049882E+01  0.00000000E+00
  9.55249411E+00  9.55249411E+00 -1.91049882E+01  0.00000000E+00  9.55249411E+00
  9.55249411E+00 -1.91049882E+01  0.00000000E+00  9.55249411E+00  9.55249411E+00
 -1.91049882E+01  0.00000000E+00  9.55249411E+00  9.55249411E+00 -1.91049882E+01
  0.00000000E+00  9.55249411E+00  9.55249411E+00 -1.91049882E+01  0.00000000E+00
  9.55249411E+00  9.55249411E+00 -1.91049882E+01  0.00000000E+00  9.55249411E+00
  9.55249411E+00 -1.91049882E+01  0.00000000E+00  9.55249411E+00  9.55249411E+00
 -1.91049882E+01  0.00000000E+00  9.55249411E+00  9.55249411E+00 -1.91049882E+01
  0.00000000E+00  9.55249411E+00  9.55249411E+00 -1.91049882E+01  0.00000000E+00
  9.55249411E+00  9.55249411E+00 -1.91049882E+01  0.00000000E+00  9.55249411E+00
  9.55249411E+00 -1.91049882E+01  0.00000000E+00  9.55249411E+00  9.55249411E+00
 -1.91049882E+01  0.00000000E+00  9.55249411E+00  9.55249411E+00 -1.91049882E+01
  0.00000000E+00  9.55249411E+00  9.55249411E+00 -1.91049882E+01  0.00000000E+00
  9.55249411E+00  9.55249411E+00 -1.91049882E+01  0.00000000E+00  9.55249411E+00
  9.55249411E+00 -1.91049882E+01  0.00000000E+00  9.55249411E+00  9.55249411E+00
 -1.91049882E+01  0.00000000E+00  9.55249411E+00  9.55249411E+00 -1.91049882E+01
  0.00000000E+00  9.55249411E+00  9.55249411E+00 -1.91049882E+01  0.00000000E+00
  9.55249411E+00  9.55249411E+00 -1.91049882E+01  0.00000000E+00  9.55249411E+00
  9.55249411E+00 -1.91049882E+01  0.00000000E+00  9.55249411E+00  9.55249411E+00
 -1.91049882E+01  0.00000000E+00  9.55249411E+00  9.55249411E+00 -1.91049882E+01
  0.00000000E+00  9.55249411E+00  9.55249411E+00 -1.91049882E+01  0.00000000E+00
  9.55249411E+00  9.55249411E+00 -1.91049882E+01  0.00000000E+00  9.55249411E+00
  9.55249411E+00 -1.91049882E+01  0.00000000E+00  9.55249411E+00  9.55249411E+00
 -1.91049882E+01  0.00000000E+00  9.55249411E+00  9.55249411E+00 -1.91049882E+01
  0.00000000E+00  9.55249411E+00  9.55249411E+00 -1.91049882E+01  0.00000000E+00
  9.55249411E+00  9.55249411E+00 -1.91049882E+01  0.00000000E+00  9.55249411E+00
  9.55249411E+00 -1.91049882E+01  0.00000000E+00  9.55249411E+00  9.55249411E+00
 -1.91049882E+01  0.00000000E+00  9.55249411E+00  9.55249411E+00 -1.91049882E+01
  0.00000000E+00  9.55249411E+00  9.55249411E+00 -1.91049882E+01  0.00000000E+00
  9.55249411E+00  9.55249411E+00 -1.91049882E+01  0.00000000E+00  9.55249411E+00
  9.55249411E+00 -1.91049882E+01  0.00000000E+00  9.55249411E+00  9.55249411E+00
 -1.91049882E+01  0.00000000E+00  9.55249411E+00  9.55249411E+00 -1.91049882E+01
  0.00000000E+00  9.55249411E+00  9.55249411E+00 -1.91049882E+01  0.00000000E+00
  9.55249411E+00  9.55249411E+00 -1.91049882E+01  0.00000000E+00  9.55249411E+00
  9.55249411E+00 -1.91049882E+01  0.00000000E+00  9.55249411E+00  9.55249411E+00
 -1.91049882E+01  0.00000000E+00  9.55249411E+00  9.55249411E+00 -1.91049882E+01
  0.00000000E+00  9.55249411E+00  9.55249411E+00 -1.91049882E+01  0.00000000E+00
  9.55249411E+00  9.55249411E+00 -1.91049882E+01  0.00000000E+00  9.55249411E+00
  9.55249411E+00 -1.91049882E+01  0.00000000E+00  9.55249411E+00  9.55249411E+00
 -1.91049882E+01  0.00000000E+00  9.55249411E+00  9.55249411E+00 -1.91049882E+01
  0.00000000E+00  9.55249411E+00  9.55249411E+00 -1.91049882E+01  0.00000000E+00
  9.55249411E+00  9.55249411E+00 -1.91049882E+01  0.00000000E+00  9.55249411E+00
  9.55249411E+00 -1.91049882E+01  0.00000000E+00  9.55249411E+00  9.55249411E+00
 -1.91049882E+01  0.00000000E+00  9.55249411E+00  9.55249411E+00 -1.91049882E+01
  0.00000000E+00  9.55249411E+00  9.55249411E+00 -1.91049882E+01  0.00000000E+00
  9.55249411E+00  9.55249411E+00 -1.91049882E+01  0.00000000E+00  9.55249411E+00
  9.55249411E+00 -1.91049882E+01  0.00000000E+00  9.55249411E+00  9.55249411E+00
 -1.91049882E+01  0.00000000E+00  9.55249411E+00  9.55249411E+00 -1.91049882E+01
  0.00000000E+00  9.55249411E+00  9.55249411E+00 -1.91049882E+01  0.00000000E+00
  9.55249411E+00  9.55249411E+00 -1.91049882E+01  0.00000000E+00  9.55249411E+00
  9.55249411E+00 -1.91049882E+01  0.00000000E+00  9.55249411E+00  9.55249411E+00
 -1.91049882E+01  0.00000000E+00  9.55249411E+00  9.55249411E+00 -1.91049882E+01
  0.00000000E+00  9.55249411E+00  9.55249411E+00 -1.91049882E+01  0.00000000E+00
  9.55249411E+00  9.55249411E+00 -1.91049882E+01  0.00000000E+00  9.55249411E+00
  9.55249411E+00 -1.91049882E+01  0.00000000E+00  9.55249411E+00  9.55249411E+00
 -1.91049882E+01  0.00000000E+00  9.55249411E+00  9.55249411E+00 -1.91049882E+01
  0.00000000E+00  9.55249411E+00  9.55249411E+00 -1.91049882E+01  0.00000000E+00
  9.55249411E+00  9.55249411E+00 -1.91049882E+01  0.00000000E+00  9.55249411E+00
  9.55249411E+00 -1.91049882E+01  0.00000000E+00  9.55249411E+00  9.55249411E+00
 -1.91049882E+01  0.00000000E+00  9.55249411E+00  9.55249411E+00 -1.91049882E+01
  0.00000000E+00  9.55249411E+00  9.55249411E+00 -1.91049882E+01  0.00000000E+00
  9.55249411E+00  9.55249411E+00 -1.91049882E+01  0.00000000E+00  9.55249411E+00
  9.55249411E+00 -1.91049882E+01  0.00000000E+00  9.55249411E+00  9.55249411E+00
 -1.91049882E+01  0.00000000E+00  9.55249411E+00  9.55249411E+00 -1.91049882E+01
  0.00000000E+00  9.55249411E+00  9.55249411E+00 -1.91049882E+01  0.00000000E+00
  9.55249411E+00  9.55249411E+00 -1.91049882E+01  0.00000000E+00  9.55249411E+00
  9.55249411E+00 -1.91049882E+01  0.00000000E+00  9.55249411E+00  9.55249411E+00
 -1.91049882E+01  0.00000000E+00  9.55249411E+00  9.55249411E+00 -1.91049882E+01
  0.00000000E+00  9.55249411E+00  9.55249411E+00 -1.91049882E+01  0.00000000E+00
  9.55249411E+00  9.55249411E+00 -1.91049882E+01  0.00000000E+00  9.55249411E+00
  9.55249411E+00 -1.91049882E+01  0.00000000E+00  9.55249411E+00  9.55249411E+00
 -1.91049882E+01  0.00000000E+00  9.55249411E+00  9.55249411E+00 -1.91049882E+01
  0.00000000E+00  9.55249411E+00  9.55249411E+00 -1.91049882E+01  0.00000000E+00
  9.55249411E+00  9.55249411E+00 -1.91049882E+01  0.00000000E+00  9.55249411E+00
  9.55249411E+00 -1.91049882E+01  0.00000000E+00  9.55249411E+00  9.55249411E+00
 -1.91049882E+01  0.00000000E+00  9.55249411E+00  9.55249411E+00 -1.91049882E+01
  0.00000000E+00  9.55249411E+00  9.55249411E+00 -1.91049882E+01  0.00000000E+00
  9.55249411E+00  9.55249411E+00 -1.91049882E+01  0.00000000E+00  9.55249411E+00
  9.55249411E+00 -1.91049882E+01  0.00000000E+00  9.55249411E+00  9.55249411E+00
 -1.91049882E+01  0.00000000E+00  9.55249411E+00  9.55249411E+00 -1.91049882E+01
  0.00000000E+00  9.55249411E+00  9.55249411E+00 -1.91049882E+01  0.00000000E+00
  9.55249411E+00  9.55249411E+00 -1.91049882E+01  0.00000000E+00  9.55249411E+00
  9.55249411E+00 -1.91049882E+01  0.00000000E+00  9.55249411E+00  9.55249411E+00
 -1.91049882E+01  0.00000000E+00  9.55249411E+00  9.55249411E+00 -1.91049882E+01
  0.00000000E+00  9.55249411E+00  9.55249411E+00 -1.91049882E+01  0.00000000E+00
  9.55249411E+00  9.55249411E+00 -1.91049882E+01  0.00000000E+00  9.55249411E+00
  9.55249411E+00 -1.91049882E+01  0.00000000E+00  9.55249411E+00  9.55249411E+00
 -1.91049882E+01  0.00000000E+00  9.55249411E+00  9.55249411E+00 -1.91049882E+01
  0.00000000E+00  9.55249411E+00  9.55249411E+00 -1.91049882E+01  0.00000000E+00
  9.55249411E+00  9.55249411E+00 -1.91049882E+01  0.00000000E+00  9.55249411E+00
  9.55249411E+00 -1.91049882E+01  0.00000000E+00  9.55249411E+00  9.55249411E+00
 -1.91049882E+01  0.00000000E+00  9.55249411E+00  9.55249411E+00 -1.91049882E+01
  0.00000000E+00  9.55249411E+00  9.55249411E+00 -1.91049882E+01  0.00000000E+00
  9.55249411E+00  9.55249411E+00 -1.91049882E+01  0.00000000E+00  9.55249411E+00
  9.55249411E+00 -1.91049882E+01  0.00000000E+00  9.55249411E+00  9.55249411E+00
 -1.91049882E+01  0.00000000E+00  9.55249411E+00  9.55249411E+00 -1.91049882E+01
  0.00000000E+00  9.55249411E+00  9.55249411E+00 -1.91049882E+01  0.00000000E+00
  9.55249411E+00  9.55249411E+00 -1.91049882E+01  0.00000000E+00  9.55249411E+00
  9.55249411E+00 -1.91049882E+01  0.00000000E+00  9.55249411E+00  9.55249411E+00
 -1.91049882E+01  0.00000000E+00  9.55249411E+00  9.55249411E+00 -1.91049882E+01
  0.00000000E+00  9.55249411E+00  9.55249411E+00 -1.91049882E+01  0.00000000E+00
  9.55249411E+00  9.55249411E+00 -1.91049882E+01  0.00000000E+00  9.55249411E+00
  9.55249411E+00 -1.91049882E+01  0.00000000E+00  9.55249411E+00  9.55249411E+00
 -1.91049882E+01  0.00000000E+00  9.55249411E+00  9.55249411E+00 -1.91049882E+01
  0.00000000E+00  9.55249411E+00  9.55249411E+00 -1.91049882E+01  0.00000000E+00
  9.55249411E+00  9.55249411E+00 -1.91049882E+01  0.00000000E+00  9.55249411E+00
  9.55249411E+00 -1.91049882E+01  0.00000000E+00  9.55249411E+00  9.55249411E+00
 -1.91049882E+01  0.00000000E+00  9.55249411E+00  9.55249411E+00 -1.91049882E+01
  0.00000000E+00  9.55249411E+00  9.55249411E+00 -1.91049882E+01  0.00000000E+00
  9.55249411E+00  9.55249411E+00 -1.91049882E+01  0.00000000E+00  9.55249411E+00
  9.55249411E+00 -1.91049882E+01  0.00000000E+00  9.55249411E+00  9.55249411E+00
 -1.91049882E+01  0.00000000E+00  9.55249411E+00  9.55249411E+00 -1.91049882E+01
  0.00000000E+00  9.55249411E+00  9.55249411E+00 -1.91049882E+01  0.00000000E+00
  9.55249411E+00  9.55249411E+00 -1.91049882E+01  0.00000000E+00  9.55249411E+00
  9.55249411E+00 -1.91049882E+01  0.00000000E+00  9.55249411E+00  9.55249411E+00
 -1.91049882E+01  0.00000000E+00  9.55249411E+00  9.55249411E+00 -1.91049882E+01
  0.00000000E+00  9.55249411E+00  9.55249411E+00 -1.91049882E+01  0.00000000E+00
  9.55249411E+00  9.55249411E+00 -1.91049882E+01  0.00000000E+00  9.55249411E+00
  9.55249411E+00 -1.91049882E+01  0.00000000E+00  9.55249411E+00  9.55249411E+00
 -1.91049882E+01  0.00000000E+00  9.55249411E+00  9.55249411E+00 -1.91049882E+01
  0.00000000E+00  9.55249411E+00  9.55249411E+00 -1.91049882E+01  0.00000000E+00
  9.55249411E+00  9.55249411E+00 -1.91049882E+01  0.00000000E+00  9.55249411E+00
  9.55249411E+00 -1.91049882E+01  0.00000000E+00  9.55249411E+00  9.55249411E+00
 -1.91049882E+01  0.00000000E+00  9.55249411E+00  9.55249411E+00 -1.91049882E+01
  0.00000000E+00  9.55249411E+00  9.55249411E+00 -1.91049882E+01  0.00000000E+00
  9.55249411E+00  9.55249411E+00 -1.91049882E+01  0.00000000E+00  9.55249411E+00
  9.55249411E+00 -1.91049882E+01  0.00000000E+00  9.55249411E+00  9.55249411E+00
 -1.91049882E+01  0.00000000E+00  9.55249411E+00  9.55249411E+00 -1.91049882E+01
  0.00000000E+00  9.55249411E+00  9.55249411E+00 -1.91049882E+01  0.00000000E+00
  9.55249411E+00  9.55249411E+00 -1.91049882E+01  0.00000000E+00  9.55249411E+00
  9.55249411E+00 -1.91049882E+01  0.00000000E+00  9.55249411E+00  9.55249411E+00
 -1.91049882E+01  0.00000000E+00  9.55249411E+00  9.55249411E+00 -1.91049882E+01
  0.00000000E+00  9.55249411E+00  9.55249411E+00 -1.91049882E+01  0.00000000E+00
  9.55249411E+00  9.55249411E+00 -1.91049882E+01  0.00000000E+00  9.55249411E+00
  9.55249411E+00 -1.91049882E+01  0.00000000E+00  9.55249411E+00  9.55249411E+00
 -1.91049882E+01  0.00000000E+00  9.55249411E+00  9.55249411E+00 -1.91049882E+01
  0.00000000E+00  9.55249411E+00  9.55249411E+00 -1.91049882E+01  0.00000000E+00
  9.55249411E+00  9.55249411E+00 -1.91049882E+01  0.00000000E+00  9.55249411E+00
  9.55249411E+00 -1.91049882E+01  0.00000000E+00  9.55249411E+00  9.55249411E+00
 -1.91049882E+01  0.00000000E+00  9.55249411E+00  9.55249411E+00 -1.91049882E+01
  0.00000000E+00  9.55249411E+00  9.55249411E+00 -1.91049882E+01  0.00000000E+00
  9.55249411E+00  9.55249411E+00 -1.91049882E+01  0.00000000E+00  9.55249411E+00
  9.55249411E+00 -1.91049882E+01  0.00000000E+00  9.55249411E+00  9.55249411E+00
 -1.91049882E+01  0.00000000E+00  9.55249411E+00  9.55249411E+00 -1.91049882E+01
  0.00000000E+00  9.55249411E+00  9.55249411E+00 -1.91049882E+01  0.00000000E+00
  9.55249411E+00  9.55249411E+00 -1.91049882E+01  0.00000000E+00  9.55249411E+00
  9.55249411E+00 -1.91049882E+01  0.00000000E+00  9.55249411E+00  9.55249411E+00
 -1.91049882E+01  0.00000000E+00  9.55249411E+00  9.55249411E+00 -1.91049882E+01
  0.00000000E+00  9.55249411E+00  9.55249411E+00 -1.91049882E+01  0.00000000E+00
  9.55249411E+00  9.55249411E+00 -1.91049882E+01  0.00000000E+00  9.55249411E+00
  9.55249411E+00 -1.91049882E+01  0.00000000E+00  9.55249411E+00  9.55249411E+00
 -1.91049882E+01  0.00000000E+00  9.55249411E+00  9.55249411E+00 -1.91049882E+01
  0.00000000E+00  9.55249411E+00  9.55249411E+00 -1.91049882E+01  0.00000000E+00
  9.55249411E+00  9.55249411E+00 -1.91049882E+01  0.00000000E+00  9.55249411E+00
  9.55249411E+00 -1.91049882E+01  0.00000000E+00  9.55249411E+00  9.55249411E+00
 -1.91049882E+01  0.00000000E+00  9.55249411E+00  9.55249411E+00 -1.91049882E+01
  0.00000000E+00  9.55249411E+00  9.55249411E+00 -1.91049882E+01  0.00000000E+00
  9.55249411E+00  9.55249411E+00 -1.91049882E+01  0.00000000E+00  9.55249411E+00
  9.55249411E+00 -1.91049882E+01  0.00000000E+00  9.55249411E+00  9.55249411E+00
 -1.91049882E+01  0.00000000E+00  9.55249411E+00  9.55249411E+00 -1.91049882E+01
  0.00000000E+00  9.55249411E+00  9.55249411E+00 -1.91049882E+01  0.00000000E+00
  9.55249411E+00  9.55249411E+00 -1.91049882E+01  0.00000000E+00  9.55249411E+00
  9.55249411E+00 -1.91049882E+01  0.00000000E+00  9.55249411E+00  9.55249411E+00
 -1.91049882E+01  0.00000000E+00  9.55249411E+00  9.55249411E+00 -1.91049882E+01
  0.00000000E+00  9.55249411E+00  9.55249411E+00 -1.91049882E+01  0.00000000E+00
  9.55249411E+00  9.55249411E+00 -1.91049882E+01  0.00000000E+00  9.55249411E+00
  9.55249411E+00 -1.91049882E+01  0.00000000E+00  9.55249411E+00  9.55249411E+00
 -1.91049882E+01  0.00000000E+00  9.55249411E+00  9.55249411E+00 -1.91049882E+01
  0.00000000E+00  9.55249411E+00  9.55249411E+00 -1.91049882E+01  0.00000000E+00
  9.55249411E+00  9.55249411E+00 -1.91049882E+01  0.00000000E+00  9.55249411E+00
  9.55249411E+00 -1.91049882E+01  0.00000000E+00  9.55249411E+00  9.55249411E+00
 -1.91049882E+01  0.00000000E+00  9.55249411E+00  9.55249411E+00 -1.91049882E+01
  0.00000000E+00  9.55249411E+00  9.55249411E+00 -1.91049882E+01  0.00000000E+00
  9.55249411E+00  9.55249411E+00 -1.91049882E+01  0.00000000E+00  9.55249411E+00
  9.55249411E+00 -1.91049882E+01  0.00000000E+00  9.55249411E+00  9.55249411E+00
 -1.91049882E+01  0.00000000E+00  9.55249411E+00  9.55249411E+00 -1.91049882E+01
  0.00000000E+00  9.55249411E+00  9.55249411E+00 -1.91049882E+01  0.00000000E+00
  9.55249411E+00  9.55249411E+00 -1.91049882E+01  0.00000000E+00  9.55249411E+00
  9.55249411E+00 -1.91049882E+01  0.00000000E+00  9.55249411E+00  9.55249411E+00
 -1.91049882E+01  0.00000000E+00  9.55249411E+00  9.55249411E+00 -1.91049882E+01
  0.00000000E+00  9.55249411E+00  9.55249411E+00 -1.91049882E+01  0.00000000E+00
  9.55249411E+00  9.55249411E+00 -1.91049882E+01  0.00000000E+00  9.55249411E+00
  9.55249411E+00 -1.91049882E+01  0.00000000E+00  9.55249411E+00  9.55249411E+00
 -1.91049882E+01  0.00000000E+00  9.55249411E+00  9.55249411E+00 -1.91049882E+01
  0.00000000E+00  9.55249411E+00  9.55249411E+00 -1.91049882E+01  0.00000000E+00
  9.55249411E+00  9.55249411E+00 -1.91049882E+01  0.00000000E+00  9.55249411E+00
  9.55249411E+00 -1.91049882E+01  0.00000000E+00  9.55249411E+00  9.55249411E+00
 -1.91049882E+01  0.00000000E+00  9.55249411E+00  9.55249411E+00 -1.91049882E+01
  0.00000000E+00  9.55249411E+00  9.55249411E+00 -1.91049882E+01  0.00000000E+00
  9.55249411E+00  9.55249411E+00 -1.91049882E+01  0.00000000E+00  9.55249411E+00
  9.55249411E+00 -1.91049882E+01  0.00000000E+00  9.55249411E+00  9.55249411E+00
 -1.91049882E+01  0.00000000E+00  9.55249411E+00  9.55249411E+00 -1.91049882E+01
  0.00000000E+00  9.55249411E+00  9.55249411E+00 -1.91049882E+01  0.00000000E+00
  9.55249411E+00  9.55249411E+00 -1.91049882E+01  0.00000000E+00  9.55249411E+00
  9.55249411E+00 -1.91049882E+01  0.00000000E+00  9.55249411E+00  9.55249411E+00
 -1.91049882E+01  0.00000000E+00  9.55249411E+00  9.55249411E+00 -1.91049882E+01
  0.00000000E+00  9.55249411E+00  9.55249411E+00 -1.91049882E+01  0.00000000E+00
  9.55249411E+00  9.55249411E+00 -1.91049882E+01  0.00000000E+00  9.55249411E+00
  9.55249411E+00 -1.91049882E+01  0.00000000E+00  9.55249411E+00  9.55249411E+00
 -1.91049882E+01  0.00000000E+00  9.55249411E+00  9.55249411E+00 -1.91049882E+01
  0.00000000E+00  9.55249411E+00  9.55249411E+00 -1.91049882E+01  0.00000000E+00
  9.55249411E+00  9.55249411E+00 -1.91049882E+01  0.00000000E+00  9.55249411E+00
  9.55249411E+00 -1.91049882E+01  0.00000000E+00  9.55249411E+00  9.55249411E+00
 -1.91049882E+01  0.00000000E+00  9.55249411E+00  9.55249411E+00 -1.91049882E+01
  0.00000000E+00  9.55249411E+00  9.55249411E+00 -1.91049882E+01  0.00000000E+00
  9.55249411E+00  9.55249411E+00 -1.91049882E+01  0.00000000E+00  9.55249411E+00
  9.55249411E+00 -1.91049882E+01  0.00000000E+00  9.55249411E+00  9.55249411E+00
 -1.91049882E+01  0.00000000E+00  9.55249411E+00  9.55249411E+00 -1.91049882E+01
  0.00000000E+00  9.55249411E+00  9.55249411E+00 -1.91049882E+01  0.00000000E+00
  9.55249411E+00  9.55249411E+00 -1.91049882E+01  0.00000000E+00  9.55249411E+00
  9.55249411E+00 -1.91049882E+01  0.00000000E+00  9.55249411E+00  9.55249411E+00
 -1.91049882E+01  0.00000000E+00  9.55249411E+00  9.55249411E+00 -1.91049882E+01
  0.00000000E+00  9.55249411E+00  9.55249411E+00 -1.91049882E+01  0.00000000E+00
  9.55249411E+00  9.55249411E+00 -1.91049882E+01  0.00000000E+00  9.55249411E+00
  9.55249411E+00 -1.91049882E+01  0.00000000E+00  9.55249411E+00  9.55249411E+00
 -1.91049882E+01  0.00000000E+00  9.55249411E+00  9.55249411E+00 -1.91049882E+01
  0.00000000E+00  9.55249411E+00  9.55249411E+00 -1.91049882E+01  0.00000000E+00
  9.55249411E+00  9.55249411E+00 -1.91049882E+01  0.00000000E+00  9.55249411E+00
  9.55249411E+00 -1.91049882E+01  0.00000000E+00  9.55249411E+00  9.55249411E+00
 -1.91049882E+01  0.00000000E+00  9.55249411E+00  9.55249411E+00 -1.91049882E+01
  0.00000000E+00  9.55249411E+00  9.55249411E+00 -1.91049882E+01  0.00000000E+00
  9.55249411E+00  9.55249411E+00 -1.91049882E+01  0.00000000E+00  9.55249411E+00
  9.55249411E+00 -1.91049882E+01  0.00000000E+00  9.55249411E+00  9.55249411E+00
 -1.91049882E+01  0.00000000E+00  9.55249411E+00  9.55249411E+00 -1.91049882E+01
  0.00000000E+00  9.55249411E+00  9.55249411E+00 -1.91049882E+01  0.00000000E+00
  9.55249411E+00  9.55249411E+00 -1.91049882E+01  0.00000000E+00  9.55249411E+00
  9.55249411E+00 -1.91049882E+01  0.00000000E+00  9.55249411E+00  9.55249411E+00
 -1.91049882E+01  0.00000000E+00  9.55249411E+00  9.55249411E+00 -1.91049882E+01
  0.00000000E+00  9.55249411E+00  9.55249411E+00 -1.91049882E+01  0.00000000E+00
  9.55249411E+00  9.55249411E+00 -1.91049882E+01  0.00000000E+00  9.55249411E+00
  9.55249411E+00 -1.91049882E+01  0.00000000E+00  9.55249411E+00  9.55249411E+00
 -1.91049882E+01  0.00000000E+00  9.55249411E+00  9.55249411E+00 -1.91049882E+01
  0.00000000E+00  9.55249411E+00  9.55249411E+00 -1.91049882E+01  0.00000000E+00
  9.55249411E+00  9.55249411E+00 -1.91049882E+01  0.00000000E+00  9.55249411E+00
  9.55249411E+00 -1.91049882E+01  0.00000000E+00  9.55249411E+00  9.55249411E+00
 -1.91049882E+01  0.00000000E+00  9.55249411E+00  9.55249411E+00 -1.91049882E+01
  0.00000000E+00  9.55249411E+00  9.55249411E+00 -1.91049882E+01  0.00000000E+00
  9.55249411E+00  9.55249411E+00 -1.91049882E+01  0.00000000E+00  9.55249411E+00
  9.55249411E+00 -1.91049882E+01  0.00000000E+00  9.55249411E+00  9.55249411E+00
 -1.91049882E+01  0.00000000E+00  9.55249411E+00  9.55249411E+00 -1.91049882E+01
  0.00000000E+00  9.55249411E+00  9.55249411E+00 -1.91049882E+01  0.00000000E+00
  9.55249411E+00  9.55249411E+00 -1.91049882E+01  0.00000000E+00  9.55249411E+00
  9.55249411E+00 -1.91049882E+01  0.00000000E+00  9.55249411E+00  9.55249411E+00
 -1.91049882E+01  0.00000000E+00  9.55249411E+00  9.55249411E+00 -1.91049882E+01
  0.00000000E+00  9.55249411E+00  9.55249411E+00 -1.91049882E+01  0.00000000E+00
  9.55249411E+00  9.55249411E+00 -1.91049882E+01  0.00000000E+00  9.55249411E+00
  9.55249411E+00 -1.91049882E+01  0.00000000E+00  9.55249411E+00  9.55249411E+00
 -1.91049882E+01  0.00000000E+00  9.55249411E+00  9.55249411E+00 -1.91049882E+01
  0.00000000E+00  9.55249411E+00  9.55249411E+00 -1.91049882E+01  0.00000000E+00
  9.55249411E+00  9.55249411E+00 -1.91049882E+01  0.00000000E+00  9.55249411E+00
  9.55249411E+00 -1.91049882E+01  0.00000000E+00  9.55249411E+00  9.55249411E+00
 -1.91049882E+01  0.00000000E+00  9.55249411E+00  9.55249411E+00 -1.91049882E+01
  0.00000000E+00  9.55249411E+00  9.55249411E+00 -1.91049882E+01  0.00000000E+00
  9.55249411E+00  9.55249411E+00 -1.91049882E+01  0.00000000E+00  9.55249411E+00
  9.55249411E+00 -1.91049882E+01  0.00000000E+00  9.55249411E+00  9.55249411E+00
 -1.91049882E+01  0.00000000E+00  9.55249411E+00  9.55249411E+00 -1.91049882E+01
  0.00000000E+00  9.55249411E+00  9.55249411E+00 -1.91049882E+01  0.00000000E+00
  9.55249411E+00  9.55249411E+00 -1.91049882E+01  0.00000000E+00  9.55249411E+00
  9.55249411E+00 -1.91049882E+01  0.00000000E+00  9.55249411E+00  9.55249411E+00
 -1.91049882E+01  0.00000000E+00  9.55249411E+00  9.55249411E+00 -1.91049882E+01
  0.00000000E+00  9.55249411E+00  9.55249411E+00 -1.91049882E+01  0.00000000E+00
  9.55249411E+00  9.55249411E+00 -1.91049882E+01  0.00000000E+00  9.55249411E+00
  9.55249411E+00 -1.91049882E+01  0.00000000E+00  9.55249411E+00  9.55249411E+00
 -1.91049882E+01  0.00000000E+00  9.55249411E+00  9.55249411E+00 -1.91049882E+01
  0.00000000E+00  9.55249411E+00  9.55249411E+00 -1.91049882E+01  0.00000000E+00
  9.55249411E+00  9.55249411E+00 -1.91049882E+01  0.00000000E+00  9.55249411E+00
  9.55249411E+00 -1.91049882E+01  0.00000000E+00  9.55249411E+00  9.55249411E+00
 -1.91049882E+01  0.00000000E+00  9.55249411E+00  9.55249411E+00 -1.91049882E+01
  0.00000000E+00  9.55249411E+00  9.55249411E+00 -1.91049882E+01  0.00000000E+00
  9.55249411E+00  9.55249411E+00 -1.91049882E+01  0.00000000E+00  9.55249411E+00
  9.55249411E+00 -1.91049882E+01  0.00000000E+00  9.55249411E+00  9.55249411E+00
 -1.91049882E+01  0.00000000E+00  9.55249411E+00  9.55249411E+00 -1.91049882E+01
  0.00000000E+00  9.55249411E+00  9.55249411E+00 -1.91049882E+01  0.00000000E+00
  9.55249411E+00  9.55249411E+00 -1.91049882E+01  0.00000000E+00  9.55249411E+00
  9.55249411E+00 -1.91049882E+01  0.00000000E+00  9.55249411E+00  9.55249411E+00
 -1.91049882E+01  0.00000000E+00  9.55249411E+00  9.55249411E+00 -1.91049882E+01
  0.00000000E+00  9.55249411E+00  9.55249411E+00 -1.91049882E+01  0.00000000E+00
  9.55249411E+00  9.55249411E+00 -1.91049882E+01  0.00000000E+00  9.55249411E+00
  9.55249411E+00 -1.91049882E+01  0.00000000E+00  9.55249411E+00  9.55249411E+00
 -1.91049882E+01  0.00000000E+00  9.55249411E+00  9.55249411E+00 -1.91049882E+01
  0.00000000E+00  9.55249411E+00  9.55249411E+00 -1.91049882E+01  0.00000000E+00
  9.55249411E+00  9.55249411E+00 -1.91049882E+01  0.00000000E+00  9.55249411E+00
  9.55249411E+00 -1.91049882E+01  0.00000000E+00  9.55249411E+00  9.55249411E+00
 -1.91049882E+01  0.00000000E+00  9.55249411E+00  9.55249411E+00 -1.91049882E+01
  0.00000000E+00  9.55249411E+00  9.55249411E+00 -1.91049882E+01  0.00000000E+00
  9.55249411E+00  9.55249411E+00 -1.91049882E+01  0.00000000E+00  9.55249411E+00
  9.55249411E+00 -1.91049882E+01  0.00000000E+00  9.55249411E+00  9.55249411E+00
 -1.91049882E+01  0.00000000E+00  9.55249411E+00  9.55249411E+00 -1.91049882E+01
  0.00000000E+00  9.55249411E+00  9.55249411E+00 -1.91049882E+01  0.00000000E+00
  9.55249411E+00  9.55249411E+00 -1.91049882E+01  0.00000000E+00  9.55249411E+00
  9.55249411E+00 -1.91049882E+01  0.00000000E+00  9.55249411E+00  9.55249411E+00
 -1.91049882E+01  0.00000000E+00  9.55249411E+00  9.55249411E+00 -1.91049882E+01
  0.00000000E+00  9.55249411E+00  9.55249411E+00 -1.91049882E+01  0.00000000E+00
  9.55249411E+00  9.55249411E+00 -1.91049882E+01  0.00000000E+00  9.55249411E+00
  9.55249411E+00 -1.91049882E+01  0.00000000E+00  9.55249411E+00  9.55249411E+00
 -1.91049882E+01  0.00000000E+00  9.55249411E+00  9.55249411E+00 -1.91049882E+01
  0.00000000E+00  9.55249411E+00  9.55249411E+00 -1.91049882E+01  0.00000000E+00
  9.55249411E+00  9.55249411E+00 -1.91049882E+01  0.00000000E+00  9.55249411E+00
  9.55249411E+00 -1.91049882E+01  0.00000000E+00  9.55249411E+00  9.55249411E+00
 -1.91049882E+01  0.00000000E+00  9.55249411E+00  9.55249411E+00 -1.91049882E+01
  0.00000000E+00  9.55249411E+00  9.55249411E+00 -1.91049882E+01  0.00000000E+00
  9.55249411E+00  9.55249411E+00 -1.91049882E+01  0.00000000E+00  9.55249411E+00
  9.55249411E+00 -1.91049882E+01  0.00000000E+00  9.55249411E+00  9.55249411E+00
 -1.91049882E+01  0.00000000E+00  9.55249411E+00  9.55249411E+00 -1.91049882E+01
  0.00000000E+00  9.55249411E+00  9.55249411E+00 -1.91049882E+01  0.00000000E+00
  9.55249411E+00  9.55249411E+00 -1.91049882E+01  0.00000000E+00  9.55249411E+00
  9.55249411E+00 -1.91049882E+01  0.00000000E+00  9.55249411E+00  9.55249411E+00
 -1.91049882E+01  0.00000000E+00  9.55249411E+00  9.55249411E+00 -1.91049882E+01
  0.00000000E+00  9.55249411E+00  9.55249411E+00 -1.91049882E+01  0.00000000E+00
  9.55249411E+00  9.55249411E+00 -1.91049882E+01  0.00000000E+00  9.55249411E+00
  9.55249411E+00 -1.91049882E+01  0.00000000E+00  9.55249411E+00  9.55249411E+00
 -1.91049882E+01  0.00000000E+00  9.55249411E+00  9.55249411E+00 -1.91049882E+01
  0.00000000E+00  9.55249411E+00  9.55249411E+00 -1.91049882E+01  0.00000000E+00
  9.55249411E+00  9.55249411E+00 -1.91049882E+01  0.00000000E+00  9.55249411E+00
  9.55249411E+00 -1.91049882E+01  0.00000000E+00  9.55249411E+00  9.55249411E+00
 -1.91049882E+01  0.00000000E+00  9.55249411E+00  9.55249411E+00 -1.91049882E+01
  0.00000000E+00  9.55249411E+00  9.55249411E+00 -1.91049882E+01  0.00000000E+00
  9.55249411E+00  9.55249411E+00 -1.91049882E+01  0.00000000E+00  9.55249411E+00
  9.55249411E+00 -1.91049882E+01  0.00000000E+00  9.55249411E+00  9.55249411E+00
 -1.91049882E+01  0.00000000E+00  9.55249411E+00  9.55249411E+00 -1.91049882E+01
  0.00000000E+00  9.55249411E+00  9.55249411E+00 -1.91049882E+01  0.00000000E+00
  9.55249411E+00  9.55249411E+00 -1.91049882E+01  0.00000000E+00  9.55249411E+00
  9.55249411E+00 -1.91049882E+01  0.00000000E+00  9.55249411E+00  9.55249411E+00
 -1.91049882E+01  0.00000000E+00  9.55249411E+00  9.55249411E+00 -1.91049882E+01
  0.00000000E+00  9.55249411E+00  9.55249411E+00 -1.91049882E+01  0.00000000E+00
  9.55249411E+00  9.55249411E+00 -1.91049882E+01  0.00000000E+00  9.55249411E+00
  9.55249411E+00 -1.91049882E+01  0.00000000E+00  9.55249411E+00  9.55249411E+00
 -1.91049882E+01  0.00000000E+00  9.55249411E+00  9.55249411E+00 -1.91049882E+01
  0.00000000E+00  9.55249411E+00  9.55249411E+00 -1.91049882E+01  0.00000000E+00
  9.55249411E+00  9.55249411E+00 -1.91049882E+01  0.00000000E+00  9.55249411E+00
  9.55249411E+00 -1.91049882E+01  0.00000000E+00  9.55249411E+00  9.55249411E+00
 -1.91049882E+01  0.00000000E+00  9.55249411E+00  9.55249411E+00 -1.91049882E+01
  0.00000000E+00  9.55249411E+00  9.55249411E+00 -1.91049882E+01  0.00000000E+00
  9.55249411E+00  9.55249411E+00 -1.91049882E+01  0.00000000E+00  9.55249411E+00
  9.55249411E+00 -1.91049882E+01  0.00000000E+00  9.55249411E+00  9.55249411E+00
 -1.91049882E+01  0.00000000E+00  9.55249411E+00  9.55249411E+00 -1.91049882E+01
  0.00000000E+00  9.55249411E+00  9.55249411E+00 -1.91049882E+01  0.00000000E+00
  9.55249411E+00  9.55249411E+00 -1.91049882E+01  0.00000000E+00  9.55249411E+00
  9.55249411E+00 -1.91049882E+01  0.00000000E+00  9.55249411E+00  9.55249411E+00
 -1.91049882E+01  0.00000000E+00  9.55249411E+00  9.55249411E+00 -1.91049882E+01
  0.00000000E+00  9.55249411E+00  9.55249411E+00 -1.91049882E+01  0.00000000E+00
  9.55249411E+00  9.55249411E+00 -1.91049882E+01  0.00000000E+00  9.55249411E+00
  9.55249411E+00 -1.91049882E+01  0.00000000E+00  9.55249411E+00  9.55249411E+00
 -1.91049882E+01  0.00000000E+00  9.55249411E+00  9.55249411E+00 -1.91049882E+01
  0.00000000E+00  9.55249411E+00  9.55249411E+00 -1.91049882E+01  0.00000000E+00
  9.55249411E+00  9.55249411E+00 -1.91049882E+01  0.00000000E+00  9.55249411E+00
  9.55249411E+00 -1.91049882E+01  0.00000000E+00  9.55249411E+00  9.55249411E+00
 -1.91049882E+01  0.00000000E+00  9.55249411E+00  9.55249411E+00 -1.91049882E+01
  0.00000000E+00  9.55249411E+00  9.55249411E+00 -1.91049882E+01  0.00000000E+00
  9.55249411E+00  9.55249411E+00 -1.91049882E+01  0.00000000E+00  9.55249411E+00
  9.55249411E+00 -1.91049882E+01  0.00000000E+00  9.55249411E+00  9.55249411E+00
 -1.91049882E+01  0.00000000E+00  9.55249411E+00  9.55249411E+00 -1.91049882E+01
  0.00000000E+00  9.55249411E+00  9.55249411E+00 -1.91049882E+01  0.00000000E+00
  9.55249411E+00  9.55249411E+00 -1.91049882E+01  0.00000000E+00  9.55249411E+00
  9.55249411E+00 -1.91049882E+01  0.00000000E+00  9.55249411E+00  9.55249411E+00
 -1.91049882E+01  0.00000000E+00  9.55249411E+00  9.55249411E+00 -1.91049882E+01
  0.00000000E+00  9.55249411E+00  9.55249411E+00 -1.91049882E+01  0.00000000E+00
  9.55249411E+00  9.55249411E+00 -1.91049882E+01  0.00000000E+00  9.55249411E+00
  9.55249411E+00 -1.91049882E+01  0.00000000E+00  9.55249411E+00  9.55249411E+00
 -1.91049882E+01  0.00000000E+00  9.55249411E+00  9.55249411E+00 -1.91049882E+01
  0.00000000E+00  9.55249411E+00  9.55249411E+00 -1.91049882E+01  0.00000000E+00
  9.55249411E+00  9.55249411E+00 -1.91049882E+01  0.00000000E+00  9.55249411E+00
  9.55249411E+00 -1.91049882E+01  0.00000000E+00  9.55249411E+00  9.55249411E+00
 -1.91049882E+01  0.00000000E+00  9.55249411E+00  9.55249411E+00 -1.91049882E+01
  0.00000000E+00  9.55249411E+00  9.55249411E+00 -1.91049882E+01  0.00000000E+00
  9.55249411E+00  9.55249411E+00 -1.91049882E+01  0.00000000E+00  9.55249411E+00
  9.55249411E+00 -1.91049882E+01  0.00000000E+00  9.55249411E+00  9.55249411E+00
 -1.91049882E+01  0.00000000E+00  9.55249411E+00  9.55249411E+00 -1.91049882E+01
  0.00000000E+00  9.55249411E+00  9.55249411E+00 -1.91049882E+01  0.00000000E+00
  9.55249411E+00  9.55249411E+00 -1.91049882E+01  0.00000000E+00  9.55249411E+00
  9.55249411E+00 -1.91049882E+01  0.00000000E+00  9.55249411E+00  9.55249411E+00
 -1.91049882E+01  0.00000000E+00  9.55249411E+00  9.55249411E+00 -1.91049882E+01
  0.00000000E+00  9.55249411E+00  9.55249411E+00 -1.91049882E+01  0.00000000E+00
  9.55249411E+00  9.55249411E+00 -1.91049882E+01  0.00000000E+00  9.55249411E+00
  9.55249411E+00 -1.91049882E+01  0.00000000E+00  9.55249411E+00  9.55249411E+00
 -1.91049882E+01  0.00000000E+00  9.55249411E+00  9.55249411E+00 -1.91049882E+01
  0.00000000E+00  9.55249411E+00  9.55249411E+00 -1.91049882E+01  0.00000000E+00
  9.55249411E+00  9.55249411E+00 -1.91049882E+01  0.00000000E+00  9.55249411E+00
  9.55249411E+00 -1.91049882E+01  0.00000000E+00  9.55249411E+00  9.55249411E+00
 -1.91049882E+01  0.00000000E+00  9.55249411E+00  9.55249411E+00 -1.91049882E+01
  0.00000000E+00  9.55249411E+00  9.55249411E+00 -1.91049882E+01  0.00000000E+00
  9.55249411E+00  9.55249411E+00 -1.91049882E+01  0.00000000E+00  9.55249411E+00
  9.55249411E+00 -1.91049882E+01  0.00000000E+00  9.55249411E+00  9.55249411E+00
 -1.91049882E+01  0.00000000E+00  9.55249411E+00  9.55249411E+00 -1.91049882E+01
  0.00000000E+00  9.55249411E+00  9.55249411E+00 -1.91049882E+01  0.00000000E+00
  9.55249411E+00  9.55249411E+00 -1.91049882E+01  0.00000000E+00  9.55249411E+00
  9.55249411E+00 -1.91049882E+01  0.00000000E+00  9.55249411E+00  9.55249411E+00
 -1.91049882E+01  0.00000000E+00  9.55249411E+00  9.55249411E+00 -1.91049882E+01
  0.00000000E+00  9.55249411E+00  9.55249411E+00 -1.91049882E+01  0.00000000E+00
  9.55249411E+00  9.55249411E+00 -1.91049882E+01  0.00000000E+00  9.55249411E+00
  9.55249411E+00 -1.91049882E+01  0.00000000E+00  9.55249411E+00  9.55249411E+00
 -1.91049882E+01  0.00000000E+00  9.55249411E+00  9.55249411E+00 -1.91049882E+01
  0.00000000E+00  9.55249411E+00  9.55249411E+00 -1.91049882E+01  0.00000000E+00
  9.55249411E+00  9.55249411E+00 -1.91049882E+01  0.00000000E+00  9.55249411E+00
  9.55249411E+00 -1.91049882E+01  0.00000000E+00  9.55249411E+00  9.55249411E+00
 -1.91049882E+01  0.00000000E+00  9.55249411E+00  9.55249411E+00 -1.91049882E+01
  0.00000000E+00  9.55249411E+00  9.55249411E+00 -1.91049882E+01  0.00000000E+00
  9.55249411E+00  9.55249411E+00 -1.91049882E+01  0.00000000E+00  9.55249411E+00
  9.55249411E+00 -1.91049882E+01  0.00000000E+00  9.55249411E+00  9.55249411E+00
 -1.91049882E+01  0.00000000E+00  9.55249411E+00  9.55249411E+00 -1.91049882E+01
  0.00000000E+00  9.55249411E+00  9.55249411E+00 -1.91049882E+01  0.00000000E+00
  9.55249411E+00  9.55249411E+00 -1.91049882E+01  0.00000000E+00  9.55249411E+00
  9.55249411E+00 -1.91049882E+01  0.00000000E+00  9.55249411E+00  9.55249411E+00
 -1.91049882E+01  0.00000000E+00  9.55249411E+00  9.55249411E+00 -1.91049882E+01
  0.00000000E+00  9.55249411E+00  9.55249411E+00 -1.91049882E+01  0.00000000E+00
  9.55249411E+00  9.55249411E+00 -1.91049882E+01  0.00000000E+00  9.55249411E+00
  9.55249411E+00 -1.91049882E+01  0.00000000E+00  9.55249411E+00  9.55249411E+00
 -1.91049882E+01  0.00000000E+00  9.55249411E+00  9.55249411E+00 -1.91049882E+01
  0.00000000E+00  9.55249411E+00  9.55249411E+00 -1.91049882E+01  0.00000000E+00
  9.55249411E+00  9.55249411E+00 -1.91049882E+01  0.00000000E+00  9.55249411E+00
  9.55249411E+00 -1.91049882E+01  0.00000000E+00  9.55249411E+00  9.55249411E+00
 -1.91049882E+01  0.00000000E+00  9.55249411E+00  9.55249411E+00 -1.91049882E+01
  0.00000000E+00  9.55249411E+00  9.55249411E+00 -1.91049882E+01  0.00000000E+00
  9.55249411E+00  9.55249411E+00 -1.91049882E+01  0.00000000E+00  9.55249411E+00
  9.55249411E+00 -1.91049882E+01  0.00000000E+00  9.55249411E+00  9.55249411E+00
 -1.91049882E+01  0.00000000E+00  9.55249411E+00  9.55249411E+00 -1.91049882E+01
  0.00000000E+00  9.55249411E+00  9.55249411E+00 -1.91049882E+01  0.00000000E+00
  9.55249411E+00  9.55249411E+00 -1.91049882E+01  0.00000000E+00  9.55249411E+00
  9.55249411E+00 -1.91049882E+01  0.00000000E+00  9.55249411E+00  9.55249411E+00
 -1.91049882E+01  0.00000000E+00  9.55249411E+00  9.55249411E+00 -1.91049882E+01
  0.00000000E+00  9.55249411E+00  9.55249411E+00 -1.91049882E+01  0.00000000E+00
  9.55249411E+00  9.55249411E+00 -1.91049882E+01  0.00000000E+00  9.55249411E+00
  9.55249411E+00 -1.91049882E+01  0.00000000E+00  9.55249411E+00  9.55249411E+00
 -1.91049882E+01  0.00000000E+00  9.55249411E+00  9.55249411E+00 -1.91049882E+01
  0.00000000E+00  9.55249411E+00  9.55249411E+00 -1.91049882E+01  0.00000000E+00
  9.55249411E+00  9.55249411E+00 -1.91049882E+01  0.00000000E+00  9.55249411E+00
  9.55249411E+00 -1.91049882E+01  0.00000000E+00  9.55249411E+00  9.55249411E+00
 -1.91049882E+01  0.00000000E+00  9.55249411E+00  9.55249411E+00 -1.91049882E+01
  0.00000000E+00  9.55249411E+00  9.55249411E+00 -1.91049882E+01  0.00000000E+00
  9.55249411E+00  9.55249411E+00 -1.91049882E+01  0.00000000E+00  9.55249411E+00
  9.55249411E+00 -1.91049882E+01  0.00000000E+00  9.55249411E+00  9.55249411E+00
 -1.91049882E+01  0.00000000E+00  9.55249411E+00  9.55249411E+00 -1.91049882E+01
  0.00000000E+00  9.55249411E+00  9.55249411E+00 -1.91049882E+01  0.00000000E+00
  9.55249411E+00  9.55249411E+00 -1.91049882E+01  0.00000000E+00  9.55249411E+00
  9.55249411E+00 -1.91049882E+01  0.00000000E+00  9.55249411E+00  9.55249411E+00
 -1.91049882E+01  0.00000000E+00  9.55249411E+00  9.55249411E+00 -1.91049882E+01
  0.00000000E+00  9.55249411E+00  9.55249411E+00 -1.91049882E+01  0.00000000E+00
  9.55249411E+00  9.55249411E+00 -1.91049882E+01  0.00000000E+00  9.55249411E+00
  9.55249411E+00 -1.91049882E+01  0.00000000E+00  9.55249411E+00  9.55249411E+00
 -1.91049882E+01  0.00000000E+00  9.55249411E+00  9.55249411E+00 -1.91049882E+01
  0.00000000E+00  9.55249411E+00  9.55249411E+00 -1.91049882E+01  0.00000000E+00
  9.55249411E+00  9.55249411E+00 -1.91049882E+01  0.00000000E+00  9.55249411E+00
  9.55249411E+00 -1.91049882E+01  0.00000000E+00  9.55249411E+00  9.55249411E+00
 -1.91049882E+01  0.00000000E+00  9.55249411E+00  9.55249411E+00 -1.91049882E+01
  0.00000000E+00  9.55249411E+00  9.55249411E+00 -1.91049882E+01  0.00000000E+00
  9.55249411E+00  9.55249411E+00 -1.91049882E+01  0.00000000E+00  9.55249411E+00
  9.55249411E+00 -1.91049882E+01  0.00000000E+00  9.55249411E+00  9.55249411E+00
 -1.91049882E+01  0.00000000E+00  9.55249411E+00  9.55249411E+00 -1.91049882E+01
  0.00000000E+00  9.55249411E+00  9.55249411E+00 -1.91049882E+01  0.00000000E+00
  9.55249411E+00  9.55249411E+00 -1.91049882E+01  0.00000000E+00  9.55249411E+00
  9.55249411E+00 -1.91049882E+01  0.00000000E+00  9.55249411E+00  9.55249411E+00
 -1.91049882E+01  0.00000000E+00  9.55249411E+00  9.55249411E+00 -1.91049882E+01
  0.00000000E+00  9.55249411E+00  9.55249411E+00 -1.91049882E+01  0.00000000E+00
  9.55249411E+00  9.55249411E+00 -1.91049882E+01  0.00000000E+00  9.55249411E+00
  9.55249411E+00 -1.91049882E+01  0.00000000E+00  9.55249411E+00  9.55249411E+00
 -1.91049882E+01  0.00000000E+00  9.55249411E+00  9.55249411E+00 -1.91049882E+01
  0.00000000E+00  9.55249411E+00  9.55249411E+00 -1.91049882E+01  0.00000000E+00
  9.55249411E+00  9.55249411E+00 -1.91049882E+01  0.00000000E+00  9.55249411E+00
  9.55249411E+00 -1.91049882E+01  0.00000000E+00  9.55249411E+00  9.55249411E+00
 -1.91049882E+01  0.00000000E+00  9.55249411E+00  9.55249411E+00 -1.91049882E+01
  0.00000000E+00  9.55249411E+00  9.55249411E+00 -1.91049882E+01  0.00000000E+00
  9.55249411E+00  9.55249411E+00 -1.91049882E+01  0.00000000E+00  9.55249411E+00
  9.55249411E+00 -1.91049882E+01  0.00000000E+00  9.55249411E+00  9.55249411E+00
 -1.91049882E+01  0.00000000E+00  9.55249411E+00  9.55249411E+00 -1.91049882E+01
  0.00000000E+00  9.55249411E+00  9.55249411E+00 -1.91049882E+01  0.00000000E+00
  9.55249411E+00  9.55249411E+00 -1.91049882E+01  0.00000000E+00  9.55249411E+00
  9.55249411E+00 -1.91049882E+01  0.00000000E+00  9.55249411E+00  9.55249411E+00
 -1.91049882E+01  0.00000000E+00  9.55249411E+00  9.55249411E+00 -1.91049882E+01
  0.00000000E+00  9.55249411E+00  9.55249411E+00 -1.91049882E+01  0.00000000E+00
  9.55249411E+00  9.55249411E+00 -1.91049882E+01  0.00000000E+00  9.55249411E+00
  9.55249411E+00 -1.91049882E+01  0.00000000E+00  9.55249411E+00  9.55249411E+00
 -1.91049882E+01  0.00000000E+00  9.55249411E+00  9.55249411E+00 -1.91049882E+01
  0.00000000E+00  9.55249411E+00  9.55249411E+00 -1.91049882E+01  0.00000000E+00
  9.55249411E+00  9.55249411E+00 -1.91049882E+01  0.00000000E+00  9.55249411E+00
  9.55249411E+00 -1.91049882E+01  0.00000000E+00  9.55249411E+00  9.55249411E+00
 -1.91049882E+01  0.00000000E+00  9.55249411E+00  9.55249411E+00 -1.91049882E+01
  0.00000000E+00  9.55249411E+00  9.55249411E+00 -1.91049882E+01  0.00000000E+00
  9.55249411E+00  9.55249411E+00 -1.91049882E+01  0.00000000E+00  9.55249411E+00
  9.55249411E+00 -1.91049882E+01  0.00000000E+00  9.55249411E+00  9.55249411E+00
 -1.91049882E+01  0.00000000E+00  9.55249411E+00  9.55249411E+00 -1.91049882E+01
  0.00000000E+00  9.55249411E+00  9.55249411E+00 -1.91049882E+01  0.00000000E+00
  9.55249411E+00  9.55249411E+00 -1.91049882E+01  0.00000000E+00  9.55249411E+00
  9.55249411E+00 -1.91049882E+01  0.00000000E+00  9.55249411E+00  9.55249411E+00
 -1.91049882E+01  0.00000000E+00  9.55249411E+00  9.55249411E+00 -1.91049882E+01
  0.00000000E+00  9.55249411E+00  9.55249411E+00 -1.91049882E+01  0.00000000E+00
  9.55249411E+00  9.55249411E+00 -1.91049882E+01  0.00000000E+00  9.55249411E+00
  9.55249411E+00 -1.91049882E+01  0.00000000E+00  9.55249411E+00  9.55249411E+00
 -1.91049882E+01  0.00000000E+00  9.55249411E+00  9.55249411E+00 -1.91049882E+01
  0.00000000E+00  9.55249411E+00  9.55249411E+00 -1.91049882E+01  0.00000000E+00
  9.55249411E+00  9.55249411E+00 -1.91049882E+01  0.00000000E+00  9.55249411E+00
  9.55249411E+00 -1.91049882E+01  0.00000000E+00  9.55249411E+00  9.55249411E+00
 -1.91049882E+01  0.00000000E+00  9.55249411E+00  9.55249411E+00 -1.91049882E+01
  0.00000000E+00  9.55249411E+00  9.55249411E+00 -1.91049882E+01  0.00000000E+00
  9.55249411E+00  9.55249411E+00 -1.91049882E+01  0.00000000E+00  9.55249411E+00
  9.55249411E+00 -1.91049882E+01  0.00000000E+00  9.55249411E+00  9.55249411E+00
 -1.91049882E+01  0.00000000E+00  9.55249411E+00  9.55249411E+00 -1.91049882E+01
  0.00000000E+00  9.55249411E+00  9.55249411E+00 -1.91049882E+01  0.00000000E+00
  9.55249411E+00  9.55249411E+00 -1.91049882E+01  0.00000000E+00  9.55249411E+00
  9.55249411E+00 -1.91049882E+01  0.00000000E+00  9.55249411E+00  9.55249411E+00
 -1.91049882E+01  0.00000000E+00  9.55249411E+00  9.55249411E+00 -1.91049882E+01
  0.00000000E+00  9.55249411E+00  9.55249411E+00 -1.91049882E+01  0.00000000E+00
  9.55249411E+00  9.55249411E+00 -1.91049882E+01  0.00000000E+00  9.55249411E+00
  9.55249411E+00 -1.91049882E+01  0.00000000E+00  9.55249411E+00  9.55249411E+00
 -1.91049882E+01  0.00000000E+00  9.55249411E+00  9.55249411E+00 -1.91049882E+01
  0.00000000E+00  9.55249411E+00  9.55249411E+00 -1.91049882E+01  0.00000000E+00
  9.55249411E+00  9.55249411E+00 -1.91049882E+01  0.00000000E+00  9.55249411E+00
  9.55249411E+00 -1.91049882E+01  0.00000000E+00  9.55249411E+00  9.55249411E+00
 -1.91049882E+01  0.00000000E+00  9.55249411E+00  9.55249411E+00 -1.91049882E+01
  0.00000000E+00  9.55249411E+00  9.55249411E+00 -1.91049882E+01  0.00000000E+00
  9.55249411E+00  9.55249411E+00 -1.91049882E+01  0.00000000E+00  9.55249411E+00
  9.55249411E+00 -1.91049882E+01  0.00000000E+00  9.55249411E+00  9.55249411E+00
 -1.91049882E+01  0.00000000E+00  9.55249411E+00  9.55249411E+00 -1.91049882E+01
  0.00000000E+00  9.55249411E+00  9.55249411E+00 -1.91049882E+01  0.00000000E+00
  9.55249411E+00  9.55249411E+00 -1.91049882E+01  0.00000000E+00  9.55249411E+00
  9.55249411E+00 -1.91049882E+01  0.00000000E+00  9.55249411E+00  9.55249411E+00
 -1.91049882E+01  0.00000000E+00  9.55249411E+00  9.55249411E+00 -1.91049882E+01
  0.00000000E+00  9.55249411E+00  9.55249411E+00 -1.91049882E+01  0.00000000E+00
  9.55249411E+00  9.55249411E+00 -1.91049882E+01  0.00000000E+00  9.55249411E+00
  9.55249411E+00 -1.91049882E+01  0.00000000E+00  9.55249411E+00  9.55249411E+00
 -1.91049882E+01  0.00000000E+00  9.55249411E+00  9.55249411E+00 -1.91049882E+01
  0.00000000E+00  9.55249411E+00  9.55249411E+00 -1.91049882E+01  0.00000000E+00
  9.55249411E+00  9.55249411E+00 -1.91049882E+01  0.00000000E+00  9.55249411E+00
  9.55249411E+00 -1.91049882E+01  0.00000000E+00  9.55249411E+00  9.55249411E+00
 -1.91049882E+01  0.00000000E+00  9.55249411E+00  9.55249411E+00 -1.91049882E+01
  0.00000000E+00  9.55249411E+00  9.55249411E+00 -1.91049882E+01  0.00000000E+00
  9.55249411E+00  9.55249411E+00 -1.91049882E+01  0.00000000E+00  9.55249411E+00
  9.55249411E+00 -1.91049882E+01  0.00000000E+00  9.55249411E+00  9.55249411E+00
 -1.91049882E+01  0.00000000E+00  9.55249411E+00  9.55249411E+00 -1.91049882E+01
  0.00000000E+00  9.55249411E+00  9.55249411E+00 -1.91049882E+01  0.00000000E+00
  9.55249411E+00  9.55249411E+00 -1.91049882E+01  0.00000000E+00  9.55249411E+00
  9.55249411E+00 -1.91049882E+01  0.00000000E+00  9.55249411E+00  9.55249411E+00
 -1.91049882E+01  0.00000000E+00  9.55249411E+00  9.55249411E+00 -1.91049882E+01
  0.00000000E+00  9.55249411E+00  9.55249411E+00 -1.91049882E+01  0.00000000E+00
  9.55249411E+00  9.55249411E+00 -1.91049882E+01  0.00000000E+00  9.55249411E+00
  9.55249411E+00 -1.91049882E+01  0.00000000E+00  9.55249411E+00  9.55249411E+00
 -1.91049882E+01  0.00000000E+00  9.55249411E+00  9.55249411E+00 -1.91049882E+01
  0.00000000E+00  9.55249411E+00  9.55249411E+00 -1.91049882E+01  0.00000000E+00
  9.55249411E+00  9.55249411E+00 -1.91049882E+01  0.00000000E+00  9.55249411E+00
  9.55249411E+00 -1.91049882E+01  0.00000000E+00  9.55249411E+00  9.55249411E+00
 -1.91049882E+01  0.00000000E+00  9.55249411E+00  9.55249411E+00 -1.91049882E+01
  0.00000000E+00  9.55249411E+00  9.55249411E+00 -1.91049882E+01  0.00000000E+00
  9.55249411E+00  9.55249411E+00 -1.91049882E+01  0.00000000E+00  9.55249411E+00
  9.55249411E+00 -1.91049882E+01  0.00000000E+00  9.55249411E+00  9.55249411E+00
 -1.91049882E+01  0.00000000E+00  9.55249411E+00  9.55249411E+00 -1.91049882E+01
  0.00000000E+00  9.55249411E+00  9.55249411E+00 -1.91049882E+01  0.00000000E+00
  9.55249411E+00  9.55249411E+00 -1.91049882E+01  0.00000000E+00  9.55249411E+00
  9.55249411E+00 -1.91049882E+01  0.00000000E+00  9.55249411E+00  9.55249411E+00
 -1.91049882E+01  0.00000000E+00  9.55249411E+00  9.55249411E+00 -1.91049882E+01
  0.00000000E+00  9.55249411E+00  9.55249411E+00 -1.91049882E+01  0.00000000E+00
  9.55249411E+00  9.55249411E+00 -1.91049882E+01  0.00000000E+00  9.55249411E+00
  9.55249411E+00 -1.91049882E+01  0.00000000E+00  9.55249411E+00  9.55249411E+00
 -1.91049882E+01  0.00000000E+00  9.55249411E+00  9.55249411E+00 -1.91049882E+01
  0.00000000E+00  9.55249411E+00  9.55249411E+00 -1.91049882E+01  0.00000000E+00
  9.55249411E+00  9.55249411E+00 -1.91049882E+01  0.00000000E+00  9.55249411E+00
  9.55249411E+00 -1.91049882E+01  0.00000000E+00  9.55249411E+00  9.55249411E+00
 -1.91049882E+01  0.00000000E+00  9.55249411E+00  9.55249411E+00 -1.91049882E+01
  0.00000000E+00  9.55249411E+00  9.55249411E+00 -1.91049882E+01  0.00000000E+00
  9.55249411E+00  9.55249411E+00 -1.91049882E+01  0.00000000E+00  9.55249411E+00
  9.55249411E+00 -1.91049882E+01  0.00000000E+00  9.55249411E+00  9.55249411E+00
 -1.91049882E+01  0.00000000E+00  9.55249411E+00  9.55249411E+00 -1.91049882E+01
  0.00000000E+00  9.55249411E+00  9.55249411E+00 -1.91049882E+01  0.00000000E+00
  9.55249411E+00  9.55249411E+00 -1.91049882E+01  0.00000000E+00  9.55249411E+00
  9.55249411E+00 -1.91049882E+01  0.00000000E+00  9.55249411E+00  9.55249411E+00
 -1.91049882E+01  0.00000000E+00  9.55249411E+00  9.55249411E+00 -1.91049882E+01
  0.00000000E+00  9.55249411E+00  9.55249411E+00 -1.91049882E+01  0.00000000E+00
  9.55249411E+00  9.55249411E+00 -1.91049882E+01  0.00000000E+00  9.55249411E+00
  9.55249411E+00 -1.91049882E+01  0.00000000E+00  9.55249411E+00  9.55249411E+00
 -1.91049882E+01  0.00000000E+00  9.55249411E+00  9.55249411E+00 -1.91049882E+01
  0.00000000E+00  9.55249411E+00  9.55249411E+00 -1.91049882E+01  0.00000000E+00
  9.55249411E+00  9.55249411E+00 -1.91049882E+01  0.00000000E+00  9.55249411E+00
  9.55249411E+00 -1.91049882E+01  0.00000000E+00  9.55249411E+00  9.55249411E+00
 -1.91049882E+01  0.00000000E+00  9.55249411E+00  9.55249411E+00 -1.91049882E+01
  0.00000000E+00  9.55249411E+00  9.55249411E+00 -1.91049882E+01  0.00000000E+00
  9.55249411E+00  9.55249411E+00 -1.91049882E+01  0.00000000E+00  9.55249411E+00
  9.55249411E+00 -1.91049882E+01  0.00000000E+00  9.55249411E+00  9.55249411E+00
 -1.91049882E+01  0.00000000E+00  9.55249411E+00  9.55249411E+00 -1.91049882E+01
  0.00000000E+00  9.55249411E+00  9.55249411E+00 -1.91049882E+01  0.00000000E+00
  9.55249411E+00  9.55249411E+00 -1.91049882E+01  0.00000000E+00  9.55249411E+00
  9.55249411E+00 -1.91049882E+01  0.00000000E+00  9.55249411E+00  9.55249411E+00
 -1.91049882E+01  0.00000000E+00  9.55249411E+00  9.55249411E+00 -1.91049882E+01
  0.00000000E+00  9.55249411E+00  9.55249411E+00 -1.91049882E+01  0.00000000E+00
  9.55249411E+00  9.55249411E+00 -1.91049882E+01  0.00000000E+00  9.55249411E+00
  9.55249411E+00 -1.91049882E+01  0.00000000E+00  9.55249411E+00  9.55249411E+00
 -1.91049882E+01  0.00000000E+00  9.55249411E+00  9.55249411E+00 -1.91049882E+01
  0.00000000E+00  9.55249411E+00  9.55249411E+00 -1.91049882E+01  0.00000000E+00
  9.55249411E+00  9.55249411E+00 -1.91049882E+01  0.00000000E+00  9.55249411E+00
  9.55249411E+00 -1.91049882E+01  0.00000000E+00  9.55249411E+00  9.55249411E+00
 -1.91049882E+01  0.00000000E+00  9.55249411E+00  9.55249411E+00 -1.91049882E+01
  0.00000000E+00  9.55249411E+00  9.55249411E+00 -1.91049882E+01  0.00000000E+00
  9.55249411E+00  9.55249411E+00 -1.91049882E+01  0.00000000E+00  9.55249411E+00
  9.55249411E+00 -1.91049882E+01  0.00000000E+00  9.55249411E+00  9.55249411E+00
 -1.91049882E+01  0.00000000E+00  9.55249411E+00  9.55249411E+00 -1.91049882E+01
  0.00000000E+00  9.55249411E+00  9.55249411E+00 -1.91049882E+01  0.00000000E+00
  9.55249411E+00  9.55249411E+00 -1.91049882E+01  0.00000000E+00  9.55249411E+00
  9.55249411E+00 -1.91049882E+01  0.00000000E+00  9.55249411E+00  9.55249411E+00
 -1.91049882E+01  0.00000000E+00  9.55249411E+00  9.55249411E+00 -1.91049882E+01
  0.00000000E+00  9.55249411E+00  9.55249411E+00 -1.91049882E+01  0.00000000E+00
  9.55249411E+00  9.55249411E+00 -1.91049882E+01  0.00000000E+00  9.55249411E+00
  9.55249411E+00 -1.91049882E+01  0.00000000E+00  9.55249411E+00  9.55249411E+00
 -1.91049882E+01  0.00000000E+00  9.55249411E+00  9.55249411E+00 -1.91049882E+01
  0.00000000E+00  9.55249411E+00  9.55249411E+00 -1.91049882E+01  0.00000000E+00
  9.55249411E+00  9.55249411E+00 -1.91049882E+01  0.00000000E+00  9.55249411E+00
  9.55249411E+00 -1.91049882E+01  0.00000000E+00  9.55249411E+00  9.55249411E+00
 -1.91049882E+01  0.00000000E+00  9.55249411E+00  9.55249411E+00 -1.91049882E+01
  0.00000000E+00  9.55249411E+00  9.55249411E+00 -1.91049882E+01  0.00000000E+00
  9.55249411E+00  9.55249411E+00 -1.91049882E+01  0.00000000E+00  9.55249411E+00
  9.55249411E+00 -1.91049882E+01  0.00000000E+00  9.55249411E+00  9.55249411E+00
 -1.91049882E+01  0.00000000E+00  9.55249411E+00  9.55249411E+00 -1.91049882E+01
  0.00000000E+00  9.55249411E+00  9.55249411E+00 -1.91049882E+01  0.00000000E+00
  9.55249411E+00  9.55249411E+00 -1.91049882E+01  0.00000000E+00  9.55249411E+00
  9.55249411E+00 -1.91049882E+01  0.00000000E+00  9.55249411E+00  9.55249411E+00
 -1.91049882E+01  0.00000000E+00  9.55249411E+00  9.55249411E+00 -1.91049882E+01
  0.00000000E+00  9.55249411E+00  9.55249411E+00 -1.91049882E+01  0.00000000E+00
  9.55249411E+00  9.55249411E+00 -1.91049882E+01  0.00000000E+00  9.55249411E+00
  9.55249411E+00 -1.91049882E+01  0.00000000E+00  9.55249411E+00  9.55249411E+00
 -1.91049882E+01  0.00000000E+00  9.55249411E+00  9.55249411E+00 -1.91049882E+01
  0.00000000E+00  9.55249411E+00  9.55249411E+00 -1.91049882E+01  0.00000000E+00
  9.55249411E+00  9.55249411E+00 -1.91049882E+01  0.00000000E+00  9.55249411E+00
  9.55249411E+00 -1.91049882E+01  0.00000000E+00  9.55249411E+00  9.55249411E+00
 -1.91049882E+01  0.00000000E+00  9.55249411E+00  9.55249411E+00 -1.91049882E+01
  0.00000000E+00  9.55249411E+00  9.55249411E+00 -1.91049882E+01  0.00000000E+00
  9.55249411E+00  9.55249411E+00 -1.91049882E+01  0.00000000E+00  9.55249411E+00
  9.55249411E+00 -1.91049882E+01  0.00000000E+00  9.55249411E+00  9.55249411E+00
 -1.91049882E+01  0.00000000E+00  9.55249411E+00  9.55249411E+00 -1.91049882E+01
  0.00000000E+00  9.55249411E+00  9.55249411E+00 -1.91049882E+01  0.00000000E+00
  9.55249411E+00  9.55249411E+00 -1.91049882E+01  0.00000000E+00  9.55249411E+00
  9.55249411E+00 -1.91049882E+01  0.00000000E+00  9.55249411E+00  9.55249411E+00
 -1.91049882E+01  0.00000000E+00  9.55249411E+00  9.55249411E+00 -1.91049882E+01
  0.00000000E+00  9.55249411E+00  9.55249411E+00 -1.91049882E+01  0.00000000E+00
  9.55249411E+00  9.55249411E+00 -1.91049882E+01  0.00000000E+00  9.55249411E+00
  9.55249411E+00 -1.91049882E+01  0.00000000E+00  9.55249411E+00  9.55249411E+00
 -1.91049882E+01  0.00000000E+00  9.55249411E+00  9.55249411E+00 -1.91049882E+01
  0.00000000E+00  9.55249411E+00  9.55249411E+00 -1.91049882E+01  0.00000000E+00
  9.55249411E+00  9.55249411E+00 -1.91049882E+01  0.00000000E+00  9.55249411E+00
  9.55249411E+00 -1.91049882E+01  0.00000000E+00  9.55249411E+00  9.55249411E+00
 -1.91049882E+01  0.00000000E+00  9.55249411E+00  9.55249411E+00 -1.91049882E+01
  0.00000000E+00  9.55249411E+00  9.55249411E+00 -1.91049882E+01  0.00000000E+00
  9.55249411E+00  9.55249411E+00 -1.91049882E+01  0.00000000E+00  9.55249411E+00
  9.55249411E+00 -1.91049882E+01  0.00000000E+00  9.55249411E+00  9.55249411E+00
 -1.91049882E+01  0.00000000E+00  9.55249411E+00  9.55249411E+00 -1.91049882E+01
  0.00000000E+00  9.55249411E+00  9.55249411E+00 -1.91049882E+01  0.00000000E+00
  9.55249411E+00  9.55249411E+00 -1.91049882E+01  0.00000000E+00  9.55249411E+00
  9.55249411E+00 -1.91049882E+01  0.00000000E+00  9.55249411E+00  9.55249411E+00
 -1.91049882E+01  0.00000000E+00  9.55249411E+00  9.55249411E+00 -1.91049882E+01
  0.00000000E+00  9.55249411E+00  9.55249411E+00 -1.91049882E+01  0.00000000E+00
  9.55249411E+00  9.55249411E+00 -1.91049882E+01  0.00000000E+00  9.55249411E+00
  9.55249411E+00 -1.91049882E+01  0.00000000E+00  9.55249411E+00  9.55249411E+00
 -1.91049882E+01  0.00000000E+00  9.55249411E+00  9.55249411E+00 -1.91049882E+01
  0.00000000E+00  9.55249411E+00  9.55249411E+00 -1.91049882E+01  0.00000000E+00
  9.55249411E+00  9.55249411E+00 -1.91049882E+01  0.00000000E+00  9.55249411E+00
  9.55249411E+00 -1.91049882E+01  0.00000000E+00  9.55249411E+00  9.55249411E+00
 -1.91049882E+01  0.00000000E+00  9.55249411E+00  9.55249411E+00 -1.91049882E+01
  0.00000000E+00  9.55249411E+00  9.55249411E+00 -1.91049882E+01  0.00000000E+00
  9.55249411E+00  9.55249411E+00 -1.91049882E+01  0.00000000E+00  9.55249411E+00
  9.55249411E+00 -1.91049882E+01  0.00000000E+00  9.55249411E+00  9.55249411E+00
 -1.91049882E+01  0.00000000E+00  9.55249411E+00  9.55249411E+00 -1.91049882E+01
  0.00000000E+00  9.55249411E+00  9.55249411E+00 -1.91049882E+01  0.00000000E+00
  9.55249411E+00  9.55249411E+00 -1.91049882E+01  0.00000000E+00  9.55249411E+00
  9.55249411E+00 -1.91049882E+01  0.00000000E+00  9.55249411E+00  9.55249411E+00
 -1.91049882E+01  0.00000000E+00  9.55249411E+00  9.55249411E+00 -1.91049882E+01
  0.00000000E+00  9.55249411E+00  9.55249411E+00 -1.91049882E+01  0.00000000E+00
  9.55249411E+00  9.55249411E+00 -1.91049882E+01  0.00000000E+00  9.55249411E+00
  9.55249411E+00 -1.91049882E+01  0.00000000E+00  9.55249411E+00  9.55249411E+00
 -1.91049882E+01  0.00000000E+00  9.55249411E+00  9.55249411E+00 -1.91049882E+01
  0.00000000E+00  9.55249411E+00  9.55249411E+00 -1.91049882E+01  0.00000000E+00
  9.55249411E+00  9.55249411E+00 -1.91049882E+01  0.00000000E+00  9.55249411E+00
  9.55249411E+00 -1.91049882E+01  0.00000000E+00  9.55249411E+00  9.55249411E+00
 -1.91049882E+01  0.00000000E+00  9.55249411E+00  9.55249411E+00 -1.91049882E+01
  0.00000000E+00  9.55249411E+00  9.55249411E+00 -1.91049882E+01  0.00000000E+00
  9.55249411E+00  9.55249411E+00 -1.91049882E+01  0.00000000E+00  9.55249411E+00
  9.55249411E+00 -1.91049882E+01  0.00000000E+00  9.55249411E+00  9.55249411E+00
 -1.91049882E+01  0.00000000E+00  9.55249411E+00  9.55249411E+00 -1.91049882E+01
  0.00000000E+00  9.55249411E+00  9.55249411E+00 -1.91049882E+01  0.00000000E+00
  9.55249411E+00  9.55249411E+00 -1.91049882E+01  0.00000000E+00  9.55249411E+00
  9.55249411E+00 -1.91049882E+01  0.00000000E+00  9.55249411E+00  9.55249411E+00
 -1.91049882E+01  0.00000000E+00  9.55249411E+00  9.55249411E+00 -1.91049882E+01
  0.00000000E+00  9.55249411E+00  9.55249411E+00 -1.91049882E+01  0.00000000E+00
  9.55249411E+00  9.55249411E+00 -1.91049882E+01  0.00000000E+00  9.55249411E+00
  9.55249411E+00 -1.91049882E+01  0.00000000E+00  9.55249411E+00  9.55249411E+00
 -1.91049882E+01  0.00000000E+00  9.55249411E+00  9.55249411E+00 -1.91049882E+01
  0.00000000E+00  9.55249411E+00  9.55249411E+00 -1.91049882E+01  0.00000000E+00
  9.55249411E+00  9.55249411E+00 -1.91049882E+01  0.00000000E+00  9.55249411E+00
  9.55249411E+00 -1.91049882E+01  0.00000000E+00  9.55249411E+00  9.55249411E+00
 -1.91049882E+01  0.00000000E+00  9.55249411E+00  9.55249411E+00 -1.91049882E+01
  0.00000000E+00  9.55249411E+00  9.55249411E+00 -1.91049882E+01  0.00000000E+00
  9.55249411E+00  9.55249411E+00 -1.91049882E+01  0.00000000E+00  9.55249411E+00
  9.55249411E+00 -1.91049882E+01  0.00000000E+00  9.55249411E+00  9.55249411E+00
 -1.91049882E+01  0.00000000E+00  9.55249411E+00  9.55249411E+00 -1.91049882E+01
  0.00000000E+00  9.55249411E+00  9.55249411E+00 -1.91049882E+01  0.00000000E+00
  9.55249411E+00  9.55249411E+00 -1.91049882E+01  0.00000000E+00  9.55249411E+00
  9.55249411E+00 -1.91049882E+01  0.00000000E+00  9.55249411E+00  9.55249411E+00
 -1.91049882E+01  0.00000000E+00  9.55249411E+00  9.55249411E+00 -1.91049882E+01
  0.00000000E+00  9.55249411E+00  9.55249411E+00 -1.91049882E+01  0.00000000E+00
  9.55249411E+00  9.55249411E+00 -1.91049882E+01  0.00000000E+00  9.55249411E+00
  9.55249411E+00 -1.91049882E+01  0.00000000E+00  9.55249411E+00  9.55249411E+00
 -1.91049882E+01  0.00000000E+00  9.55249411E+00  9.55249411E+00 -1.91049882E+01
  0.00000000E+00  9.55249411E+00  9.55249411E+00 -1.91049882E+01  0.00000000E+00
  9.55249411E+00  9.55249411E+00 -1.91049882E+01  0.00000000E+00  9.55249411E+00
  9.55249411E+00 -1.91049882E+01  0.00000000E+00  9.55249411E+00  9.55249411E+00
 -1.91049882E+01  0.00000000E+00  9.55249411E+00  9.55249411E+00 -1.91049882E+01
  0.00000000E+00  9.55249411E+00  9.55249411E+00 -1.91049882E+01  0.00000000E+00
  9.55249411E+00  9.55249411E+00 -1.91049882E+01  0.00000000E+00  9.55249411E+00
  9.55249411E+00 -1.91049882E+01  0.00000000E+00  9.55249411E+00  9.55249411E+00
 -1.91049882E+01  0.00000000E+00  9.55249411E+00  9.55249411E+00 -1.91049882E+01
  0.00000000E+00  9.55249411E+00  9.55249411E+00 -1.91049882E+01  0.00000000E+00
  9.55249411E+00  9.55249411E+00 -1.91049882E+01  0.00000000E+00  9.55249411E+00
  9.55249411E+00 -1.91049882E+01  0.00000000E+00  9.55249411E+00  9.55249411E+00
 -1.91049882E+01  0.00000000E+00  9.55249411E+00  9.55249411E+00 -1.91049882E+01
  0.00000000E+00  9.55249411E+00  9.55249411E+00 -1.91049882E+01  0.00000000E+00
  9.55249411E+00  9.55249411E+00 -1.91049882E+01  0.00000000E+00  9.55249411E+00
  9.55249411E+00 -1.91049882E+01  0.00000000E+00  9.55249411E+00  9.55249411E+00
 -1.91049882E+01  0.00000000E+00  9.55249411E+00  9.55249411E+00 -1.91049882E+01
  0.00000000E+00  9.55249411E+00  9.55249411E+00 -1.91049882E+01  0.00000000E+00
  9.55249411E+00  9.55249411E+00 -1.91049882E+01  0.00000000E+00  9.55249411E+00
  9.55249411E+00 -1.91049882E+01  0.00000000E+00  9.55249411E+00  9.55249411E+00
 -1.91049882E+01  0.00000000E+00  9.55249411E+00  9.55249411E+00 -1.91049882E+01
  0.00000000E+00  9.55249411E+00  9.55249411E+00 -1.91049882E+01  0.00000000E+00
  9.55249411E+00  9.55249411E+00 -1.91049882E+01  0.00000000E+00  9.55249411E+00
  9.55249411E+00 -1.91049882E+01  0.00000000E+00  9.55249411E+00  9.55249411E+00
 -1.91049882E+01  0.00000000E+00  9.55249411E+00  9.55249411E+00 -1.91049882E+01
  0.00000000E+00  9.55249411E+00  9.55249411E+00 -1.91049882E+01  0.00000000E+00
  9.55249411E+00  9.55249411E+00 -1.91049882E+01  0.00000000E+00  9.55249411E+00
  9.55249411E+00 -1.91049882E+01  0.00000000E+00  9.55249411E+00  9.55249411E+00
 -1.91049882E+01  0.00000000E+00  9.55249411E+00  9.55249411E+00 -1.91049882E+01
  0.00000000E+00  9.55249411E+00  9.55249411E+00 -1.91049882E+01  0.00000000E+00
  9.55249411E+00  9.55249411E+00 -1.91049882E+01  0.00000000E+00  9.55249411E+00
  9.55249411E+00 -1.91049882E+01  0.00000000E+00  9.55249411E+00  9.55249411E+00
 -1.91049882E+01  0.00000000E+00  9.55249411E+00  9.55249411E+00 -1.91049882E+01
  0.00000000E+00  9.55249411E+00  9.55249411E+00 -1.91049882E+01  0.00000000E+00
  9.55249411E+00  9.55249411E+00 -1.91049882E+01  0.00000000E+00  9.55249411E+00
  9.55249411E+00 -1.91049882E+01  0.00000000E+00  9.55249411E+00  9.55249411E+00
 -1.91049882E+01  0.00000000E+00  9.55249411E+00  9.55249411E+00 -1.91049882E+01
  0.00000000E+00  9.55249411E+00  9.55249411E+00 -1.91049882E+01  0.00000000E+00
  9.55249411E+00  9.55249411E+00 -1.91049882E+01  0.00000000E+00  9.55249411E+00
  9.55249411E+00 -1.91049882E+01  0.00000000E+00  9.55249411E+00  9.55249411E+00
 -1.91049882E+01  0.00000000E+00  9.55249411E+00  9.55249411E+00 -1.91049882E+01
  0.00000000E+00  9.55249411E+00  9.55249411E+00 -1.91049882E+01  0.00000000E+00
  9.55249411E+00  9.55249411E+00 -1.91049882E+01  0.00000000E+00  9.55249411E+00
  9.55249411E+00 -1.91049882E+01  0.00000000E+00  9.55249411E+00  9.55249411E+00
 -1.91049882E+01  0.00000000E+00  9.55249411E+00  9.55249411E+00 -1.91049882E+01
  0.00000000E+00  9.55249411E+00  9.55249411E+00 -1.91049882E+01  0.00000000E+00
  9.55249411E+00  9.55249411E+00 -1.91049882E+01  0.00000000E+00  9.55249411E+00
  9.55249411E+00 -1.91049882E+01  0.00000000E+00  9.55249411E+00  9.55249411E+00
 -1.91049882E+01  0.00000000E+00  9.55249411E+00  9.55249411E+00 -1.91049882E+01
  0.00000000E+00  9.55249411E+00  9.55249411E+00 -1.91049882E+01  0.00000000E+00
  9.55249411E+00  9.55249411E+00 -1.91049882E+01  0.00000000E+00  9.55249411E+00
  9.55249411E+00 -1.91049882E+01  0.00000000E+00  9.55249411E+00  9.55249411E+00
 -1.91049882E+01  0.00000000E+00  9.55249411E+00  9.55249411E+00 -1.91049882E+01
  0.00000000E+00  9.55249411E+00  9.55249411E+00 -1.91049882E+01  0.00000000E+00
  9.55249411E+00  9.55249411E+00 -1.91049882E+01  0.00000000E+00  9.55249411E+00
  9.55249411E+00 -1.91049882E+01  0.00000000E+00  9.55249411E+00  9.55249411E+00
 -1.91049882E+01  0.00000000E+00  9.55249411E+00  9.55249411E+00 -1.91049882E+01
  0.00000000E+00  9.55249411E+00  9.55249411E+00 -1.91049882E+01  0.00000000E+00
  9.55249411E+00  9.55249411E+00 -1.91049882E+01  0.00000000E+00  9.55249411E+00
  9.55249411E+00 -1.91049882E+01  0.00000000E+00  9.55249411E+00  9.55249411E+00
 -1.91049882E+01  0.00000000E+00  9.55249411E+00  9.55249411E+00 -1.91049882E+01
  0.00000000E+00  9.55249411E+00  9.55249411E+00 -1.91049882E+01  0.00000000E+00
  9.55249411E+00  9.55249411E+00 -1.91049882E+01  0.00000000E+00  9.55249411E+00
  9.55249411E+00 -1.91049882E+01  0.00000000E+00  9.55249411E+00  9.55249411E+00
 -1.91049882E+01  0.00000000E+00  9.55249411E+00  9.55249411E+00 -1.91049882E+01
  0.00000000E+00  9.55249411E+00  9.55249411E+00 -1.91049882E+01  0.00000000E+00
  9.55249411E+00  9.55249411E+00 -1.91049882E+01  0.00000000E+00  9.55249411E+00
  9.55249411E+00 -1.91049882E+01  0.00000000E+00  9.55249411E+00  9.55249411E+00
 -1.91049882E+01  0.00000000E+00  9.55249411E+00  9.55249411E+00 -1.91049882E+01
  0.00000000E+00  9.55249411E+00  9.55249411E+00 -1.91049882E+01  0.00000000E+00
  9.55249411E+00  9.55249411E+00 -1.91049882E+01  0.00000000E+00  9.55249411E+00
  9.55249411E+00 -1.91049882E+01  0.00000000E+00  9.55249411E+00  9.55249411E+00
 -1.91049882E+01  0.00000000E+00  9.55249411E+00  9.55249411E+00 -1.91049882E+01
  0.00000000E+00  9.55249411E+00  9.55249411E+00 -1.91049882E+01  0.00000000E+00
  9.55249411E+00  9.55249411E+00 -1.91049882E+01  0.00000000E+00  9.55249411E+00
  9.55249411E+00 -1.91049882E+01  0.00000000E+00  9.55249411E+00  9.55249411E+00
 -1.91049882E+01  0.00000000E+00  9.55249411E+00  9.55249411E+00 -1.91049882E+01
  0.00000000E+00  9.55249411E+00  9.55249411E+00 -1.91049882E+01  0.00000000E+00
  9.55249411E+00  9.55249411E+00 -1.91049882E+01  0.00000000E+00  9.55249411E+00
  9.55249411E+00 -1.91049882E+01  0.00000000E+00  9.55249411E+00  9.55249411E+00
 -1.91049882E+01  0.00000000E+00  9.55249411E+00  9.55249411E+00 -1.91049882E+01
  0.00000000E+00  9.55249411E+00  9.55249411E+00 -1.91049882E+01  0.00000000E+00
  9.55249411E+00  9.55249411E+00 -1.91049882E+01  0.00000000E+00  9.55249411E+00
  9.55249411E+00 -1.91049882E+01  0.00000000E+00  9.55249411E+00  9.55249411E+00
 -1.91049882E+01  0.00000000E+00  9.55249411E+00  9.55249411E+00 -1.91049882E+01
  0.00000000E+00  9.55249411E+00  9.55249411E+00 -1.91049882E+01  0.00000000E+00
  9.55249411E+00  9.55249411E+00 -1.91049882E+01  0.00000000E+00  9.55249411E+00
  9.55249411E+00 -1.91049882E+01  0.00000000E+00  9.55249411E+00  9.55249411E+00
 -1.91049882E+01  0.00000000E+00  9.55249411E+00  9.55249411E+00 -1.91049882E+01
  0.00000000E+00  9.55249411E+00  9.55249411E+00 -1.91049882E+01  0.00000000E+00
  9.55249411E+00  9.55249411E+00 -1.91049882E+01  0.00000000E+00  9.55249411E+00
  9.55249411E+00 -1.91049882E+01  0.00000000E+00  9.55249411E+00  9.55249411E+00
 -1.91049882E+01  0.00000000E+00  9.55249411E+00  9.55249411E+00 -1.91049882E+01
  0.00000000E+00  9.55249411E+00  9.55249411E+00 -1.91049882E+01  0.00000000E+00
  9.55249411E+00  9.55249411E+00 -1.91049882E+01  0.00000000E+00  9.55249411E+00
  9.55249411E+00 -1.91049882E+01  0.00000000E+00  9.55249411E+00  9.55249411E+00
 -1.91049882E+01  0.00000000E+00  9.55249411E+00  9.55249411E+00 -1.91049882E+01
  0.00000000E+00  9.55249411E+00  9.55249411E+00 -1.91049882E+01  0.00000000E+00
  9.55249411E+00  9.55249411E+00 -1.91049882E+01  0.00000000E+00  9.55249411E+00
  9.55249411E+00 -1.91049882E+01  0.00000000E+00  9.55249411E+00  9.55249411E+00
 -1.91049882E+01  0.00000000E+00  9.55249411E+00  9.55249411E+00 -1.91049882E+01
  0.00000000E+00  9.55249411E+00  9.55249411E+00 -1.91049882E+01  0.00000000E+00
  9.55249411E+00  9.55249411E+00 -1.91049882E+01  0.00000000E+00  9.55249411E+00
  9.55249411E+00 -1.91049882E+01  0.00000000E+00  9.55249411E+00  9.55249411E+00
 -1.91049882E+01  0.00000000E+00  9.55249411E+00  9.55249411E+00 -1.91049882E+01
  0.00000000E+00  9.55249411E+00  9.55249411E+00 -1.91049882E+01  0.00000000E+00
  9.55249411E+00  9.55249411E+00 -1.91049882E+01  0.00000000E+00  9.55249411E+00
  9.55249411E+00 -1.91049882E+01  0.00000000E+00  9.55249411E+00  9.55249411E+00
 -1.91049882E+01  0.00000000E+00  9.55249411E+00  9.55249411E+00 -1.91049882E+01
  0.00000000E+00  9.55249411E+00  9.55249411E+00 -1.91049882E+01  0.00000000E+00
  9.55249411E+00  9.55249411E+00 -1.91049882E+01  0.00000000E+00  9.55249411E+00
  9.55249411E+00 -1.91049882E+01  0.00000000E+00  9.55249411E+00  9.55249411E+00
 -1.91049882E+01  0.00000000E+00  9.55249411E+00  9.55249411E+00 -1.91049882E+01
  0.00000000E+00  9.55249411E+00  9.55249411E+00 -1.91049882E+01  0.00000000E+00
  9.55249411E+00  9.55249411E+00 -1.91049882E+01  0.00000000E+00  9.55249411E+00
  9.55249411E+00 -1.91049882E+01  0.00000000E+00  9.55249411E+00  9.55249411E+00
 -1.91049882E+01  0.00000000E+00  9.55249411E+00  9.55249411E+00 -1.91049882E+01
  0.00000000E+00  9.55249411E+00  9.55249411E+00 -1.91049882E+01  0.00000000E+00
  9.55249411E+00  9.55249411E+00 -1.91049882E+01  0.00000000E+00  9.55249411E+00
  9.55249411E+00 -1.91049882E+01  0.00000000E+00  9.55249411E+00  9.55249411E+00
 -1.91049882E+01  0.00000000E+00  9.55249411E+00  9.55249411E+00 -1.91049882E+01
  0.00000000E+00  9.55249411E+00  9.55249411E+00 -1.91049882E+01  0.00000000E+00
  9.55249411E+00  9.55249411E+00 -1.91049882E+01  0.00000000E+00  9.55249411E+00
  9.55249411E+00 -1.91049882E+01  0.00000000E+00  9.55249411E+00  9.55249411E+00
 -1.91049882E+01  0.00000000E+00  9.55249411E+00  9.55249411E+00 -1.91049882E+01
  0.00000000E+00  9.55249411E+00  9.55249411E+00 -1.91049882E+01  0.00000000E+00
  9.55249411E+00  9.55249411E+00 -1.91049882E+01  0.00000000E+00  9.55249411E+00
  9.55249411E+00 -1.91049882E+01  0.00000000E+00  9.55249411E+00  9.55249411E+00
 -1.91049882E+01  0.00000000E+00  9.55249411E+00  9.55249411E+00 -1.91049882E+01
  0.00000000E+00  9.55249411E+00  9.55249411E+00 -1.91049882E+01  0.00000000E+00
  9.55249411E+00  9.55249411E+00 -1.91049882E+01  0.00000000E+00  9.55249411E+00
  9.55249411E+00 -1.91049882E+01  0.00000000E+00  9.55249411E+00  9.55249411E+00
 -1.91049882E+01  0.00000000E+00  9.55249411E+00  9.55249411E+00 -1.91049882E+01
  0.00000000E+00  9.55249411E+00  9.55249411E+00 -1.91049882E+01  0.00000000E+00
  9.55249411E+00  9.55249411E+00 -1.91049882E+01  0.00000000E+00  9.55249411E+00
  9.55249411E+00 -1.91049882E+01  0.00000000E+00  9.55249411E+00  9.55249411E+00
 -1.91049882E+01  0.00000000E+00  9.55249411E+00  9.55249411E+00 -1.91049882E+01
  0.00000000E+00  9.55249411E+00  9.55249411E+00 -1.91049882E+01  0.00000000E+00
  9.55249411E+00  9.55249411E+00 -1.91049882E+01  0.00000000E+00  9.55249411E+00
  9.55249411E+00 -1.91049882E+01  0.00000000E+00  9.55249411E+00  9.55249411E+00
 -1.91049882E+01  0.00000000E+00  9.55249411E+00  9.55249411E+00 -1.91049882E+01
  0.00000000E+00  9.55249411E+00  9.55249411E+00 -1.91049882E+01  0.00000000E+00
  9.55249411E+00  9.55249411E+00 -1.91049882E+01  0.00000000E+00  9.55249411E+00
  9.55249411E+00 -1.91049882E+01  0.00000000E+00  9.55249411E+00  9.55249411E+00
 -1.91049882E+01  0.00000000E+00  9.55249411E+00  9.55249411E+00 -1.91049882E+01
  0.00000000E+00  9.55249411E+00  9.55249411E+00 -1.91049882E+01  0.00000000E+00
  9.55249411E+00  9.55249411E+00 -1.91049882E+01  0.00000000E+00  9.55249411E+00
  9.55249411E+00 -1.91049882E+01  0.00000000E+00  9.55249411E+00  9.55249411E+00
 -1.91049882E+01  0.00000000E+00  9.55249411E+00  9.55249411E+00 -1.91049882E+01
  0.00000000E+00  9.55249411E+00  9.55249411E+00 -1.91049882E+01  0.00000000E+00
  9.55249411E+00  9.55249411E+00 -1.91049882E+01  0.00000000E+00  9.55249411E+00
  9.55249411E+00 -1.91049882E+01  0.00000000E+00  9.55249411E+00  9.55249411E+00
 -1.91049882E+01  0.00000000E+00  9.55249411E+00  9.55249411E+00 -1.91049882E+01
  0.00000000E+00  9.55249411E+00  9.55249411E+00 -1.91049882E+01  0.00000000E+00
  9.55249411E+00  9.55249411E+00 -1.91049882E+01  0.00000000E+00  9.55249411E+00
  9.55249411E+00 -1.91049882E+01  0.00000000E+00  9.55249411E+00  9.55249411E+00
 -1.91049882E+01  0.00000000E+00  9.55249411E+00  9.55249411E+00 -1.91049882E+01
  0.00000000E+00  9.55249411E+00  9.55249411E+00 -1.91049882E+01  0.00000000E+00
  9.55249411E+00  9.55249411E+00 -1.91049882E+01  0.00000000E+00  9.55249411E+00
  9.55249411E+00 -1.91049882E+01  0.00000000E+00  9.55249411E+00  9.55249411E+00
 -1.91049882E+01  0.00000000E+00  9.55249411E+00  9.55249411E+00 -1.91049882E+01
  0.00000000E+00  9.55249411E+00  9.55249411E+00 -1.91049882E+01  0.00000000E+00
  9.55249411E+00  9.55249411E+00 -1.91049882E+01  0.00000000E+00  9.55249411E+00
  9.55249411E+00 -1.91049882E+01  0.00000000E+00  9.55249411E+00  9.55249411E+00
 -1.91049882E+01  0.00000000E+00  9.55249411E+00  9.55249411E+00 -1.91049882E+01
  0.00000000E+00  9.55249411E+00  9.55249411E+00 -1.91049882E+01  0.00000000E+00
  9.55249411E+00  9.55249411E+00 -1.91049882E+01  0.00000000E+00  9.55249411E+00
  9.55249411E+00 -1.91049882E+01  0.00000000E+00  9.55249411E+00  9.55249411E+00
 -1.91049882E+01  0.00000000E+00  9.55249411E+00  9.55249411E+00 -1.91049882E+01
  0.00000000E+00  9.55249411E+00  9.55249411E+00 -1.91049882E+01  0.00000000E+00
  9.55249411E+00  9.55249411E+00 -1.91049882E+01  0.00000000E+00  9.55249411E+00
  9.55249411E+00 -1.91049882E+01  0.00000000E+00  9.55249411E+00  9.55249411E+00
 -1.91049882E+01  0.00000000E+00  9.55249411E+00  9.55249411E+00 -1.91049882E+01
  0.00000000E+00  9.55249411E+00  9.55249411E+00 -1.91049882E+01  0.00000000E+00
  9.55249411E+00  9.55249411E+00 -1.91049882E+01  0.00000000E+00  9.55249411E+00
  9.55249411E+00 -1.91049882E+01  0.00000000E+00  9.55249411E+00  9.55249411E+00
 -1.91049882E+01  0.00000000E+00  9.55249411E+00  9.55249411E+00 -1.91049882E+01
  0.00000000E+00  9.55249411E+00  9.55249411E+00 -1.91049882E+01  0.00000000E+00
  9.55249411E+00  9.55249411E+00 -1.91049882E+01  0.00000000E+00  9.55249411E+00
  9.55249411E+00 -1.91049882E+01  0.00000000E+00  9.55249411E+00  9.55249411E+00
 -1.91049882E+01  0.00000000E+00  9.55249411E+00  9.55249411E+00 -1.91049882E+01
  0.00000000E+00  9.55249411E+00  9.55249411E+00 -1.91049882E+01  0.00000000E+00
  9.55249411E+00  9.55249411E+00 -1.91049882E+01  0.00000000E+00  9.55249411E+00
  9.55249411E+00 -1.91049882E+01  0.00000000E+00  9.55249411E+00  9.55249411E+00
 -1.91049882E+01  0.00000000E+00  9.55249411E+00  9.55249411E+00 -1.91049882E+01
  0.00000000E+00  9.55249411E+00  9.55249411E+00 -1.91049882E+01  0.00000000E+00
  9.55249411E+00  9.55249411E+00 -1.91049882E+01  0.00000000E+00  9.55249411E+00
  9.55249411E+00 -1.91049882E+01  0.00000000E+00  9.55249411E+00  9.55249411E+00
 -1.91049882E+01  0.00000000E+00  9.55249411E+00  9.55249411E+00 -1.91049882E+01
  0.00000000E+00  9.55249411E+00  9.55249411E+00 -1.91049882E+01  0.00000000E+00
  9.55249411E+00  9.55249411E+00 -1.91049882E+01  0.00000000E+00  9.55249411E+00
  9.55249411E+00 -1.91049882E+01  0.00000000E+00  9.55249411E+00  9.55249411E+00
 -1.91049882E+01  0.00000000E+00  9.55249411E+00  9.55249411E+00 -1.91049882E+01
  0.00000000E+00  9.55249411E+00  9.55249411E+00 -1.91049882E+01  0.00000000E+00
  9.55249411E+00  9.55249411E+00 -1.91049882E+01  0.00000000E+00  9.55249411E+00
  9.55249411E+00 -1.91049882E+01  0.00000000E+00  9.55249411E+00  9.55249411E+00
 -1.91049882E+01  0.00000000E+00  9.55249411E+00  9.55249411E+00 -1.91049882E+01
  0.00000000E+00  9.55249411E+00  9.55249411E+00 -1.91049882E+01  0.00000000E+00
  9.55249411E+00  9.55249411E+00 -1.91049882E+01  0.00000000E+00  9.55249411E+00
  9.55249411E+00 -1.91049882E+01  0.00000000E+00  9.55249411E+00  9.55249411E+00
 -1.91049882E+01  0.00000000E+00  9.55249411E+00  9.55249411E+00 -1.91049882E+01
  0.00000000E+00  9.55249411E+00  9.55249411E+00 -1.91049882E+01  0.00000000E+00
  9.55249411E+00  9.55249411E+00 -1.91049882E+01  0.00000000E+00  9.55249411E+00
  9.55249411E+00 -1.91049882E+01  0.00000000E+00  9.55249411E+00  9.55249411E+00
 -1.91049882E+01  0.00000000E+00  9.55249411E+00  9.55249411E+00 -1.91049882E+01
  0.00000000E+00  9.55249411E+00  9.55249411E+00 -1.91049882E+01  0.00000000E+00
  9.55249411E+00  9.55249411E+00 -1.91049882E+01  0.00000000E+00  9.55249411E+00
  9.55249411E+00 -1.91049882E+01  0.00000000E+00  9.55249411E+00  9.55249411E+00
 -1.91049882E+01  0.00000000E+00  9.55249411E+00  9.55249411E+00 -1.91049882E+01
  0.00000000E+00  9.55249411E+00  9.55249411E+00 -1.91049882E+01  0.00000000E+00
  9.55249411E+00  9.55249411E+00 -1.91049882E+01  0.00000000E+00  9.55249411E+00
  9.55249411E+00 -1.91049882E+01  0.00000000E+00  9.55249411E+00  9.55249411E+00
 -1.91049882E+01  0.00000000E+00  9.55249411E+00  9.55249411E+00 -1.91049882E+01
  0.00000000E+00  9.55249411E+00  9.55249411E+00 -1.91049882E+01  0.00000000E+00
  9.55249411E+00  9.55249411E+00 -1.91049882E+01  0.00000000E+00  9.55249411E+00
  9.55249411E+00 -1.91049882E+01  0.00000000E+00  9.55249411E+00  9.55249411E+00
 -1.91049882E+01  0.00000000E+00  9.55249411E+00  9.55249411E+00 -1.91049882E+01
  0.00000000E+00  9.55249411E+00  9.55249411E+00 -1.91049882E+01  0.00000000E+00
  9.55249411E+00  9.55249411E+00 -1.91049882E+01  0.00000000E+00  9.55249411E+00
  9.55249411E+00 -1.91049882E+01  0.00000000E+00  9.55249411E+00  9.55249411E+00
 -1.91049882E+01  0.00000000E+00  9.55249411E+00  9.55249411E+00 -1.91049882E+01
  0.00000000E+00  9.55249411E+00  9.55249411E+00 -1.91049882E+01  0.00000000E+00
  9.55249411E+00  9.55249411E+00 -1.91049882E+01  0.00000000E+00  9.55249411E+00
  9.55249411E+00 -1.91049882E+01  0.00000000E+00  9.55249411E+00  9.55249411E+00
 -1.91049882E+01  0.00000000E+00  9.55249411E+00  9.55249411E+00 -1.91049882E+01
  0.00000000E+00  9.55249411E+00  9.55249411E+00 -1.91049882E+01  0.00000000E+00
  9.55249411E+00  9.55249411E+00 -1.91049882E+01  0.00000000E+00  9.55249411E+00
  9.55249411E+00 -1.91049882E+01  0.00000000E+00  9.55249411E+00  9.55249411E+00
 -1.91049882E+01  0.00000000E+00  9.55249411E+00  9.55249411E+00 -1.91049882E+01
  0.00000000E+00  9.55249411E+00  9.55249411E+00 -1.91049882E+01  0.00000000E+00
  9.55249411E+00  9.55249411E+00 -1.91049882E+01  0.00000000E+00  9.55249411E+00
  9.55249411E+00 -1.91049882E+01  0.00000000E+00  9.55249411E+00  9.55249411E+00
 -1.91049882E+01  0.00000000E+00  9.55249411E+00  9.55249411E+00 -1.91049882E+01
  0.00000000E+00  9.55249411E+00  9.55249411E+00 -1.91049882E+01  0.00000000E+00
  9.55249411E+00  9.55249411E+00 -1.91049882E+01  0.00000000E+00  9.55249411E+00
  9.55249411E+00 -1.91049882E+01  0.00000000E+00  9.55249411E+00  9.55249411E+00
 -1.91049882E+01  0.00000000E+00  9.55249411E+00  9.55249411E+00 -1.91049882E+01
  0.00000000E+00  9.55249411E+00  9.55249411E+00 -1.91049882E+01  0.00000000E+00
  9.55249411E+00  9.55249411E+00 -1.91049882E+01  0.00000000E+00  9.55249411E+00
  9.55249411E+00 -1.91049882E+01  0.00000000E+00  9.55249411E+00  9.55249411E+00
 -1.91049882E+01  0.00000000E+00  9.55249411E+00  9.55249411E+00 -1.91049882E+01
  0.00000000E+00  9.55249411E+00  9.55249411E+00 -1.91049882E+01  0.00000000E+00
  9.55249411E+00  9.55249411E+00 -1.91049882E+01  0.00000000E+00  9.55249411E+00
  9.55249411E+00 -1.91049882E+01  0.00000000E+00  9.55249411E+00  9.55249411E+00
 -1.91049882E+01  0.00000000E+00  9.55249411E+00  9.55249411E+00 -1.91049882E+01
  0.00000000E+00  9.55249411E+00  9.55249411E+00 -1.91049882E+01  0.00000000E+00
  9.55249411E+00  9.55249411E+00 -1.91049882E+01  0.00000000E+00  9.55249411E+00
  9.55249411E+00 -1.91049882E+01  0.00000000E+00  9.55249411E+00  9.55249411E+00
 -1.91049882E+01  0.00000000E+00  9.55249411E+00  9.55249411E+00 -1.91049882E+01
  0.00000000E+00  9.55249411E+00  9.55249411E+00 -1.91049882E+01  0.00000000E+00
  9.55249411E+00  9.55249411E+00 -1.91049882E+01  0.00000000E+00  9.55249411E+00
  9.55249411E+00 -1.91049882E+01  0.00000000E+00  9.55249411E+00  9.55249411E+00
 -1.91049882E+01  0.00000000E+00  9.55249411E+00  9.55249411E+00 -1.91049882E+01
  0.00000000E+00  9.55249411E+00  9.55249411E+00 -1.91049882E+01  0.00000000E+00
  9.55249411E+00  9.55249411E+00 -1.91049882E+01  0.00000000E+00  9.55249411E+00
  9.55249411E+00 -1.91049882E+01  0.00000000E+00  9.55249411E+00  9.55249411E+00
 -1.91049882E+01  0.00000000E+00  9.55249411E+00  9.55249411E+00 -1.91049882E+01
  0.00000000E+00  9.55249411E+00  9.55249411E+00 -1.91049882E+01  0.00000000E+00
  9.55249411E+00  9.55249411E+00 -1.91049882E+01  0.00000000E+00  9.55249411E+00
  9.55249411E+00 -1.91049882E+01  0.00000000E+00  9.55249411E+00  9.55249411E+00
 -1.91049882E+01  0.00000000E+00  9.55249411E+00  9.55249411E+00 -1.91049882E+01
  0.00000000E+00  9.55249411E+00  9.55249411E+00 -1.91049882E+01  0.00000000E+00
  9.55249411E+00  9.55249411E+00 -1.91049882E+01  0.00000000E+00  9.55249411E+00
  9.55249411E+00 -1.91049882E+01  0.00000000E+00  9.55249411E+00  9.55249411E+00
 -1.91049882E+01  0.00000000E+00  9.55249411E+00  9.55249411E+00 -1.91049882E+01
  0.00000000E+00  9.55249411E+00  9.55249411E+00 -1.91049882E+01  0.00000000E+00
  9.55249411E+00  9.55249411E+00 -1.91049882E+01  0.00000000E+00  9.55249411E+00
  9.55249411E+00 -1.91049882E+01  0.00000000E+00  9.55249411E+00  9.55249411E+00
 -1.91049882E+01  0.00000000E+00  9.55249411E+00  9.55249411E+00 -1.91049882E+01
  0.00000000E+00  9.55249411E+00  9.55249411E+00 -1.91049882E+01  0.00000000E+00
  9.55249411E+00  9.55249411E+00 -1.91049882E+01  0.00000000E+00  9.55249411E+00
  9.55249411E+00 -1.91049882E+01  0.00000000E+00  9.55249411E+00  9.55249411E+00
 -1.91049882E+01  0.00000000E+00  9.55249411E+00  9.55249411E+00 -1.91049882E+01
  0.00000000E+00  9.55249411E+00  9.55249411E+00 -1.91049882E+01  0.00000000E+00
  9.55249411E+00  9.55249411E+00 -1.91049882E+01  0.00000000E+00  9.55249411E+00
  9.55249411E+00 -1.91049882E+01  0.00000000E+00  9.55249411E+00  9.55249411E+00
 -1.91049882E+01  0.00000000E+00  9.55249411E+00  9.55249411E+00 -1.91049882E+01
  0.00000000E+00  9.55249411E+00  9.55249411E+00 -1.91049882E+01  0.00000000E+00
  9.55249411E+00  9.55249411E+00 -1.91049882E+01  0.00000000E+00  9.55249411E+00
  9.55249411E+00 -1.91049882E+01  0.00000000E+00  9.55249411E+00  9.55249411E+00
 -1.91049882E+01  0.00000000E+00  9.55249411E+00  9.55249411E+00 -1.91049882E+01
  0.00000000E+00  9.55249411E+00  9.55249411E+00 -1.91049882E+01  0.00000000E+00
  9.55249411E+00  9.55249411E+00 -1.91049882E+01  0.00000000E+00  9.55249411E+00
  9.55249411E+00 -1.91049882E+01  0.00000000E+00  9.55249411E+00  9.55249411E+00
 -1.91049882E+01  0.00000000E+00  9.55249411E+00  9.55249411E+00 -1.91049882E+01
  0.00000000E+00  9.55249411E+00  9.55249411E+00 -1.91049882E+01  0.00000000E+00
  9.55249411E+00  9.55249411E+00 -1.91049882E+01  0.00000000E+00  9.55249411E+00
  9.55249411E+00 -1.91049882E+01  0.00000000E+00  9.55249411E+00  9.55249411E+00
 -1.91049882E+01  0.00000000E+00  9.55249411E+00  9.55249411E+00 -1.91049882E+01
  0.00000000E+00  9.55249411E+00  9.55249411E+00 -1.91049882E+01  0.00000000E+00
  9.55249411E+00  9.55249411E+00 -1.91049882E+01  0.00000000E+00  9.55249411E+00
  9.55249411E+00 -1.91049882E+01  0.00000000E+00  9.55249411E+00  9.55249411E+00
 -1.91049882E+01  0.00000000E+00  9.55249411E+00  9.55249411E+00 -1.91049882E+01
  0.00000000E+00  9.55249411E+00  9.55249411E+00 -1.91049882E+01  0.00000000E+00
  9.55249411E+00  9.55249411E+00 -1.91049882E+01  0.00000000E+00  9.55249411E+00
  9.55249411E+00 -1.91049882E+01  0.00000000E+00  9.55249411E+00  9.55249411E+00
 -1.91049882E+01  0.00000000E+00  9.55249411E+00  9.55249411E+00 -1.91049882E+01
  0.00000000E+00  9.55249411E+00  9.55249411E+00 -1.91049882E+01  0.00000000E+00
  9.55249411E+00  9.55249411E+00 -1.91049882E+01  0.00000000E+00  9.55249411E+00
  9.55249411E+00 -1.91049882E+01  0.00000000E+00  9.55249411E+00  9.55249411E+00
 -1.91049882E+01  0.00000000E+00  9.55249411E+00  9.55249411E+00 -1.91049882E+01
  0.00000000E+00  9.55249411E+00  9.55249411E+00 -1.91049882E+01  0.00000000E+00
  9.55249411E+00  9.55249411E+00 -1.91049882E+01  0.00000000E+00  9.55249411E+00
  9.55249411E+00 -1.91049882E+01  0.00000000E+00  9.55249411E+00  9.55249411E+00
 -1.91049882E+01  0.00000000E+00  9.55249411E+00  9.55249411E+00 -1.91049882E+01
  0.00000000E+00  9.55249411E+00  9.55249411E+00 -1.91049882E+01  0.00000000E+00
  9.55249411E+00  9.55249411E+00 -1.91049882E+01  0.00000000E+00  9.55249411E+00
  9.55249411E+00 -1.91049882E+01  0.00000000E+00  9.55249411E+00  9.55249411E+00
 -1.91049882E+01  0.00000000E+00  9.55249411E+00  9.55249411E+00 -1.91049882E+01
  0.00000000E+00  9.55249411E+00  9.55249411E+00 -1.91049882E+01  0.00000000E+00
  9.55249411E+00  9.55249411E+00 -1.91049882E+01  0.00000000E+00  9.55249411E+00
  9.55249411E+00 -1.91049882E+01  0.00000000E+00  9.55249411E+00  9.55249411E+00
 -1.91049882E+01  0.00000000E+00  9.55249411E+00  9.55249411E+00 -1.91049882E+01
  0.00000000E+00  9.55249411E+00  9.55249411E+00 -1.91049882E+01  0.00000000E+00
  9.55249411E+00  9.55249411E+00 -1.91049882E+01  0.00000000E+00  9.55249411E+00
  9.55249411E+00 -1.91049882E+01  0.00000000E+00  9.55249411E+00  9.55249411E+00
 -1.91049882E+01  0.00000000E+00  9.55249411E+00  9.55249411E+00 -1.91049882E+01
  0.00000000E+00  9.55249411E+00  9.55249411E+00 -1.91049882E+01  0.00000000E+00
  9.55249411E+00  9.55249411E+00 -1.91049882E+01  0.00000000E+00  9.55249411E+00
  9.55249411E+00 -1.91049882E+01  0.00000000E+00  9.55249411E+00  9.55249411E+00
 -1.91049882E+01  0.00000000E+00  9.55249411E+00  9.55249411E+00 -1.91049882E+01
  0.00000000E+00  9.55249411E+00  9.55249411E+00 -1.91049882E+01  0.00000000E+00
  9.55249411E+00  9.55249411E+00 -1.91049882E+01  0.00000000E+00  9.55249411E+00
  9.55249411E+00 -1.91049882E+01  0.00000000E+00  9.55249411E+00  9.55249411E+00
 -1.91049882E+01  0.00000000E+00  9.55249411E+00  9.55249411E+00 -1.91049882E+01
  0.00000000E+00  9.55249411E+00  9.55249411E+00 -1.91049882E+01  0.00000000E+00
  9.55249411E+00  9.55249411E+00 -1.91049882E+01  0.00000000E+00  9.55249411E+00
  9.55249411E+00 -1.91049882E+01  0.00000000E+00  9.55249411E+00  9.55249411E+00
 -1.91049882E+01  0.00000000E+00  9.55249411E+00  9.55249411E+00 -1.91049882E+01
  0.00000000E+00  9.55249411E+00  9.55249411E+00 -1.91049882E+01  0.00000000E+00
  9.55249411E+00  9.55249411E+00 -1.91049882E+01  0.00000000E+00  9.55249411E+00
  9.55249411E+00 -1.91049882E+01  0.00000000E+00  9.55249411E+00  9.55249411E+00
 -1.91049882E+01  0.00000000E+00  9.55249411E+00  9.55249411E+00 -1.91049882E+01
  0.00000000E+00  9.55249411E+00  9.55249411E+00 -1.91049882E+01  0.00000000E+00
  9.55249411E+00  9.55249411E+00 -1.91049882E+01  0.00000000E+00  9.55249411E+00
  9.55249411E+00 -1.91049882E+01  0.00000000E+00  9.55249411E+00  9.55249411E+00
 -1.91049882E+01  0.00000000E+00  9.55249411E+00  9.55249411E+00 -1.91049882E+01
  0.00000000E+00  9.55249411E+00  9.55249411E+00 -1.91049882E+01  0.00000000E+00
  9.55249411E+00  9.55249411E+00 -1.91049882E+01  0.00000000E+00  9.55249411E+00
  9.55249411E+00 -1.91049882E+01  0.00000000E+00  9.55249411E+00  9.55249411E+00
 -1.91049882E+01  0.00000000E+00  9.55249411E+00  9.55249411E+00 -1.91049882E+01
  0.00000000E+00  9.55249411E+00  9.55249411E+00 -1.91049882E+01  0.00000000E+00
  9.55249411E+00  9.55249411E+00 -1.91049882E+01  0.00000000E+00  9.55249411E+00
  9.55249411E+00 -1.91049882E+01  0.00000000E+00  9.55249411E+00  9.55249411E+00
 -1.91049882E+01  0.00000000E+00  9.55249411E+00  9.55249411E+00 -1.91049882E+01
  0.00000000E+00  9.55249411E+00  9.55249411E+00 -1.91049882E+01  0.00000000E+00
  9.55249411E+00  9.55249411E+00 -1.91049882E+01  0.00000000E+00  9.55249411E+00
  9.55249411E+00 -1.91049882E+01  0.00000000E+00  9.55249411E+00  9.55249411E+00
 -1.91049882E+01  0.00000000E+00  9.55249411E+00  9.55249411E+00 -1.91049882E+01
  0.00000000E+00  9.55249411E+00  9.55249411E+00 -1.91049882E+01  0.00000000E+00
  9.55249411E+00  9.55249411E+00 -1.91049882E+01  0.00000000E+00  9.55249411E+00
  9.55249411E+00 -1.91049882E+01  0.00000000E+00  9.55249411E+00  9.55249411E+00
 -1.91049882E+01  0.00000000E+00  9.55249411E+00  9.55249411E+00 -1.91049882E+01
  0.00000000E+00  9.55249411E+00  9.55249411E+00 -1.91049882E+01  0.00000000E+00
  9.55249411E+00  9.55249411E+00 -1.91049882E+01  0.00000000E+00  9.55249411E+00
  9.55249411E+00 -1.91049882E+01  0.00000000E+00  9.55249411E+00  9.55249411E+00
 -1.91049882E+01  0.00000000E+00  9.55249411E+00  9.55249411E+00 -1.91049882E+01
  0.00000000E+00  9.55249411E+00  9.55249411E+00 -1.91049882E+01  0.00000000E+00
  9.55249411E+00  9.55249411E+00 -1.91049882E+01  0.00000000E+00  9.55249411E+00
  9.55249411E+00 -1.91049882E+01  0.00000000E+00  9.55249411E+00  9.55249411E+00
 -1.91049882E+01  0.00000000E+00  9.55249411E+00  9.55249411E+00 -1.91049882E+01
  0.00000000E+00  9.55249411E+00  9.55249411E+00 -1.91049882E+01  0.00000000E+00
  9.55249411E+00  9.55249411E+00 -1.91049882E+01  0.00000000E+00  9.55249411E+00
  9.55249411E+00 -1.91049882E+01  0.00000000E+00  9.55249411E+00  9.55249411E+00
 -1.91049882E+01  0.00000000E+00  9.55249411E+00  9.55249411E+00 -1.91049882E+01
  0.00000000E+00  9.55249411E+00  9.55249411E+00 -1.91049882E+01  0.00000000E+00
  9.55249411E+00  9.55249411E+00 -1.91049882E+01  0.00000000E+00  9.55249411E+00
  9.55249411E+00 -1.91049882E+01  0.00000000E+00  9.55249411E+00  9.55249411E+00
 -1.91049882E+01  0.00000000E+00  9.55249411E+00  9.55249411E+00 -1.91049882E+01
  0.00000000E+00  9.55249411E+00  9.55249411E+00 -1.91049882E+01  0.00000000E+00
  9.55249411E+00  9.55249411E+00 -1.91049882E+01  0.00000000E+00  9.55249411E+00
  9.55249411E+00 -1.91049882E+01  0.00000000E+00  9.55249411E+00  9.55249411E+00
 -1.91049882E+01  0.00000000E+00  9.55249411E+00  9.55249411E+00 -1.91049882E+01
  0.00000000E+00  9.55249411E+00  9.55249411E+00 -1.91049882E+01  0.00000000E+00
  9.55249411E+00  9.55249411E+00 -1.91049882E+01  0.00000000E+00  9.55249411E+00
  9.55249411E+00 -1.91049882E+01  0.00000000E+00  9.55249411E+00  9.55249411E+00
 -1.91049882E+01  0.00000000E+00  9.55249411E+00  9.55249411E+00 -1.91049882E+01
  0.00000000E+00  9.55249411E+00  9.55249411E+00 -1.91049882E+01  0.00000000E+00
  9.55249411E+00  9.55249411E+00 -1.91049882E+01  0.00000000E+00  9.55249411E+00
  9.55249411E+00 -1.91049882E+01  0.00000000E+00  9.55249411E+00  9.55249411E+00
 -1.91049882E+01  0.00000000E+00  9.55249411E+00  9.55249411E+00 -1.91049882E+01
  0.00000000E+00  9.55249411E+00  9.55249411E+00 -1.91049882E+01  0.00000000E+00
  9.55249411E+00  9.55249411E+00 -1.91049882E+01  0.00000000E+00  9.55249411E+00
  9.55249411E+00 -1.91049882E+01  0.00000000E+00  9.55249411E+00  9.55249411E+00
 -1.91049882E+01  0.00000000E+00  9.55249411E+00  9.55249411E+00 -1.91049882E+01
  0.00000000E+00  9.55249411E+00  9.55249411E+00 -1.91049882E+01  0.00000000E+00
  9.55249411E+00  9.55249411E+00 -1.91049882E+01  0.00000000E+00  9.55249411E+00
  9.55249411E+00 -1.91049882E+01  0.00000000E+00  9.55249411E+00  9.55249411E+00
 -1.91049882E+01  0.00000000E+00  9.55249411E+00  9.55249411E+00 -1.91049882E+01
  0.00000000E+00  9.55249411E+00  9.55249411E+00 -1.91049882E+01  0.00000000E+00
  9.55249411E+00  9.55249411E+00 -1.91049882E+01  0.00000000E+00  9.55249411E+00
  9.55249411E+00 -1.91049882E+01  0.00000000E+00  9.55249411E+00  9.55249411E+00
 -1.91049882E+01  0.00000000E+00  9.55249411E+00  9.55249411E+00 -1.91049882E+01
  0.00000000E+00  9.55249411E+00  9.55249411E+00 -1.91049882E+01  0.00000000E+00
  9.55249411E+00  9.55249411E+00 -1.91049882E+01  0.00000000E+00  9.55249411E+00
  9.55249411E+00 -1.91049882E+01  0.00000000E+00  9.55249411E+00  9.55249411E+00
 -1.91049882E+01  0.00000000E+00  9.55249411E+00  9.55249411E+00 -1.91049882E+01
  0.00000000E+00  9.55249411E+00  9.55249411E+00 -1.91049882E+01  0.00000000E+00
  9.55249411E+00  9.55249411E+00 -1.91049882E+01  0.00000000E+00  9.55249411E+00
  9.55249411E+00 -1.91049882E+01  0.00000000E+00  9.55249411E+00  9.55249411E+00
 -1.91049882E+01  0.00000000E+00  9.55249411E+00  9.55249411E+00 -1.91049882E+01
  0.00000000E+00  9.55249411E+00  9.55249411E+00 -1.91049882E+01  0.00000000E+00
  9.55249411E+00  9.55249411E+00 -1.91049882E+01  0.00000000E+00  9.55249411E+00
  9.55249411E+00 -1.91049882E+01  0.00000000E+00  9.55249411E+00  9.55249411E+00
 -1.91049882E+01  0.00000000E+00  9.55249411E+00  9.55249411E+00 -1.91049882E+01
  0.00000000E+00  9.55249411E+00  9.55249411E+00 -1.91049882E+01  0.00000000E+00
  9.55249411E+00  9.55249411E+00 -1.91049882E+01  0.00000000E+00  9.55249411E+00
  9.55249411E+00 -1.91049882E+01  0.00000000E+00  9.55249411E+00  9.55249411E+00
 -1.91049882E+01  0.00000000E+00  9.55249411E+00  9.55249411E+00 -1.91049882E+01
  0.00000000E+00  9.55249411E+00  9.55249411E+00 -1.91049882E+01  0.00000000E+00
  9.55249411E+00  9.55249411E+00 -1.91049882E+01  0.00000000E+00  9.55249411E+00
  9.55249411E+00 -1.91049882E+01  0.00000000E+00  9.55249411E+00  9.55249411E+00
 -1.91049882E+01  0.00000000E+00  9.55249411E+00  9.55249411E+00 -1.91049882E+01
  0.00000000E+00  9.55249411E+00  9.55249411E+00 -1.91049882E+01  0.00000000E+00
  9.55249411E+00  9.55249411E+00 -1.91049882E+01  0.00000000E+00  9.55249411E+00
  9.55249411E+00 -1.91049882E+01  0.00000000E+00  9.55249411E+00  9.55249411E+00
 -1.91049882E+01  0.00000000E+00  9.55249411E+00  9.55249411E+00 -1.91049882E+01
  0.00000000E+00  9.55249411E+00  9.55249411E+00 -1.91049882E+01  0.00000000E+00
  9.55249411E+00  9.55249411E+00 -1.91049882E+01  0.00000000E+00  9.55249411E+00
  9.55249411E+00 -1.91049882E+01  0.00000000E+00  9.55249411E+00  9.55249411E+00
 -1.91049882E+01  0.00000000E+00  9.55249411E+00  9.55249411E+00 -1.91049882E+01
  0.00000000E+00  9.55249411E+00  9.55249411E+00 -1.91049882E+01  0.00000000E+00
  9.55249411E+00  9.55249411E+00 -1.91049882E+01  0.00000000E+00  9.55249411E+00
  9.55249411E+00 -1.91049882E+01  0.00000000E+00  9.55249411E+00  9.55249411E+00
 -1.91049882E+01  0.00000000E+00  9.55249411E+00  9.55249411E+00 -1.91049882E+01
  0.00000000E+00  9.55249411E+00  9.55249411E+00 -1.91049882E+01  0.00000000E+00
  9.55249411E+00  9.55249411E+00 -1.91049882E+01  0.00000000E+00  9.55249411E+00
  9.55249411E+00 -1.91049882E+01  0.00000000E+00  9.55249411E+00  9.55249411E+00
 -1.91049882E+01  0.00000000E+00  9.55249411E+00  9.55249411E+00 -1.91049882E+01
  0.00000000E+00  9.55249411E+00  9.55249411E+00 -1.91049882E+01  0.00000000E+00
  9.55249411E+00  9.55249411E+00 -1.91049882E+01  0.00000000E+00  9.55249411E+00
  9.55249411E+00 -1.91049882E+01  0.00000000E+00  9.55249411E+00  9.55249411E+00
 -1.91049882E+01  0.00000000E+00  9.55249411E+00  9.55249411E+00 -1.91049882E+01
  0.00000000E+00  9.55249411E+00  9.55249411E+00 -1.91049882E+01  0.00000000E+00
  9.55249411E+00  9.55249411E+00 -1.91049882E+01  0.00000000E+00  9.55249411E+00
  9.55249411E+00 -1.91049882E+01  0.00000000E+00  9.55249411E+00  9.55249411E+00
 -1.91049882E+01  0.00000000E+00  9.55249411E+00  9.55249411E+00 -1.91049882E+01
  0.00000000E+00  9.55249411E+00  9.55249411E+00 -1.91049882E+01  0.00000000E+00
  9.55249411E+00  9.55249411E+00 -1.91049882E+01  0.00000000E+00  9.55249411E+00
  9.55249411E+00 -1.91049882E+01  0.00000000E+00  9.55249411E+00  9.55249411E+00
 -1.91049882E+01  0.00000000E+00  9.55249411E+00  9.55249411E+00 -1.91049882E+01
  0.00000000E+00  9.55249411E+00  9.55249411E+00 -1.91049882E+01  0.00000000E+00
  9.55249411E+00  9.55249411E+00 -1.91049882E+01  0.00000000E+00  9.55249411E+00
  9.55249411E+00 -1.91049882E+01  0.00000000E+00  9.55249411E+00  9.55249411E+00
 -1.91049882E+01  0.00000000E+00  9.55249411E+00  9.55249411E+00 -1.91049882E+01
  0.00000000E+00  9.55249411E+00  9.55249411E+00 -1.91049882E+01  0.00000000E+00
  9.55249411E+00  9.55249411E+00 -1.91049882E+01  0.00000000E+00  9.55249411E+00
  9.55249411E+00 -1.91049882E+01  0.00000000E+00  9.55249411E+00  9.55249411E+00
 -1.91049882E+01  0.00000000E+00  9.55249411E+00  9.55249411E+00 -1.91049882E+01
  0.00000000E+00  9.55249411E+00  9.55249411E+00 -1.91049882E+01  0.00000000E+00
  9.55249411E+00  9.55249411E+00 -1.91049882E+01  0.00000000E+00  9.55249411E+00
  9.55249411E+00 -1.91049882E+01  0.00000000E+00  9.55249411E+00  9.55249411E+00
 -1.91049882E+01  0.00000000E+00  9.55249411E+00  9.55249411E+00 -1.91049882E+01
  0.00000000E+00  9.55249411E+00  9.55249411E+00 -1.91049882E+01  0.00000000E+00
  9.55249411E+00  9.55249411E+00 -1.91049882E+01  0.00000000E+00  9.55249411E+00
  9.55249411E+00 -1.91049882E+01  0.00000000E+00  9.55249411E+00  9.55249411E+00
 -1.91049882E+01  0.00000000E+00  9.55249411E+00  9.55249411E+00 -1.91049882E+01
  0.00000000E+00  9.55249411E+00  9.55249411E+00 -1.91049882E+01  0.00000000E+00
  9.55249411E+00  9.55249411E+00 -1.91049882E+01  0.00000000E+00  9.55249411E+00
  9.55249411E+00 -1.91049882E+01  0.00000000E+00  9.55249411E+00  9.55249411E+00
 -1.91049882E+01  0.00000000E+00  9.55249411E+00  9.55249411E+00 -1.91049882E+01
  0.00000000E+00  9.55249411E+00  9.55249411E+00 -1.91049882E+01  0.00000000E+00
  9.55249411E+00  9.55249411E+00 -1.91049882E+01  0.00000000E+00  9.55249411E+00
  9.55249411E+00 -1.91049882E+01  0.00000000E+00  9.55249411E+00  9.55249411E+00
 -1.91049882E+01  0.00000000E+00  9.55249411E+00  9.55249411E+00 -1.91049882E+01
  0.00000000E+00  9.55249411E+00  9.55249411E+00 -1.91049882E+01  0.00000000E+00
  9.55249411E+00  9.55249411E+00 -1.91049882E+01  0.00000000E+00  9.55249411E+00
  9.55249411E+00 -1.91049882E+01  0.00000000E+00  9.55249411E+00  9.55249411E+00
 -1.91049882E+01  0.00000000E+00  9.55249411E+00  9.55249411E+00 -1.91049882E+01
  0.00000000E+00  9.55249411E+00  9.55249411E+00 -1.91049882E+01  0.00000000E+00
  9.55249411E+00  9.55249411E+00 -1.91049882E+01  0.00000000E+00  9.55249411E+00
  9.55249411E+00 -1.91049882E+01  0.00000000E+00  9.55249411E+00  9.55249411E+00
 -1.91049882E+01  0.00000000E+00  9.55249411E+00  9.55249411E+00 -1.91049882E+01
  0.00000000E+00  9.55249411E+00  9.55249411E+00 -1.91049882E+01  0.00000000E+00
  9.55249411E+00  9.55249411E+00 -1.91049882E+01  0.00000000E+00  9.55249411E+00
  9.55249411E+00 -1.91049882E+01  0.00000000E+00  9.55249411E+00  9.55249411E+00
 -1.91049882E+01  0.00000000E+00  9.55249411E+00  9.55249411E+00 -1.91049882E+01
  0.00000000E+00  9.55249411E+00  9.55249411E+00 -1.91049882E+01  0.00000000E+00
  9.55249411E+00  9.55249411E+00 -1.91049882E+01  0.00000000E+00  9.55249411E+00
  9.55249411E+00 -1.91049882E+01  0.00000000E+00  9.55249411E+00  9.55249411E+00
 -1.91049882E+01  0.00000000E+00  9.55249411E+00  9.55249411E+00 -1.91049882E+01
  0.00000000E+00  9.55249411E+00  9.55249411E+00 -1.91049882E+01  0.00000000E+00
  9.55249411E+00  9.55249411E+00 -1.91049882E+01  0.00000000E+00  9.55249411E+00
  9.55249411E+00 -1.91049882E+01  0.00000000E+00  9.55249411E+00  9.55249411E+00
 -1.91049882E+01  0.00000000E+00  9.55249411E+00  9.55249411E+00 -1.91049882E+01
  0.00000000E+00  9.55249411E+00  9.55249411E+00 -1.91049882E+01  0.00000000E+00
  9.55249411E+00  9.55249411E+00 -1.91049882E+01  0.00000000E+00  9.55249411E+00
  9.55249411E+00 -1.91049882E+01  0.00000000E+00  9.55249411E+00  9.55249411E+00
 -1.91049882E+01  0.00000000E+00  9.55249411E+00  9.55249411E+00 -1.91049882E+01
  0.00000000E+00  9.55249411E+00  9.55249411E+00 -1.91049882E+01  0.00000000E+00
  9.55249411E+00  9.55249411E+00 -1.91049882E+01  0.00000000E+00  9.55249411E+00
  9.55249411E+00 -1.91049882E+01  0.00000000E+00  9.55249411E+00  9.55249411E+00
 -1.91049882E+01  0.00000000E+00  9.55249411E+00  9.55249411E+00 -1.91049882E+01
  0.00000000E+00  9.55249411E+00  9.55249411E+00 -1.91049882E+01  0.00000000E+00
  9.55249411E+00  9.55249411E+00 -1.91049882E+01  0.00000000E+00  9.55249411E+00
  9.55249411E+00 -1.91049882E+01  0.00000000E+00  9.55249411E+00  9.55249411E+00
 -1.91049882E+01  0.00000000E+00  9.55249411E+00  9.55249411E+00 -1.91049882E+01
  0.00000000E+00  9.55249411E+00  9.55249411E+00 -1.91049882E+01  0.00000000E+00
  9.55249411E+00  9.55249411E+00 -1.91049882E+01  0.00000000E+00  9.55249411E+00
  9.55249411E+00 -1.91049882E+01  0.00000000E+00  9.55249411E+00  9.55249411E+00
 -1.91049882E+01  0.00000000E+00  9.55249411E+00  9.55249411E+00 -1.91049882E+01
  0.00000000E+00  9.55249411E+00  9.55249411E+00 -1.91049882E+01  0.00000000E+00
  9.55249411E+00  9.55249411E+00 -1.91049882E+01  0.00000000E+00  9.55249411E+00
  9.55249411E+00 -1.91049882E+01  0.00000000E+00  9.55249411E+00  9.55249411E+00
 -1.91049882E+01  0.00000000E+00  9.55249411E+00  9.55249411E+00 -1.91049882E+01
  0.00000000E+00  9.55249411E+00  9.55249411E+00 -1.91049882E+01  0.00000000E+00
  9.55249411E+00  9.55249411E+00 -1.91049882E+01  0.00000000E+00  9.55249411E+00
  9.55249411E+00 -1.91049882E+01  0.00000000E+00  9.55249411E+00  9.55249411E+00
 -1.91049882E+01  0.00000000E+00  9.55249411E+00  9.55249411E+00 -1.91049882E+01
  0.00000000E+00  9.55249411E+00  9.55249411E+00 -1.91049882E+01  0.00000000E+00
  9.55249411E+00  9.55249411E+00 -1.91049882E+01  0.00000000E+00  9.55249411E+00
  9.55249411E+00 -1.91049882E+01  0.00000000E+00  9.55249411E+00  9.55249411E+00
 -1.91049882E+01  0.00000000E+00  9.55249411E+00  9.55249411E+00 -1.91049882E+01
  0.00000000E+00  9.55249411E+00  9.55249411E+00 -1.91049882E+01  0.00000000E+00
  9.55249411E+00  9.55249411E+00 -1.91049882E+01  0.00000000E+00  9.55249411E+00
  9.55249411E+00 -1.91049882E+01  0.00000000E+00  9.55249411E+00  9.55249411E+00
 -1.91049882E+01  0.00000000E+00  9.55249411E+00  9.55249411E+00 -1.91049882E+01
  0.00000000E+00  9.55249411E+00  9.55249411E+00 -1.91049882E+01  0.00000000E+00
  9.55249411E+00  9.55249411E+00 -1.91049882E+01  0.00000000E+00  9.55249411E+00
  9.55249411E+00 -1.91049882E+01  0.00000000E+00  9.55249411E+00  9.55249411E+00
 -1.91049882E+01  0.00000000E+00  9.55249411E+00  9.55249411E+00 -1.91049882E+01
  0.00000000E+00  9.55249411E+00  9.55249411E+00 -1.91049882E+01  0.00000000E+00
  9.55249411E+00  9.55249411E+00 -1.91049882E+01  0.00000000E+00  9.55249411E+00
  9.55249411E+00 -1.91049882E+01  0.00000000E+00  9.55249411E+00  9.55249411E+00
 -1.91049882E+01  0.00000000E+00  9.55249411E+00  9.55249411E+00 -1.91049882E+01
  0.00000000E+00  9.55249411E+00  9.55249411E+00 -1.91049882E+01  0.00000000E+00
  9.55249411E+00  9.55249411E+00 -1.91049882E+01  0.00000000E+00  9.55249411E+00
  9.55249411E+00 -1.91049882E+01  0.00000000E+00  9.55249411E+00  9.55249411E+00
 -1.91049882E+01  0.00000000E+00  9.55249411E+00  9.55249411E+00 -1.91049882E+01
  0.00000000E+00  9.55249411E+00  9.55249411E+00 -1.91049882E+01  0.00000000E+00
  9.55249411E+00  9.55249411E+00 -1.91049882E+01  0.00000000E+00  9.55249411E+00
  9.55249411E+00 -1.91049882E+01  0.00000000E+00  9.55249411E+00  9.55249411E+00
 -1.91049882E+01  0.00000000E+00  9.55249411E+00  9.55249411E+00 -1.91049882E+01
  0.00000000E+00  9.55249411E+00  9.55249411E+00 -1.91049882E+01  0.00000000E+00
  9.55249411E+00  9.55249411E+00 -1.91049882E+01  0.00000000E+00  9.55249411E+00
  9.55249411E+00 -1.91049882E+01  0.00000000E+00  9.55249411E+00  9.55249411E+00
 -1.91049882E+01  0.00000000E+00  9.55249411E+00  9.55249411E+00 -1.91049882E+01
  0.00000000E+00  9.55249411E+00  9.55249411E+00 -1.91049882E+01  0.00000000E+00
  9.55249411E+00  9.55249411E+00 -1.91049882E+01  0.00000000E+00  9.55249411E+00
  9.55249411E+00 -1.91049882E+01  0.00000000E+00  9.55249411E+00  9.55249411E+00
 -1.91049882E+01  0.00000000E+00  9.55249411E+00  9.55249411E+00 -1.91049882E+01
  0.00000000E+00  9.55249411E+00  9.55249411E+00 -1.91049882E+01  0.00000000E+00
  9.55249411E+00  9.55249411E+00 -1.91049882E+01  0.00000000E+00  9.55249411E+00
  9.55249411E+00 -1.91049882E+01  0.00000000E+00  9.55249411E+00  9.55249411E+00
 -1.91049882E+01  0.00000000E+00  9.55249411E+00  9.55249411E+00 -1.91049882E+01
  0.00000000E+00  9.55249411E+00  9.55249411E+00 -1.91049882E+01  0.00000000E+00
  9.55249411E+00  9.55249411E+00 -1.91049882E+01  0.00000000E+00  9.55249411E+00
  9.55249411E+00 -1.91049882E+01  0.00000000E+00  9.55249411E+00  9.55249411E+00
 -1.91049882E+01  0.00000000E+00  9.55249411E+00  9.55249411E+00 -1.91049882E+01
  0.00000000E+00  9.55249411E+00  9.55249411E+00 -1.91049882E+01  0.00000000E+00
  9.55249411E+00  9.55249411E+00 -1.91049882E+01  0.00000000E+00  9.55249411E+00
  9.55249411E+00 -1.91049882E+01  0.00000000E+00  9.55249411E+00  9.55249411E+00
 -1.91049882E+01  0.00000000E+00  9.55249411E+00  9.55249411E+00 -1.91049882E+01
  0.00000000E+00  9.55249411E+00  9.55249411E+00 -1.91049882E+01  0.00000000E+00
  9.55249411E+00  9.55249411E+00 -1.91049882E+01  0.00000000E+00  9.55249411E+00
  9.55249411E+00 -1.91049882E+01  0.00000000E+00  9.55249411E+00  9.55249411E+00
 -1.91049882E+01  0.00000000E+00  9.55249411E+00  9.55249411E+00 -1.91049882E+01
  0.00000000E+00  9.55249411E+00  9.55249411E+00 -1.91049882E+01  0.00000000E+00
  9.55249411E+00  9.55249411E+00 -1.91049882E+01  0.00000000E+00  9.55249411E+00
  9.55249411E+00 -1.91049882E+01  0.00000000E+00  9.55249411E+00  9.55249411E+00
 -1.91049882E+01  0.00000000E+00  9.55249411E+00  9.55249411E+00 -1.91049882E+01
  0.00000000E+00  9.55249411E+00  9.55249411E+00 -1.91049882E+01  0.00000000E+00
  9.55249411E+00  9.55249411E+00 -1.91049882E+01  0.00000000E+00  9.55249411E+00
  9.55249411E+00 -1.91049882E+01  0.00000000E+00  9.55249411E+00  9.55249411E+00
 -1.91049882E+01  0.00000000E+00  9.55249411E+00  9.55249411E+00 -1.91049882E+01
  0.00000000E+00  9.55249411E+00  9.55249411E+00 -1.91049882E+01  0.00000000E+00
  9.55249411E+00  9.55249411E+00 -1.91049882E+01  0.00000000E+00  9.55249411E+00
  9.55249411E+00 -1.91049882E+01  0.00000000E+00  9.55249411E+00  9.55249411E+00
 -1.91049882E+01  0.00000000E+00  9.55249411E+00  9.55249411E+00 -1.91049882E+01
  0.00000000E+00  9.55249411E+00  9.55249411E+00 -1.91049882E+01  0.00000000E+00
  9.55249411E+00  9.55249411E+00 -1.91049882E+01  0.00000000E+00  9.55249411E+00
  9.55249411E+00 -1.91049882E+01  0.00000000E+00  9.55249411E+00  9.55249411E+00
 -1.91049882E+01  0.00000000E+00  9.55249411E+00  9.55249411E+00 -1.91049882E+01
  0.00000000E+00  9.55249411E+00  9.55249411E+00 -1.91049882E+01  0.00000000E+00
  9.55249411E+00  9.55249411E+00 -1.91049882E+01  0.00000000E+00  9.55249411E+00
  9.55249411E+00 -1.91049882E+01  0.00000000E+00  9.55249411E+00  9.55249411E+00
 -1.91049882E+01  0.00000000E+00  9.55249411E+00  9.55249411E+00 -1.91049882E+01
  0.00000000E+00  9.55249411E+00  9.55249411E+00 -1.91049882E+01  0.00000000E+00
  9.55249411E+00  9.55249411E+00 -1.91049882E+01  0.00000000E+00  9.55249411E+00
  9.55249411E+00 -1.91049882E+01  0.00000000E+00  9.55249411E+00  9.55249411E+00
 -1.91049882E+01  0.00000000E+00  9.55249411E+00  9.55249411E+00 -1.91049882E+01
  0.00000000E+00  9.55249411E+00  9.55249411E+00 -1.91049882E+01  0.00000000E+00
  9.55249411E+00  9.55249411E+00 -1.91049882E+01  0.00000000E+00  9.55249411E+00
  9.55249411E+00 -1.91049882E+01  0.00000000E+00  9.55249411E+00  9.55249411E+00
 -1.91049882E+01  0.00000000E+00  9.55249411E+00  9.55249411E+00 -1.91049882E+01
  0.00000000E+00  9.55249411E+00  9.55249411E+00 -1.91049882E+01  0.00000000E+00
  9.55249411E+00  9.55249411E+00 -1.91049882E+01  0.00000000E+00  9.55249411E+00
  9.55249411E+00 -1.91049882E+01  0.00000000E+00  9.55249411E+00  9.55249411E+00
 -1.91049882E+01  0.00000000E+00  9.55249411E+00  9.55249411E+00 -1.91049882E+01
  0.00000000E+00  9.55249411E+00  9.55249411E+00 -1.91049882E+01  0.00000000E+00
  9.55249411E+00  9.55249411E+00 -1.91049882E+01  0.00000000E+00  9.55249411E+00
  9.55249411E+00 -1.91049882E+01  0.00000000E+00  9.55249411E+00  9.55249411E+00
 -1.91049882E+01  0.00000000E+00  9.55249411E+00  9.55249411E+00 -1.91049882E+01
  0.00000000E+00  9.55249411E+00  9.55249411E+00 -1.91049882E+01  0.00000000E+00
  9.55249411E+00  9.55249411E+00 -1.91049882E+01  0.00000000E+00  9.55249411E+00
  9.55249411E+00 -1.91049882E+01  0.00000000E+00  9.55249411E+00  9.55249411E+00
 -1.91049882E+01  0.00000000E+00  9.55249411E+00  9.55249411E+00 -1.91049882E+01
  0.00000000E+00  9.55249411E+00  9.55249411E+00 -1.91049882E+01  0.00000000E+00
  9.55249411E+00  9.55249411E+00 -1.91049882E+01  0.00000000E+00  9.55249411E+00
  9.55249411E+00 -1.91049882E+01  0.00000000E+00  9.55249411E+00  9.55249411E+00
 -1.91049882E+01  0.00000000E+00  9.55249411E+00  9.55249411E+00 -1.91049882E+01
  0.00000000E+00  9.55249411E+00  9.55249411E+00 -1.91049882E+01  0.00000000E+00
  9.55249411E+00  9.55249411E+00 -1.91049882E+01  0.00000000E+00  9.55249411E+00
  9.55249411E+00 -1.91049882E+01  0.00000000E+00  9.55249411E+00  9.55249411E+00
 -1.91049882E+01  0.00000000E+00  9.55249411E+00  9.55249411E+00 -1.91049882E+01
  0.00000000E+00  9.55249411E+00  9.55249411E+00 -1.91049882E+01  0.00000000E+00
  9.55249411E+00  9.55249411E+00 -1.91049882E+01  0.00000000E+00  9.55249411E+00
  9.55249411E+00 -1.91049882E+01  0.00000000E+00  9.55249411E+00  9.55249411E+00
 -1.91049882E+01  0.00000000E+00  9.55249411E+00  9.55249411E+00 -1.91049882E+01
  0.00000000E+00  9.55249411E+00  9.55249411E+00 -1.91049882E+01  0.00000000E+00
  9.55249411E+00  9.55249411E+00 -1.91049882E+01  0.00000000E+00  9.55249411E+00
  9.55249411E+00 -1.91049882E+01  0.00000000E+00  9.55249411E+00  9.55249411E+00
 -1.91049882E+01  0.00000000E+00  9.55249411E+00  9.55249411E+00 -1.91049882E+01
  0.00000000E+00  9.55249411E+00  9.55249411E+00 -1.91049882E+01  0.00000000E+00
  9.55249411E+00  9.55249411E+00 -1.91049882E+01  0.00000000E+00  9.55249411E+00
  9.55249411E+00 -1.91049882E+01  0.00000000E+00  9.55249411E+00  9.55249411E+00
 -1.91049882E+01  0.00000000E+00  9.55249411E+00  9.55249411E+00 -1.91049882E+01
  0.00000000E+00  9.55249411E+00  9.55249411E+00 -1.91049882E+01  0.00000000E+00
  9.55249411E+00  9.55249411E+00 -1.91049882E+01  0.00000000E+00  9.55249411E+00
  9.55249411E+00 -1.91049882E+01  0.00000000E+00  9.55249411E+00  9.55249411E+00
 -1.91049882E+01  0.00000000E+00  9.55249411E+00  9.55249411E+00 -1.91049882E+01
  0.00000000E+00  9.55249411E+00  9.55249411E+00 -1.91049882E+01  0.00000000E+00
  9.55249411E+00  9.55249411E+00 -1.91049882E+01  0.00000000E+00  9.55249411E+00
  9.55249411E+00 -1.91049882E+01  0.00000000E+00  9.55249411E+00  9.55249411E+00
 -1.91049882E+01  0.00000000E+00  9.55249411E+00  9.55249411E+00 -1.91049882E+01
  0.00000000E+00  9.55249411E+00  9.55249411E+00 -1.91049882E+01  0.00000000E+00
  9.55249411E+00  9.55249411E+00 -1.91049882E+01  0.00000000E+00  9.55249411E+00
  9.55249411E+00 -1.91049882E+01  0.00000000E+00  9.55249411E+00  9.55249411E+00
 -1.91049882E+01  0.00000000E+00  9.55249411E+00  9.55249411E+00 -1.91049882E+01
  0.00000000E+00  9.55249411E+00  9.55249411E+00 -1.91049882E+01  0.00000000E+00
  9.55249411E+00  9.55249411E+00 -1.91049882E+01  0.00000000E+00  9.55249411E+00
  9.55249411E+00 -1.91049882E+01  0.00000000E+00  9.55249411E+00  9.55249411E+00
 -1.91049882E+01  0.00000000E+00  9.55249411E+00  9.55249411E+00 -1.91049882E+01
  0.00000000E+00  9.55249411E+00  9.55249411E+00 -1.91049882E+01  0.00000000E+00
  9.55249411E+00  9.55249411E+00 -1.91049882E+01  0.00000000E+00  9.55249411E+00
  9.55249411E+00 -1.91049882E+01  0.00000000E+00  9.55249411E+00  9.55249411E+00
 -1.91049882E+01  0.00000000E+00  9.55249411E+00  9.55249411E+00 -1.91049882E+01
  0.00000000E+00  9.55249411E+00  9.55249411E+00 -1.91049882E+01  0.00000000E+00
  9.55249411E+00  9.55249411E+00 -1.91049882E+01  0.00000000E+00  9.55249411E+00
  9.55249411E+00 -1.91049882E+01  0.00000000E+00  9.55249411E+00  9.55249411E+00
 -1.91049882E+01  0.00000000E+00  9.55249411E+00  9.55249411E+00 -1.91049882E+01
  0.00000000E+00  9.55249411E+00  9.55249411E+00 -1.91049882E+01  0.00000000E+00
  9.55249411E+00  9.55249411E+00 -1.91049882E+01  0.00000000E+00  9.55249411E+00
  9.55249411E+00 -1.91049882E+01  0.00000000E+00  9.55249411E+00  9.55249411E+00
 -1.91049882E+01  0.00000000E+00  9.55249411E+00  9.55249411E+00 -1.91049882E+01
  0.00000000E+00  9.55249411E+00  9.55249411E+00 -1.91049882E+01  0.00000000E+00
  9.55249411E+00  9.55249411E+00 -1.91049882E+01  0.00000000E+00  9.55249411E+00
  9.55249411E+00 -1.91049882E+01  0.00000000E+00  9.55249411E+00  9.55249411E+00
 -1.91049882E+01  0.00000000E+00  9.55249411E+00  9.55249411E+00 -1.91049882E+01
  0.00000000E+00  9.55249411E+00  9.55249411E+00 -1.91049882E+01  0.00000000E+00
  9.55249411E+00  9.55249411E+00 -1.91049882E+01  0.00000000E+00  9.55249411E+00
  9.55249411E+00 -1.91049882E+01  0.00000000E+00  9.55249411E+00  9.55249411E+00
 -1.91049882E+01  0.00000000E+00  9.55249411E+00  9.55249411E+00 -1.91049882E+01
  0.00000000E+00  9.55249411E+00  9.55249411E+00 -1.91049882E+01  0.00000000E+00
  9.55249411E+00  9.55249411E+00 -1.91049882E+01  0.00000000E+00  9.55249411E+00
  9.55249411E+00 -1.91049882E+01  0.00000000E+00  9.55249411E+00  9.55249411E+00
 -1.91049882E+01  0.00000000E+00  9.55249411E+00  9.55249411E+00 -1.91049882E+01
  0.00000000E+00  9.55249411E+00  9.55249411E+00 -1.91049882E+01  0.00000000E+00
  9.55249411E+00  9.55249411E+00 -1.91049882E+01  0.00000000E+00  9.55249411E+00
  9.55249411E+00 -1.91049882E+01  0.00000000E+00  9.55249411E+00  9.55249411E+00
 -1.91049882E+01  0.00000000E+00  9.55249411E+00  9.55249411E+00 -1.91049882E+01
  0.00000000E+00  9.55249411E+00  9.55249411E+00 -1.91049882E+01  0.00000000E+00
  9.55249411E+00  9.55249411E+00 -1.91049882E+01  0.00000000E+00  9.55249411E+00
  9.55249411E+00 -1.91049882E+01  0.00000000E+00  9.55249411E+00  9.55249411E+00
 -1.91049882E+01  0.00000000E+00  9.55249411E+00  9.55249411E+00 -1.91049882E+01
  0.00000000E+00  9.55249411E+00  9.55249411E+00 -1.91049882E+01  0.00000000E+00
  9.55249411E+00  9.55249411E+00 -1.91049882E+01  0.00000000E+00  9.55249411E+00
  9.55249411E+00 -1.91049882E+01  0.00000000E+00  9.55249411E+00  9.55249411E+00
 -1.91049882E+01  0.00000000E+00  9.55249411E+00  9.55249411E+00 -1.91049882E+01
  0.00000000E+00  9.55249411E+00  9.55249411E+00 -1.91049882E+01  0.00000000E+00
  9.55249411E+00  9.55249411E+00 -1.91049882E+01  0.00000000E+00  9.55249411E+00
  9.55249411E+00 -1.91049882E+01  0.00000000E+00  9.55249411E+00  9.55249411E+00
 -1.91049882E+01  0.00000000E+00  9.55249411E+00  9.55249411E+00 -1.91049882E+01
  0.00000000E+00  9.55249411E+00  9.55249411E+00 -1.91049882E+01  0.00000000E+00
  9.55249411E+00  9.55249411E+00 -1.91049882E+01  0.00000000E+00  9.55249411E+00
  9.55249411E+00 -1.91049882E+01  0.00000000E+00  9.55249411E+00  9.55249411E+00
 -1.91049882E+01  0.00000000E+00  9.55249411E+00  9.55249411E+00 -1.91049882E+01
  0.00000000E+00  9.55249411E+00  9.55249411E+00 -1.91049882E+01  0.00000000E+00
  9.55249411E+00  9.55249411E+00 -1.91049882E+01  0.00000000E+00  9.55249411E+00
  9.55249411E+00 -1.91049882E+01  0.00000000E+00  9.55249411E+00  9.55249411E+00
 -1.91049882E+01  0.00000000E+00  9.55249411E+00  9.55249411E+00 -1.91049882E+01
  0.00000000E+00  9.55249411E+00  9.55249411E+00 -1.91049882E+01  0.00000000E+00
  9.55249411E+00  9.55249411E+00 -1.91049882E+01  0.00000000E+00  9.55249411E+00
  9.55249411E+00 -1.91049882E+01  0.00000000E+00  9.55249411E+00  9.55249411E+00
 -1.91049882E+01  0.00000000E+00  9.55249411E+00  9.55249411E+00 -1.91049882E+01
  0.00000000E+00  9.55249411E+00  9.55249411E+00 -1.91049882E+01  0.00000000E+00
  9.55249411E+00  9.55249411E+00 -1.91049882E+01  0.00000000E+00  9.55249411E+00
  9.55249411E+00 -1.91049882E+01  0.00000000E+00  9.55249411E+00  9.55249411E+00
 -1.91049882E+01  0.00000000E+00  9.55249411E+00  9.55249411E+00 -1.91049882E+01
  0.00000000E+00  9.55249411E+00  9.55249411E+00 -1.91049882E+01  0.00000000E+00
  9.55249411E+00  9.55249411E+00 -1.91049882E+01  0.00000000E+00  9.55249411E+00
  9.55249411E+00 -1.91049882E+01  0.00000000E+00  9.55249411E+00  9.55249411E+00
 -1.91049882E+01  0.00000000E+00  9.55249411E+00  9.55249411E+00 -1.91049882E+01
  0.00000000E+00  9.55249411E+00  9.55249411E+00 -1.91049882E+01  0.00000000E+00
  9.55249411E+00  9.55249411E+00 -1.91049882E+01  0.00000000E+00  9.55249411E+00
  9.55249411E+00 -1.91049882E+01  0.00000000E+00  9.55249411E+00  9.55249411E+00
 -1.91049882E+01  0.00000000E+00  9.55249411E+00  9.55249411E+00 -1.91049882E+01
  0.00000000E+00  9.55249411E+00  9.55249411E+00 -1.91049882E+01  0.00000000E+00
  9.55249411E+00  9.55249411E+00 -1.91049882E+01  0.00000000E+00  9.55249411E+00
  9.55249411E+00 -1.91049882E+01  0.00000000E+00  9.55249411E+00  9.55249411E+00
 -1.91049882E+01  0.00000000E+00  9.55249411E+00  9.55249411E+00 -1.91049882E+01
  0.00000000E+00  9.55249411E+00  9.55249411E+00 -1.91049882E+01  0.00000000E+00
  9.55249411E+00  9.55249411E+00 -1.91049882E+01  0.00000000E+00  9.55249411E+00
  9.55249411E+00 -1.91049882E+01  0.00000000E+00  9.55249411E+00  9.55249411E+00
 -1.91049882E+01  0.00000000E+00  9.55249411E+00  9.55249411E+00 -1.91049882E+01
  0.00000000E+00  9.55249411E+00  9.55249411E+00 -1.91049882E+01  0.00000000E+00
  9.55249411E+00  9.55249411E+00 -1.91049882E+01  0.00000000E+00  9.55249411E+00
  9.55249411E+00 -1.91049882E+01  0.00000000E+00  9.55249411E+00  9.55249411E+00
 -1.91049882E+01  0.00000000E+00  9.55249411E+00  9.55249411E+00 -1.91049882E+01
  0.00000000E+00  9.55249411E+00  9.55249411E+00 -1.91049882E+01  0.00000000E+00
  9.55249411E+00  9.55249411E+00 -1.91049882E+01  0.00000000E+00  9.55249411E+00
  9.55249411E+00 -1.91049882E+01  0.00000000E+00  9.55249411E+00  9.55249411E+00
 -1.91049882E+01  0.00000000E+00  9.55249411E+00  9.55249411E+00 -1.91049882E+01
  0.00000000E+00  9.55249411E+00  9.55249411E+00 -1.91049882E+01  0.00000000E+00
  9.55249411E+00  9.55249411E+00 -1.91049882E+01  0.00000000E+00  9.55249411E+00
  9.55249411E+00 -1.91049882E+01  0.00000000E+00  9.55249411E+00  9.55249411E+00
 -1.91049882E+01  0.00000000E+00  9.55249411E+00  9.55249411E+00 -1.91049882E+01
  0.00000000E+00  9.55249411E+00  9.55249411E+00 -1.91049882E+01  0.00000000E+00
  9.55249411E+00  9.55249411E+00 -1.91049882E+01  0.00000000E+00  9.55249411E+00
  9.55249411E+00 -1.91049882E+01  0.00000000E+00  9.55249411E+00  9.55249411E+00
 -1.91049882E+01  0.00000000E+00  9.55249411E+00  9.55249411E+00 -1.91049882E+01
  0.00000000E+00  9.55249411E+00  9.55249411E+00 -1.91049882E+01  0.00000000E+00
  9.55249411E+00  9.55249411E+00 -1.91049882E+01  0.00000000E+00  9.55249411E+00
  9.55249411E+00 -1.91049882E+01  0.00000000E+00  9.55249411E+00  9.55249411E+00
 -1.91049882E+01  0.00000000E+00  9.55249411E+00  9.55249411E+00 -1.91049882E+01
  0.00000000E+00  9.55249411E+00  9.55249411E+00 -1.91049882E+01  0.00000000E+00
  9.55249411E+00  9.55249411E+00 -1.91049882E+01  0.00000000E+00  9.55249411E+00
  9.55249411E+00 -1.91049882E+01  0.00000000E+00  9.55249411E+00  9.55249411E+00
 -1.91049882E+01  0.00000000E+00  9.55249411E+00  9.55249411E+00 -1.91049882E+01
  0.00000000E+00  9.55249411E+00  9.55249411E+00 -1.91049882E+01  0.00000000E+00
  9.55249411E+00  9.55249411E+00 -1.91049882E+01  0.00000000E+00  9.55249411E+00
  9.55249411E+00 -1.91049882E+01  0.00000000E+00  9.55249411E+00  9.55249411E+00
 -1.91049882E+01  0.00000000E+00  9.55249411E+00  9.55249411E+00 -1.91049882E+01
  0.00000000E+00  9.55249411E+00  9.55249411E+00 -1.91049882E+01  0.00000000E+00
  9.55249411E+00  9.55249411E+00 -1.91049882E+01  0.00000000E+00  9.55249411E+00
  9.55249411E+00 -1.91049882E+01  0.00000000E+00  9.55249411E+00  9.55249411E+00
 -1.91049882E+01  0.00000000E+00  9.55249411E+00  9.55249411E+00 -1.91049882E+01
  0.00000000E+00  9.55249411E+00  9.55249411E+00 -1.91049882E+01  0.00000000E+00
  9.55249411E+00  9.55249411E+00 -1.91049882E+01  0.00000000E+00  9.55249411E+00
  9.55249411E+00 -1.91049882E+01  0.00000000E+00  9.55249411E+00  9.55249411E+00
 -1.91049882E+01  0.00000000E+00  9.55249411E+00  9.55249411E+00 -1.91049882E+01
  0.00000000E+00  9.55249411E+00  9.55249411E+00 -1.91049882E+01  0.00000000E+00
  9.55249411E+00  9.55249411E+00 -1.91049882E+01  0.00000000E+00  9.55249411E+00
  9.55249411E+00 -1.91049882E+01  0.00000000E+00  9.55249411E+00  9.55249411E+00
 -1.91049882E+01  0.00000000E+00  9.55249411E+00  9.55249411E+00 -1.91049882E+01
  0.00000000E+00  9.55249411E+00  9.55249411E+00 -1.91049882E+01  0.00000000E+00
  9.55249411E+00  9.55249411E+00 -1.91049882E+01  0.00000000E+00  9.55249411E+00
  9.55249411E+00 -1.91049882E+01  0.00000000E+00  9.55249411E+00  9.55249411E+00
 -1.91049882E+01  0.00000000E+00  9.55249411E+00  9.55249411E+00 -1.91049882E+01
  0.00000000E+00  9.55249411E+00  9.55249411E+00 -1.91049882E+01  0.00000000E+00
  9.55249411E+00  9.55249411E+00 -1.91049882E+01  0.00000000E+00  9.55249411E+00
  9.55249411E+00 -1.91049882E+01  0.00000000E+00  9.55249411E+00  9.55249411E+00
 -1.91049882E+01  0.00000000E+00  9.55249411E+00  9.55249411E+00 -1.91049882E+01
  0.00000000E+00  9.55249411E+00  9.55249411E+00 -1.91049882E+01  0.00000000E+00
  9.55249411E+00  9.55249411E+00 -1.91049882E+01  0.00000000E+00  9.55249411E+00
  9.55249411E+00 -1.91049882E+01  0.00000000E+00  9.55249411E+00  9.55249411E+00
 -1.91049882E+01  0.00000000E+00  9.55249411E+00  9.55249411E+00 -1.91049882E+01
  0.00000000E+00  9.55249411E+00  9.55249411E+00 -1.91049882E+01  0.00000000E+00
  9.55249411E+00  9.55249411E+00 -1.91049882E+01  0.00000000E+00  9.55249411E+00
  9.55249411E+00 -1.91049882E+01  0.00000000E+00  9.55249411E+00  9.55249411E+00
 -1.91049882E+01  0.00000000E+00  9.55249411E+00  9.55249411E+00 -1.91049882E+01
  0.00000000E+00  9.55249411E+00  9.55249411E+00 -1.91049882E+01  0.00000000E+00
  9.55249411E+00  9.55249411E+00 -1.91049882E+01  0.00000000E+00  9.55249411E+00
  9.55249411E+00 -1.91049882E+01  0.00000000E+00  9.55249411E+00  9.55249411E+00
 -1.91049882E+01  0.00000000E+00  9.55249411E+00  9.55249411E+00 -1.91049882E+01
  0.00000000E+00  9.55249411E+00  9.55249411E+00 -1.91049882E+01  0.00000000E+00
  9.55249411E+00  9.55249411E+00 -1.91049882E+01  0.00000000E+00  9.55249411E+00
  9.55249411E+00 -1.91049882E+01  0.00000000E+00  9.55249411E+00  9.55249411E+00
 -1.91049882E+01  0.00000000E+00  9.55249411E+00  9.55249411E+00 -1.91049882E+01
  0.00000000E+00  9.55249411E+00  9.55249411E+00 -1.91049882E+01  0.00000000E+00
  9.55249411E+00  9.55249411E+00 -1.91049882E+01  0.00000000E+00  9.55249411E+00
  9.55249411E+00 -1.91049882E+01  0.00000000E+00  9.55249411E+00  9.55249411E+00
 -1.91049882E+01  0.00000000E+00  9.55249411E+00  9.55249411E+00 -1.91049882E+01
  0.00000000E+00  9.55249411E+00  9.55249411E+00 -1.91049882E+01  0.00000000E+00
  9.55249411E+00  9.55249411E+00 -1.91049882E+01  0.00000000E+00  9.55249411E+00
  9.55249411E+00 -1.91049882E+01  0.00000000E+00  9.55249411E+00  9.55249411E+00
 -1.91049882E+01  0.00000000E+00  9.55249411E+00  9.55249411E+00 -1.91049882E+01
  0.00000000E+00  9.55249411E+00  9.55249411E+00 -1.91049882E+01  0.00000000E+00
  9.55249411E+00  9.55249411E+00 -1.91049882E+01  0.00000000E+00  9.55249411E+00
  9.55249411E+00 -1.91049882E+01  0.00000000E+00  9.55249411E+00  9.55249411E+00
 -1.91049882E+01  0.00000000E+00  9.55249411E+00  9.55249411E+00 -1.91049882E+01
  0.00000000E+00  9.55249411E+00  9.55249411E+00 -1.91049882E+01  0.00000000E+00
  9.55249411E+00  9.55249411E+00 -1.91049882E+01  0.00000000E+00  9.55249411E+00
  9.55249411E+00 -1.91049882E+01  0.00000000E+00  9.55249411E+00  9.55249411E+00
 -1.91049882E+01  0.00000000E+00  9.55249411E+00  9.55249411E+00 -1.91049882E+01
  0.00000000E+00  9.55249411E+00  9.55249411E+00 -1.91049882E+01  0.00000000E+00
  9.55249411E+00  9.55249411E+00 -1.91049882E+01  0.00000000E+00  9.55249411E+00
  9.55249411E+00 -1.91049882E+01  0.00000000E+00  9.55249411E+00  9.55249411E+00
 -1.91049882E+01  0.00000000E+00  9.55249411E+00  9.55249411E+00 -1.91049882E+01
  0.00000000E+00  9.55249411E+00  9.55249411E+00 -1.91049882E+01  0.00000000E+00
  9.55249411E+00  9.55249411E+00 -1.91049882E+01  0.00000000E+00  9.55249411E+00
  9.55249411E+00 -1.91049882E+01  0.00000000E+00  9.55249411E+00  9.55249411E+00
 -1.91049882E+01  0.00000000E+00  9.55249411E+00  9.55249411E+00 -1.91049882E+01
  0.00000000E+00  9.55249411E+00  9.55249411E+00 -1.91049882E+01  0.00000000E+00
  9.55249411E+00  9.55249411E+00 -1.91049882E+01  0.00000000E+00  9.55249411E+00
  9.55249411E+00 -1.91049882E+01  0.00000000E+00  9.55249411E+00  9.55249411E+00
 -1.91049882E+01  0.00000000E+00  9.55249411E+00  9.55249411E+00 -1.91049882E+01
  0.00000000E+00  9.55249411E+00  9.55249411E+00 -1.91049882E+01  0.00000000E+00
  9.55249411E+00  9.55249411E+00 -1.91049882E+01  0.00000000E+00  9.55249411E+00
  9.55249411E+00 -1.91049882E+01  0.00000000E+00  9.55249411E+00  9.55249411E+00
 -1.91049882E+01  0.00000000E+00  9.55249411E+00  9.55249411E+00 -1.91049882E+01
  0.00000000E+00  9.55249411E+00  9.55249411E+00 -1.91049882E+01  0.00000000E+00
  9.55249411E+00  9.55249411E+00 -1.91049882E+01  0.00000000E+00  9.55249411E+00
  9.55249411E+00 -1.91049882E+01  0.00000000E+00  9.55249411E+00  9.55249411E+00
 -1.91049882E+01  0.00000000E+00  9.55249411E+00  9.55249411E+00 -1.91049882E+01
  0.00000000E+00  9.55249411E+00  9.55249411E+00 -1.91049882E+01  0.00000000E+00
  9.55249411E+00  9.55249411E+00 -1.91049882E+01  0.00000000E+00  9.55249411E+00
  9.55249411E+00 -1.91049882E+01  0.00000000E+00  9.55249411E+00  9.55249411E+00
 -1.91049882E+01  0.00000000E+00  9.55249411E+00  9.55249411E+00 -1.91049882E+01
  0.00000000E+00  9.55249411E+00  9.55249411E+00 -1.91049882E+01  0.00000000E+00
  9.55249411E+00  9.55249411E+00 -1.91049882E+01  0.00000000E+00  9.55249411E+00
  9.55249411E+00 -1.91049882E+01  0.00000000E+00  9.55249411E+00  9.55249411E+00
 -1.91049882E+01  0.00000000E+00  9.55249411E+00  9.55249411E+00 -1.91049882E+01
  0.00000000E+00  9.55249411E+00  9.55249411E+00 -1.91049882E+01  0.00000000E+00
  9.55249411E+00  9.55249411E+00 -1.91049882E+01  0.00000000E+00  9.55249411E+00
  9.55249411E+00 -1.91049882E+01  0.00000000E+00  9.55249411E+00  9.55249411E+00
 -1.91049882E+01  0.00000000E+00  9.55249411E+00  9.55249411E+00 -1.91049882E+01
  0.00000000E+00  9.55249411E+00  9.55249411E+00 -1.91049882E+01  0.00000000E+00
  9.55249411E+00  9.55249411E+00 -1.91049882E+01  0.00000000E+00  9.55249411E+00
  9.55249411E+00 -1.91049882E+01  0.00000000E+00  9.55249411E+00  9.55249411E+00
 -1.91049882E+01  0.00000000E+00  9.55249411E+00  9.55249411E+00 -1.91049882E+01
  0.00000000E+00  9.55249411E+00  9.55249411E+00 -1.91049882E+01  0.00000000E+00
  9.55249411E+00  9.55249411E+00 -1.91049882E+01  0.00000000E+00  9.55249411E+00
  9.55249411E+00 -1.91049882E+01  0.00000000E+00  9.55249411E+00  9.55249411E+00
 -1.91049882E+01  0.00000000E+00  9.55249411E+00  9.55249411E+00 -1.91049882E+01
  0.00000000E+00  9.55249411E+00  9.55249411E+00 -1.91049882E+01  0.00000000E+00
  9.55249411E+00  9.55249411E+00 -1.91049882E+01  0.00000000E+00  9.55249411E+00
  9.55249411E+00 -1.91049882E+01  0.00000000E+00  9.55249411E+00  9.55249411E+00
 -1.91049882E+01  0.00000000E+00  9.55249411E+00  9.55249411E+00 -1.91049882E+01
  0.00000000E+00  9.55249411E+00  9.55249411E+00 -1.91049882E+01  0.00000000E+00
  9.55249411E+00  9.55249411E+00 -1.91049882E+01  0.00000000E+00  9.55249411E+00
  9.55249411E+00 -1.91049882E+01  0.00000000E+00  9.55249411E+00  9.55249411E+00
 -1.91049882E+01  0.00000000E+00  9.55249411E+00  9.55249411E+00 -1.91049882E+01
  0.00000000E+00  9.55249411E+00  9.55249411E+00 -1.91049882E+01  0.00000000E+00
  9.55249411E+00  9.55249411E+00 -1.91049882E+01  0.00000000E+00  9.55249411E+00
  9.55249411E+00 -1.91049882E+01  0.00000000E+00  9.55249411E+00  9.55249411E+00
 -1.91049882E+01  0.00000000E+00  9.55249411E+00  9.55249411E+00 -1.91049882E+01
  0.00000000E+00  9.55249411E+00  9.55249411E+00 -1.91049882E+01  0.00000000E+00
  9.55249411E+00  9.55249411E+00 -1.91049882E+01  0.00000000E+00  9.55249411E+00
  9.55249411E+00 -1.91049882E+01  0.00000000E+00  9.55249411E+00  9.55249411E+00
 -1.91049882E+01  0.00000000E+00  9.55249411E+00  9.55249411E+00 -1.91049882E+01
  0.00000000E+00  9.55249411E+00  9.55249411E+00 -1.91049882E+01  0.00000000E+00
  9.55249411E+00  9.55249411E+00 -1.91049882E+01  0.00000000E+00  9.55249411E+00
  9.55249411E+00 -1.91049882E+01  0.00000000E+00  9.55249411E+00  9.55249411E+00
 -1.91049882E+01  0.00000000E+00  9.55249411E+00  9.55249411E+00 -1.91049882E+01
  0.00000000E+00  9.55249411E+00  9.55249411E+00 -1.91049882E+01  0.00000000E+00
  9.55249411E+00  9.55249411E+00 -1.91049882E+01  0.00000000E+00  9.55249411E+00
  9.55249411E+00 -1.91049882E+01  0.00000000E+00  9.55249411E+00  9.55249411E+00
 -1.91049882E+01  0.00000000E+00  9.55249411E+00  9.55249411E+00 -1.91049882E+01
  0.00000000E+00  9.55249411E+00  9.55249411E+00 -1.91049882E+01  0.00000000E+00
  9.55249411E+00  9.55249411E+00 -1.91049882E+01  0.00000000E+00  9.55249411E+00
  9.55249411E+00 -1.91049882E+01  0.00000000E+00  9.55249411E+00  9.55249411E+00
 -1.91049882E+01  0.00000000E+00  9.55249411E+00  9.55249411E+00 -1.91049882E+01
  0.00000000E+00  9.55249411E+00  9.55249411E+00 -1.91049882E+01  0.00000000E+00
  9.55249411E+00  9.55249411E+00 -1.91049882E+01  0.00000000E+00  9.55249411E+00
  9.55249411E+00 -1.91049882E+01  0.00000000E+00  9.55249411E+00  9.55249411E+00
 -1.91049882E+01  0.00000000E+00  9.55249411E+00  9.55249411E+00 -1.91049882E+01
  0.00000000E+00  9.55249411E+00  9.55249411E+00 -1.91049882E+01  0.00000000E+00
  9.55249411E+00  9.55249411E+00 -1.91049882E+01  0.00000000E+00  9.55249411E+00
  9.55249411E+00 -1.91049882E+01  0.00000000E+00  9.55249411E+00  9.55249411E+00
 -1.91049882E+01  0.00000000E+00  9.55249411E+00  9.55249411E+00 -1.91049882E+01
  0.00000000E+00  9.55249411E+00  9.55249411E+00 -1.91049882E+01  0.00000000E+00
  9.55249411E+00  9.55249411E+00 -1.91049882E+01  0.00000000E+00  9.55249411E+00
  9.55249411E+00 -1.91049882E+01  0.00000000E+00  9.55249411E+00  9.55249411E+00
 -1.91049882E+01  0.00000000E+00  9.55249411E+00  9.55249411E+00 -1.91049882E+01
  0.00000000E+00  9.55249411E+00  9.55249411E+00 -1.91049882E+01  0.00000000E+00
  9.55249411E+00  9.55249411E+00 -1.91049882E+01  0.00000000E+00  9.55249411E+00
  9.55249411E+00 -1.91049882E+01  0.00000000E+00  9.55249411E+00  9.55249411E+00
 -1.91049882E+01  0.00000000E+00  9.55249411E+00  9.55249411E+00 -1.91049882E+01
  0.00000000E+00  9.55249411E+00  9.55249411E+00 -1.91049882E+01  0.00000000E+00
  9.55249411E+00  9.55249411E+00 -1.91049882E+01  0.00000000E+00  9.55249411E+00
  9.55249411E+00 -1.91049882E+01  0.00000000E+00  9.55249411E+00  9.55249411E+00
 -1.91049882E+01  0.00000000E+00  9.55249411E+00  9.55249411E+00 -1.91049882E+01
  0.00000000E+00  9.55249411E+00  9.55249411E+00 -1.91049882E+01  0.00000000E+00
  9.55249411E+00  9.55249411E+00 -1.91049882E+01  0.00000000E+00  9.55249411E+00
  9.55249411E+00 -1.91049882E+01  0.00000000E+00  9.55249411E+00  9.55249411E+00
 -1.91049882E+01  0.00000000E+00  9.55249411E+00  9.55249411E+00 -1.91049882E+01
  0.00000000E+00  9.55249411E+00  9.55249411E+00 -1.91049882E+01  0.00000000E+00
  9.55249411E+00  9.55249411E+00 -1.91049882E+01  0.00000000E+00  9.55249411E+00
  9.55249411E+00 -1.91049882E+01  0.00000000E+00  9.55249411E+00  9.55249411E+00
 -1.91049882E+01  0.00000000E+00  9.55249411E+00  9.55249411E+00 -1.91049882E+01
  0.00000000E+00  9.55249411E+00  9.55249411E+00 -1.91049882E+01  0.00000000E+00
  9.55249411E+00  9.55249411E+00 -1.91049882E+01  0.00000000E+00  9.55249411E+00
  9.55249411E+00 -1.91049882E+01  0.00000000E+00  9.55249411E+00  9.55249411E+00
 -1.91049882E+01  0.00000000E+00  9.55249411E+00  9.55249411E+00 -1.91049882E+01
  0.00000000E+00  9.55249411E+00  9.55249411E+00 -1.91049882E+01  0.00000000E+00
  9.55249411E+00  9.55249411E+00 -1.91049882E+01  0.00000000E+00  9.55249411E+00
  9.55249411E+00 -1.91049882E+01  0.00000000E+00  9.55249411E+00  9.55249411E+00
 -1.91049882E+01  0.00000000E+00  9.55249411E+00  9.55249411E+00 -1.91049882E+01
  0.00000000E+00  9.55249411E+00  9.55249411E+00 -1.91049882E+01  0.00000000E+00
  9.55249411E+00  9.55249411E+00 -1.91049882E+01  0.00000000E+00  9.55249411E+00
  9.55249411E+00 -1.91049882E+01  0.00000000E+00  9.55249411E+00  9.55249411E+00
 -1.91049882E+01  0.00000000E+00  9.55249411E+00  9.55249411E+00 -1.91049882E+01
  0.00000000E+00  9.55249411E+00  9.55249411E+00 -1.91049882E+01  0.00000000E+00
  9.55249411E+00  9.55249411E+00 -1.91049882E+01  0.00000000E+00  9.55249411E+00
  9.55249411E+00 -1.91049882E+01  0.00000000E+00  9.55249411E+00  9.55249411E+00
 -1.91049882E+01  0.00000000E+00  9.55249411E+00  9.55249411E+00 -1.91049882E+01
  0.00000000E+00  9.55249411E+00  9.55249411E+00 -1.91049882E+01  0.00000000E+00
  9.55249411E+00  9.55249411E+00 -1.91049882E+01  0.00000000E+00  9.55249411E+00
  9.55249411E+00 -1.91049882E+01  0.00000000E+00  9.55249411E+00  9.55249411E+00
 -1.91049882E+01  0.00000000E+00  9.55249411E+00  9.55249411E+00 -1.91049882E+01
  0.00000000E+00  9.55249411E+00  9.55249411E+00 -1.91049882E+01  0.00000000E+00
  9.55249411E+00  9.55249411E+00 -1.91049882E+01  0.00000000E+00  9.55249411E+00
  9.55249411E+00 -1.91049882E+01  0.00000000E+00  9.55249411E+00  9.55249411E+00
 -1.91049882E+01  0.00000000E+00  9.55249411E+00  9.55249411E+00 -1.91049882E+01
  0.00000000E+00  9.55249411E+00  9.55249411E+00 -1.91049882E+01  0.00000000E+00
  9.55249411E+00  9.55249411E+00 -1.91049882E+01  0.00000000E+00  9.55249411E+00
  9.55249411E+00 -1.91049882E+01  0.00000000E+00  9.55249411E+00  9.55249411E+00
 -1.91049882E+01  0.00000000E+00  9.55249411E+00  9.55249411E+00 -1.91049882E+01
  0.00000000E+00  9.55249411E+00  9.55249411E+00 -1.91049882E+01  0.00000000E+00
  9.55249411E+00  9.55249411E+00 -1.91049882E+01  0.00000000E+00  9.55249411E+00
  9.55249411E+00 -1.91049882E+01  0.00000000E+00  9.55249411E+00  9.55249411E+00
 -1.91049882E+01  0.00000000E+00  9.55249411E+00  9.55249411E+00 -1.91049882E+01
  0.00000000E+00  9.55249411E+00  9.55249411E+00 -1.91049882E+01  0.00000000E+00
  9.55249411E+00  9.55249411E+00 -1.91049882E+01  0.00000000E+00  9.55249411E+00
  9.55249411E+00 -1.91049882E+01  0.00000000E+00  9.55249411E+00  9.55249411E+00
 -1.91049882E+01  0.00000000E+00  9.55249411E+00  9.55249411E+00 -1.91049882E+01
  0.00000000E+00  9.55249411E+00  9.55249411E+00 -1.91049882E+01  0.00000000E+00
  9.55249411E+00  9.55249411E+00 -1.91049882E+01  0.00000000E+00  9.55249411E+00
  9.55249411E+00 -1.91049882E+01  0.00000000E+00  9.55249411E+00  9.55249411E+00
 -1.91049882E+01  0.00000000E+00  9.55249411E+00  9.55249411E+00 -1.91049882E+01
  0.00000000E+00  9.55249411E+00  9.55249411E+00 -1.91049882E+01  0.00000000E+00
  9.55249411E+00  9.55249411E+00 -1.91049882E+01  0.00000000E+00  9.55249411E+00
  9.55249411E+00 -1.91049882E+01  0.00000000E+00  9.55249411E+00  9.55249411E+00
 -1.91049882E+01  0.00000000E+00  9.55249411E+00  9.55249411E+00 -1.91049882E+01
  0.00000000E+00  9.55249411E+00  9.55249411E+00 -1.91049882E+01  0.00000000E+00
  9.55249411E+00  9.55249411E+00 -1.91049882E+01  0.00000000E+00  9.55249411E+00
  9.55249411E+00 -1.91049882E+01  0.00000000E+00  9.55249411E+00  9.55249411E+00
 -1.91049882E+01  0.00000000E+00  9.55249411E+00  9.55249411E+00 -1.91049882E+01
  0.00000000E+00  9.55249411E+00  9.55249411E+00 -1.91049882E+01  0.00000000E+00
  9.55249411E+00  9.55249411E+00 -1.91049882E+01  0.00000000E+00  9.55249411E+00
  9.55249411E+00 -1.91049882E+01  0.00000000E+00  9.55249411E+00  9.55249411E+00
 -1.91049882E+01  0.00000000E+00  9.55249411E+00  9.55249411E+00 -1.91049882E+01
  0.00000000E+00  9.55249411E+00  9.55249411E+00 -1.91049882E+01  0.00000000E+00
  9.55249411E+00  9.55249411E+00 -1.91049882E+01  0.00000000E+00  9.55249411E+00
  9.55249411E+00 -1.91049882E+01  0.00000000E+00  9.55249411E+00  9.55249411E+00
 -1.91049882E+01  0.00000000E+00  9.55249411E+00  9.55249411E+00 -1.91049882E+01
  0.00000000E+00  9.55249411E+00  9.55249411E+00 -1.91049882E+01  0.00000000E+00
  9.55249411E+00  9.55249411E+00 -1.91049882E+01  0.00000000E+00  9.55249411E+00
  9.55249411E+00 -1.91049882E+01  0.00000000E+00  9.55249411E+00  9.55249411E+00
 -1.91049882E+01  0.00000000E+00  9.55249411E+00  9.55249411E+00 -1.91049882E+01
  0.00000000E+00  9.55249411E+00  9.55249411E+00 -1.91049882E+01  0.00000000E+00
  9.55249411E+00  9.55249411E+00 -1.91049882E+01  0.00000000E+00  9.55249411E+00
  9.55249411E+00 -1.91049882E+01  0.00000000E+00  9.55249411E+00  9.55249411E+00
 -1.91049882E+01  0.00000000E+00  9.55249411E+00  9.55249411E+00 -1.91049882E+01
  0.00000000E+00  9.55249411E+00  9.55249411E+00 -1.91049882E+01  0.00000000E+00
  9.55249411E+00  9.55249411E+00 -1.91049882E+01  0.00000000E+00  9.55249411E+00
  9.55249411E+00 -1.91049882E+01  0.00000000E+00  9.55249411E+00  9.55249411E+00
 -1.91049882E+01  0.00000000E+00  9.55249411E+00  9.55249411E+00 -1.91049882E+01
  0.00000000E+00  9.55249411E+00  9.55249411E+00 -1.91049882E+01  0.00000000E+00
  9.55249411E+00  9.55249411E+00 -1.91049882E+01  0.00000000E+00  9.55249411E+00
  9.55249411E+00 -1.91049882E+01  0.00000000E+00  9.55249411E+00  9.55249411E+00
 -1.91049882E+01  0.00000000E+00  9.55249411E+00  9.55249411E+00 -1.91049882E+01
  0.00000000E+00  9.55249411E+00  9.55249411E+00 -1.91049882E+01  0.00000000E+00
  9.55249411E+00  9.55249411E+00 -1.91049882E+01  0.00000000E+00  9.55249411E+00
  9.55249411E+00 -1.91049882E+01  0.00000000E+00  9.55249411E+00  9.55249411E+00
 -1.91049882E+01  0.00000000E+00  9.55249411E+00  9.55249411E+00 -1.91049882E+01
  0.00000000E+00  9.55249411E+00  9.55249411E+00 -1.91049882E+01  0.00000000E+00
  9.55249411E+00  9.55249411E+00 -1.91049882E+01  0.00000000E+00  9.55249411E+00
  9.55249411E+00 -1.91049882E+01  0.00000000E+00  9.55249411E+00  9.55249411E+00
 -1.91049882E+01  0.00000000E+00  9.55249411E+00  9.55249411E+00 -1.91049882E+01
  0.00000000E+00  9.55249411E+00  9.55249411E+00 -1.91049882E+01  0.00000000E+00
  9.55249411E+00  9.55249411E+00 -1.91049882E+01  0.00000000E+00  9.55249411E+00
  9.55249411E+00 -1.91049882E+01  0.00000000E+00  9.55249411E+00  9.55249411E+00
 -1.91049882E+01  0.00000000E+00  9.55249411E+00  9.55249411E+00 -1.91049882E+01
  0.00000000E+00  9.55249411E+00  9.55249411E+00 -1.91049882E+01  0.00000000E+00
  9.55249411E+00  9.55249411E+00 -1.91049882E+01  0.00000000E+00  9.55249411E+00
  9.55249411E+00 -1.91049882E+01  0.00000000E+00  9.55249411E+00  9.55249411E+00
 -1.91049882E+01  0.00000000E+00  9.55249411E+00  9.55249411E+00 -1.91049882E+01
  0.00000000E+00  9.55249411E+00  9.55249411E+00 -1.91049882E+01  0.00000000E+00
  9.55249411E+00  9.55249411E+00 -1.91049882E+01  0.00000000E+00  9.55249411E+00
  9.55249411E+00 -1.91049882E+01  0.00000000E+00  9.55249411E+00  9.55249411E+00
 -1.91049882E+01  0.00000000E+00  9.55249411E+00  9.55249411E+00 -1.91049882E+01
  0.00000000E+00  9.55249411E+00  9.55249411E+00 -1.91049882E+01  0.00000000E+00
  9.55249411E+00  9.55249411E+00 -1.91049882E+01  0.00000000E+00  9.55249411E+00
  9.55249411E+00 -1.91049882E+01  0.00000000E+00  9.55249411E+00  9.55249411E+00
 -1.91049882E+01  0.00000000E+00  9.55249411E+00  9.55249411E+00 -1.91049882E+01
  0.00000000E+00  9.55249411E+00  9.55249411E+00 -1.91049882E+01  0.00000000E+00
  9.55249411E+00  9.55249411E+00 -1.91049882E+01  0.00000000E+00  9.55249411E+00
  9.55249411E+00 -1.91049882E+01  0.00000000E+00  9.55249411E+00  9.55249411E+00
 -1.91049882E+01  0.00000000E+00  9.55249411E+00  9.55249411E+00 -1.91049882E+01
  0.00000000E+00  9.55249411E+00  9.55249411E+00 -1.91049882E+01  0.00000000E+00
  9.55249411E+00  9.55249411E+00 -1.91049882E+01  0.00000000E+00  9.55249411E+00
  9.55249411E+00 -1.91049882E+01  0.00000000E+00  9.55249411E+00  9.55249411E+00
 -1.91049882E+01  0.00000000E+00  9.55249411E+00  9.55249411E+00 -1.91049882E+01
  0.00000000E+00  9.55249411E+00  9.55249411E+00 -1.91049882E+01  0.00000000E+00
  9.55249411E+00  9.55249411E+00 -1.91049882E+01  0.00000000E+00  9.55249411E+00
  9.55249411E+00 -1.91049882E+01  0.00000000E+00  9.55249411E+00  9.55249411E+00
 -1.91049882E+01  0.00000000E+00  9.55249411E+00  9.55249411E+00 -1.91049882E+01
  0.00000000E+00  9.55249411E+00  9.55249411E+00 -1.91049882E+01  0.00000000E+00
  9.55249411E+00  9.55249411E+00 -1.91049882E+01  0.00000000E+00  9.55249411E+00
  9.55249411E+00 -1.91049882E+01  0.00000000E+00  9.55249411E+00  9.55249411E+00
 -1.91049882E+01  0.00000000E+00  9.55249411E+00  9.55249411E+00 -1.91049882E+01
  0.00000000E+00  9.55249411E+00  9.55249411E+00 -1.91049882E+01  0.00000000E+00
  9.55249411E+00  9.55249411E+00 -1.91049882E+01  0.00000000E+00  9.55249411E+00
  9.55249411E+00 -1.91049882E+01  0.00000000E+00  9.55249411E+00  9.55249411E+00
 -1.91049882E+01  0.00000000E+00  9.55249411E+00  9.55249411E+00 -1.91049882E+01
  0.00000000E+00  9.55249411E+00  9.55249411E+00 -1.91049882E+01  0.00000000E+00
  9.55249411E+00  9.55249411E+00 -1.91049882E+01  0.00000000E+00  9.55249411E+00
  9.55249411E+00 -1.91049882E+01  0.00000000E+00  9.55249411E+00  9.55249411E+00
 -1.91049882E+01  0.00000000E+00  9.55249411E+00  9.55249411E+00 -1.91049882E+01
  0.00000000E+00  9.55249411E+00  9.55249411E+00 -1.91049882E+01  0.00000000E+00
  9.55249411E+00  9.55249411E+00 -1.91049882E+01  0.00000000E+00  9.55249411E+00
  9.55249411E+00 -1.91049882E+01  0.00000000E+00  9.55249411E+00  9.55249411E+00
 -1.91049882E+01  0.00000000E+00  9.55249411E+00  9.55249411E+00 -1.91049882E+01
  0.00000000E+00  9.55249411E+00  9.55249411E+00 -1.91049882E+01  0.00000000E+00
  9.55249411E+00  9.55249411E+00 -1.91049882E+01  0.00000000E+00  9.55249411E+00
  9.55249411E+00 -1.91049882E+01  0.00000000E+00  9.55249411E+00  9.55249411E+00
 -1.91049882E+01  0.00000000E+00  9.55249411E+00  9.55249411E+00 -1.91049882E+01
  0.00000000E+00  9.55249411E+00  9.55249411E+00 -1.91049882E+01  0.00000000E+00
  9.55249411E+00  9.55249411E+00 -1.91049882E+01  0.00000000E+00  9.55249411E+00
  9.55249411E+00 -1.91049882E+01  0.00000000E+00  9.55249411E+00  9.55249411E+00
 -1.91049882E+01  0.00000000E+00  9.55249411E+00  9.55249411E+00 -1.91049882E+01
  0.00000000E+00  9.55249411E+00  9.55249411E+00 -1.91049882E+01  0.00000000E+00
  9.55249411E+00  9.55249411E+00 -1.91049882E+01  0.00000000E+00  9.55249411E+00
  9.55249411E+00 -1.91049882E+01  0.00000000E+00  9.55249411E+00  9.55249411E+00
 -1.91049882E+01  0.00000000E+00  9.55249411E+00  9.55249411E+00 -1.91049882E+01
  0.00000000E+00  9.55249411E+00  9.55249411E+00 -1.91049882E+01  0.00000000E+00
  9.55249411E+00  9.55249411E+00 -1.91049882E+01  0.00000000E+00  9.55249411E+00
  9.55249411E+00 -1.91049882E+01  0.00000000E+00  9.55249411E+00  9.55249411E+00
 -1.91049882E+01  0.00000000E+00  9.55249411E+00  9.55249411E+00 -1.91049882E+01
  0.00000000E+00  9.55249411E+00  9.55249411E+00 -1.91049882E+01  0.00000000E+00
  9.55249411E+00  9.55249411E+00 -1.91049882E+01  0.00000000E+00  9.55249411E+00
  9.55249411E+00 -1.91049882E+01  0.00000000E+00  9.55249411E+00  9.55249411E+00
 -1.91049882E+01  0.00000000E+00  9.55249411E+00  9.55249411E+00 -1.91049882E+01
  0.00000000E+00  9.55249411E+00  9.55249411E+00 -1.91049882E+01  0.00000000E+00
  9.55249411E+00  9.55249411E+00 -1.91049882E+01  0.00000000E+00  9.55249411E+00
  9.55249411E+00 -1.91049882E+01  0.00000000E+00  9.55249411E+00  9.55249411E+00
 -1.91049882E+01  0.00000000E+00  9.55249411E+00  9.55249411E+00 -1.91049882E+01
  0.00000000E+00  9.55249411E+00  9.55249411E+00 -1.91049882E+01  0.00000000E+00
  9.55249411E+00  9.55249411E+00 -1.91049882E+01  0.00000000E+00  9.55249411E+00
  9.55249411E+00 -1.91049882E+01  0.00000000E+00  9.55249411E+00  9.55249411E+00
 -1.91049882E+01  0.00000000E+00  9.55249411E+00  9.55249411E+00 -1.91049882E+01
  0.00000000E+00  9.55249411E+00  9.55249411E+00 -1.91049882E+01  0.00000000E+00
  9.55249411E+00  9.55249411E+00 -1.91049882E+01  0.00000000E+00  9.55249411E+00
  9.55249411E+00 -1.91049882E+01  0.00000000E+00  9.55249411E+00  9.55249411E+00
 -1.91049882E+01  0.00000000E+00  9.55249411E+00  9.55249411E+00 -1.91049882E+01
  0.00000000E+00  9.55249411E+00  9.55249411E+00 -1.91049882E+01  0.00000000E+00
  9.55249411E+00  9.55249411E+00 -1.91049882E+01  0.00000000E+00  9.55249411E+00
  9.55249411E+00 -1.91049882E+01  0.00000000E+00  9.55249411E+00  9.55249411E+00
 -1.91049882E+01  0.00000000E+00  9.55249411E+00  9.55249411E+00 -1.91049882E+01
  0.00000000E+00  9.55249411E+00  9.55249411E+00 -1.91049882E+01  0.00000000E+00
  9.55249411E+00  9.55249411E+00 -1.91049882E+01  0.00000000E+00  9.55249411E+00
  9.55249411E+00 -1.91049882E+01  0.00000000E+00  9.55249411E+00  9.55249411E+00
 -1.91049882E+01  0.00000000E+00  9.55249411E+00  9.55249411E+00 -1.91049882E+01
  0.00000000E+00  9.55249411E+00  9.55249411E+00 -1.91049882E+01  0.00000000E+00
  9.55249411E+00  9.55249411E+00 -1.91049882E+01  0.00000000E+00  9.55249411E+00
  9.55249411E+00 -1.91049882E+01  0.00000000E+00  9.55249411E+00  9.55249411E+00
 -1.91049882E+01  0.00000000E+00  9.55249411E+00  9.55249411E+00 -1.91049882E+01
  0.00000000E+00  9.55249411E+00  9.55249411E+00 -1.91049882E+01  0.00000000E+00
  9.55249411E+00  9.55249411E+00 -1.91049882E+01  0.00000000E+00  9.55249411E+00
  9.55249411E+00 -1.91049882E+01  0.00000000E+00  9.55249411E+00  9.55249411E+00
 -1.91049882E+01  0.00000000E+00  9.55249411E+00  9.55249411E+00 -1.91049882E+01
  0.00000000E+00  9.55249411E+00  9.55249411E+00 -1.91049882E+01  0.00000000E+00
  9.55249411E+00  9.55249411E+00 -1.91049882E+01  0.00000000E+00  9.55249411E+00
  9.55249411E+00 -1.91049882E+01  0.00000000E+00  9.55249411E+00  9.55249411E+00
 -1.91049882E+01  0.00000000E+00  9.55249411E+00  9.55249411E+00 -1.91049882E+01
  0.00000000E+00  9.55249411E+00  9.55249411E+00 -1.91049882E+01  0.00000000E+00
  9.55249411E+00  9.55249411E+00 -1.91049882E+01  0.00000000E+00  9.55249411E+00
  9.55249411E+00 -1.91049882E+01  0.00000000E+00  9.55249411E+00  9.55249411E+00
 -1.91049882E+01  0.00000000E+00  9.55249411E+00  9.55249411E+00 -1.91049882E+01
  0.00000000E+00  9.55249411E+00  9.55249411E+00 -1.91049882E+01  0.00000000E+00
  9.55249411E+00  9.55249411E+00 -1.91049882E+01  0.00000000E+00  9.55249411E+00
  9.55249411E+00 -1.91049882E+01  0.00000000E+00  9.55249411E+00  9.55249411E+00
 -1.91049882E+01  0.00000000E+00  9.55249411E+00  9.55249411E+00 -1.91049882E+01
  0.00000000E+00  9.55249411E+00  9.55249411E+00 -1.91049882E+01  0.00000000E+00
  9.55249411E+00  9.55249411E+00 -1.91049882E+01  0.00000000E+00  9.55249411E+00
  9.55249411E+00 -1.91049882E+01  0.00000000E+00  9.55249411E+00  9.55249411E+00
 -1.91049882E+01  0.00000000E+00  9.55249411E+00  9.55249411E+00 -1.91049882E+01
  0.00000000E+00  9.55249411E+00  9.55249411E+00 -1.91049882E+01  0.00000000E+00
  9.55249411E+00  9.55249411E+00 -1.91049882E+01  0.00000000E+00  9.55249411E+00
  9.55249411E+00 -1.91049882E+01  0.00000000E+00  9.55249411E+00  9.55249411E+00
 -1.91049882E+01  0.00000000E+00  9.55249411E+00  9.55249411E+00 -1.91049882E+01
  0.00000000E+00  9.55249411E+00  9.55249411E+00 -1.91049882E+01  0.00000000E+00
  9.55249411E+00  9.55249411E+00 -1.91049882E+01  0.00000000E+00  9.55249411E+00
  9.55249411E+00 -1.91049882E+01  0.00000000E+00  9.55249411E+00  9.55249411E+00
 -1.91049882E+01  0.00000000E+00  9.55249411E+00  9.55249411E+00 -1.91049882E+01
  0.00000000E+00  9.55249411E+00  9.55249411E+00 -1.91049882E+01  0.00000000E+00
  9.55249411E+00  9.55249411E+00 -1.91049882E+01  0.00000000E+00  9.55249411E+00
  9.55249411E+00 -1.91049882E+01  0.00000000E+00  9.55249411E+00  9.55249411E+00
 -1.91049882E+01  0.00000000E+00  9.55249411E+00  9.55249411E+00 -1.91049882E+01
  0.00000000E+00  9.55249411E+00  9.55249411E+00 -1.91049882E+01  0.00000000E+00
  9.55249411E+00  9.55249411E+00 -1.91049882E+01  0.00000000E+00  9.55249411E+00
  9.55249411E+00 -1.91049882E+01  0.00000000E+00  9.55249411E+00  9.55249411E+00
 -1.91049882E+01  0.00000000E+00  9.55249411E+00  9.55249411E+00 -1.91049882E+01
  0.00000000E+00  9.55249411E+00  9.55249411E+00 -1.91049882E+01  0.00000000E+00
  9.55249411E+00  9.55249411E+00 -1.91049882E+01  0.00000000E+00  9.55249411E+00
  9.55249411E+00 -1.91049882E+01  0.00000000E+00  9.55249411E+00  9.55249411E+00
 -1.91049882E+01  0.00000000E+00  9.55249411E+00  9.55249411E+00 -1.91049882E+01
  0.00000000E+00  9.55249411E+00  9.55249411E+00 -1.91049882E+01  0.00000000E+00
  9.55249411E+00  9.55249411E+00 -1.91049882E+01  0.00000000E+00  9.55249411E+00
  9.55249411E+00 -1.91049882E+01  0.00000000E+00  9.55249411E+00  9.55249411E+00
 -1.91049882E+01  0.00000000E+00  9.55249411E+00  9.55249411E+00 -1.91049882E+01
  0.00000000E+00  9.55249411E+00  9.55249411E+00 -1.91049882E+01  0.00000000E+00
  9.55249411E+00  9.55249411E+00 -1.91049882E+01  0.00000000E+00  9.55249411E+00
  9.55249411E+00 -1.91049882E+01  0.00000000E+00  9.55249411E+00  9.55249411E+00
 -1.91049882E+01  0.00000000E+00  9.55249411E+00  9.55249411E+00 -1.91049882E+01
  0.00000000E+00  9.55249411E+00  9.55249411E+00 -1.91049882E+01  0.00000000E+00
  9.55249411E+00  9.55249411E+00 -1.91049882E+01  0.00000000E+00  9.55249411E+00
  9.55249411E+00 -1.91049882E+01  0.00000000E+00  9.55249411E+00  9.55249411E+00
 -1.91049882E+01  0.00000000E+00  9.55249411E+00  9.55249411E+00 -1.91049882E+01
  0.00000000E+00  9.55249411E+00  9.55249411E+00 -1.91049882E+01  0.00000000E+00
  9.55249411E+00  9.55249411E+00 -1.91049882E+01  0.00000000E+00  9.55249411E+00
  9.55249411E+00 -1.91049882E+01  0.00000000E+00  9.55249411E+00  9.55249411E+00
 -1.91049882E+01  0.00000000E+00  9.55249411E+00  9.55249411E+00 -1.91049882E+01
  0.00000000E+00  9.55249411E+00  9.55249411E+00 -1.91049882E+01  0.00000000E+00
  9.55249411E+00  9.55249411E+00 -1.91049882E+01  0.00000000E+00  9.55249411E+00
  9.55249411E+00 -1.91049882E+01  0.00000000E+00  9.55249411E+00  9.55249411E+00
 -1.91049882E+01  0.00000000E+00  9.55249411E+00  9.55249411E+00 -1.91049882E+01
  0.00000000E+00  9.55249411E+00  9.55249411E+00 -1.91049882E+01  0.00000000E+00
  9.55249411E+00  9.55249411E+00 -1.91049882E+01  0.00000000E+00  9.55249411E+00
  9.55249411E+00 -1.91049882E+01  0.00000000E+00  9.55249411E+00  9.55249411E+00
 -1.91049882E+01  0.00000000E+00  9.55249411E+00  9.55249411E+00 -1.91049882E+01
  0.00000000E+00  9.55249411E+00  9.55249411E+00 -1.91049882E+01  0.00000000E+00
  9.55249411E+00  9.55249411E+00 -1.91049882E+01  0.00000000E+00  9.55249411E+00
  9.55249411E+00 -1.91049882E+01  0.00000000E+00  9.55249411E+00  9.55249411E+00
 -1.91049882E+01  0.00000000E+00  9.55249411E+00  9.55249411E+00 -1.91049882E+01
  0.00000000E+00  9.55249411E+00  9.55249411E+00 -1.91049882E+01  0.00000000E+00
  9.55249411E+00  9.55249411E+00 -1.91049882E+01  0.00000000E+00  9.55249411E+00
  9.55249411E+00 -1.91049882E+01  0.00000000E+00  9.55249411E+00  9.55249411E+00
 -1.91049882E+01  0.00000000E+00  9.55249411E+00  9.55249411E+00 -1.91049882E+01
  0.00000000E+00  9.55249411E+00  9.55249411E+00 -1.91049882E+01  0.00000000E+00
  9.55249411E+00  9.55249411E+00 -1.91049882E+01  0.00000000E+00  9.55249411E+00
  9.55249411E+00 -1.91049882E+01  0.00000000E+00  9.55249411E+00  9.55249411E+00
 -1.91049882E+01  0.00000000E+00  9.55249411E+00  9.55249411E+00 -1.91049882E+01
  0.00000000E+00  9.55249411E+00  9.55249411E+00 -1.91049882E+01  0.00000000E+00
  9.55249411E+00  9.55249411E+00 -1.91049882E+01  0.00000000E+00  9.55249411E+00
  9.55249411E+00 -1.91049882E+01  0.00000000E+00  9.55249411E+00  9.55249411E+00
 -1.91049882E+01  0.00000000E+00  9.55249411E+00  9.55249411E+00 -1.91049882E+01
  0.00000000E+00  9.55249411E+00  9.55249411E+00 -1.91049882E+01  0.00000000E+00
  9.55249411E+00  9.55249411E+00 -1.91049882E+01  0.00000000E+00  9.55249411E+00
  9.55249411E+00 -1.91049882E+01  0.00000000E+00  9.55249411E+00  9.55249411E+00
 -1.91049882E+01  0.00000000E+00  9.55249411E+00  9.55249411E+00 -1.91049882E+01
  0.00000000E+00  9.55249411E+00  9.55249411E+00 -1.91049882E+01  0.00000000E+00
  9.55249411E+00  9.55249411E+00 -1.91049882E+01  0.00000000E+00  9.55249411E+00
  9.55249411E+00 -1.91049882E+01  0.00000000E+00  9.55249411E+00  9.55249411E+00
 -1.91049882E+01  0.00000000E+00  9.55249411E+00  9.55249411E+00 -1.91049882E+01
  0.00000000E+00  9.55249411E+00  9.55249411E+00 -1.91049882E+01  0.00000000E+00
  9.55249411E+00  9.55249411E+00 -1.91049882E+01  0.00000000E+00  9.55249411E+00
  9.55249411E+00 -1.91049882E+01  0.00000000E+00  9.55249411E+00  9.55249411E+00
 -1.91049882E+01  0.00000000E+00  9.55249411E+00  9.55249411E+00 -1.91049882E+01
  0.00000000E+00  9.55249411E+00  9.55249411E+00 -1.91049882E+01  0.00000000E+00
  9.55249411E+00  9.55249411E+00 -1.91049882E+01  0.00000000E+00  9.55249411E+00
  9.55249411E+00 -1.91049882E+01  0.00000000E+00  9.55249411E+00  9.55249411E+00
 -1.91049882E+01  0.00000000E+00  9.55249411E+00  9.55249411E+00 -1.91049882E+01
  0.00000000E+00  9.55249411E+00  9.55249411E+00 -1.91049882E+01  0.00000000E+00
  9.55249411E+00  9.55249411E+00 -1.91049882E+01  0.00000000E+00  9.55249411E+00
  9.55249411E+00 -1.91049882E+01  0.00000000E+00  9.55249411E+00  9.55249411E+00
 -1.91049882E+01  0.00000000E+00  9.55249411E+00  9.55249411E+00 -1.91049882E+01
  0.00000000E+00  9.55249411E+00  9.55249411E+00 -1.91049882E+01  0.00000000E+00
  9.55249411E+00  9.55249411E+00 -1.91049882E+01  0.00000000E+00  9.55249411E+00
  9.55249411E+00 -1.91049882E+01  0.00000000E+00  9.55249411E+00  9.55249411E+00
 -1.91049882E+01  0.00000000E+00  9.55249411E+00  9.55249411E+00 -1.91049882E+01
  0.00000000E+00  9.55249411E+00  9.55249411E+00 -1.91049882E+01  0.00000000E+00
  9.55249411E+00  9.55249411E+00 -1.91049882E+01  0.00000000E+00  9.55249411E+00
  9.55249411E+00 -1.91049882E+01  0.00000000E+00  9.55249411E+00  9.55249411E+00
 -1.91049882E+01  0.00000000E+00  9.55249411E+00  9.55249411E+00 -1.91049882E+01
  0.00000000E+00  9.55249411E+00  9.55249411E+00 -1.91049882E+01  0.00000000E+00
  9.55249411E+00  9.55249411E+00 -1.91049882E+01  0.00000000E+00  9.55249411E+00
  9.55249411E+00 -1.91049882E+01  0.00000000E+00  9.55249411E+00  9.55249411E+00
 -1.91049882E+01  0.00000000E+00  9.55249411E+00  9.55249411E+00 -1.91049882E+01
  0.00000000E+00  9.55249411E+00  9.55249411E+00 -1.91049882E+01  0.00000000E+00
  9.55249411E+00  9.55249411E+00 -1.91049882E+01  0.00000000E+00  9.55249411E+00
  9.55249411E+00 -1.91049882E+01  0.00000000E+00  9.55249411E+00  9.55249411E+00
 -1.91049882E+01  0.00000000E+00  9.55249411E+00  9.55249411E+00 -1.91049882E+01
  0.00000000E+00  9.55249411E+00  9.55249411E+00 -1.91049882E+01  0.00000000E+00
  9.55249411E+00  9.55249411E+00 -1.91049882E+01  0.00000000E+00  9.55249411E+00
  9.55249411E+00 -1.91049882E+01  0.00000000E+00  9.55249411E+00  9.55249411E+00
 -1.91049882E+01  0.00000000E+00  9.55249411E+00  9.55249411E+00 -1.91049882E+01
  0.00000000E+00  9.55249411E+00  9.55249411E+00 -1.91049882E+01  0.00000000E+00
  9.55249411E+00  9.55249411E+00 -1.91049882E+01  0.00000000E+00  9.55249411E+00
  9.55249411E+00 -1.91049882E+01  0.00000000E+00  9.55249411E+00  9.55249411E+00
 -1.91049882E+01  0.00000000E+00  9.55249411E+00  9.55249411E+00 -1.91049882E+01
  0.00000000E+00  9.55249411E+00  9.55249411E+00 -1.91049882E+01  0.00000000E+00
  9.55249411E+00  9.55249411E+00 -1.91049882E+01  0.00000000E+00  9.55249411E+00
  9.55249411E+00 -1.91049882E+01  0.00000000E+00  9.55249411E+00  9.55249411E+00
 -1.91049882E+01  0.00000000E+00  9.55249411E+00  9.55249411E+00 -1.91049882E+01
  0.00000000E+00  9.55249411E+00  9.55249411E+00 -1.91049882E+01  0.00000000E+00
  9.55249411E+00  9.55249411E+00 -1.91049882E+01  0.00000000E+00  9.55249411E+00
  9.55249411E+00 -1.91049882E+01  0.00000000E+00  9.55249411E+00  9.55249411E+00
 -1.91049882E+01  0.00000000E+00  9.55249411E+00  9.55249411E+00 -1.91049882E+01
  0.00000000E+00  9.55249411E+00  9.55249411E+00 -1.91049882E+01  0.00000000E+00
  9.55249411E+00  9.55249411E+00 -1.91049882E+01  0.00000000E+00  9.55249411E+00
  9.55249411E+00 -1.91049882E+01  0.00000000E+00  9.55249411E+00  9.55249411E+00
 -1.91049882E+01  0.00000000E+00  9.55249411E+00  9.55249411E+00 -1.91049882E+01
  0.00000000E+00  9.55249411E+00  9.55249411E+00 -1.91049882E+01  0.00000000E+00
  9.55249411E+00  9.55249411E+00 -1.91049882E+01  0.00000000E+00  9.55249411E+00
  9.55249411E+00 -1.91049882E+01  0.00000000E+00  9.55249411E+00  9.55249411E+00
 -1.91049882E+01  0.00000000E+00  9.55249411E+00  9.55249411E+00 -1.91049882E+01
  0.00000000E+00  9.55249411E+00  9.55249411E+00 -1.91049882E+01  0.00000000E+00
  9.55249411E+00  9.55249411E+00 -1.91049882E+01  0.00000000E+00  9.55249411E+00
  9.55249411E+00 -1.91049882E+01  0.00000000E+00  9.55249411E+00  9.55249411E+00
 -1.91049882E+01  0.00000000E+00  9.55249411E+00  9.55249411E+00 -1.91049882E+01
  0.00000000E+00  9.55249411E+00  9.55249411E+00 -1.91049882E+01  0.00000000E+00
  9.55249411E+00  9.55249411E+00 -1.91049882E+01  0.00000000E+00  9.55249411E+00
  9.55249411E+00 -1.91049882E+01  0.00000000E+00  9.55249411E+00  9.55249411E+00
 -1.91049882E+01  0.00000000E+00  9.55249411E+00  9.55249411E+00 -1.91049882E+01
  0.00000000E+00  9.55249411E+00  9.55249411E+00 -1.91049882E+01  0.00000000E+00
  9.55249411E+00  9.55249411E+00 -1.91049882E+01  0.00000000E+00  9.55249411E+00
  9.55249411E+00 -1.91049882E+01  0.00000000E+00  9.55249411E+00  9.55249411E+00
 -1.91049882E+01  0.00000000E+00  9.55249411E+00  9.55249411E+00 -1.91049882E+01
  0.00000000E+00  9.55249411E+00  9.55249411E+00 -1.91049882E+01  0.00000000E+00
  9.55249411E+00  9.55249411E+00 -1.91049882E+01  0.00000000E+00  9.55249411E+00
  9.55249411E+00 -1.91049882E+01  0.00000000E+00  9.55249411E+00  9.55249411E+00
 -1.91049882E+01  0.00000000E+00  9.55249411E+00  9.55249411E+00 -1.91049882E+01
  0.00000000E+00  9.55249411E+00  9.55249411E+00 -1.91049882E+01  0.00000000E+00
  9.55249411E+00  9.55249411E+00 -1.91049882E+01  0.00000000E+00  9.55249411E+00
  9.55249411E+00 -1.91049882E+01  0.00000000E+00  9.55249411E+00  9.55249411E+00
 -1.91049882E+01  0.00000000E+00  9.55249411E+00  9.55249411E+00 -1.91049882E+01
  0.00000000E+00  9.55249411E+00  9.55249411E+00 -1.91049882E+01  0.00000000E+00
  9.55249411E+00  9.55249411E+00 -1.91049882E+01  0.00000000E+00  9.55249411E+00
  9.55249411E+00 -1.91049882E+01  0.00000000E+00  9.55249411E+00  9.55249411E+00
 -1.91049882E+01  0.00000000E+00  9.55249411E+00  9.55249411E+00 -1.91049882E+01
  0.00000000E+00  9.55249411E+00  9.55249411E+00 -1.91049882E+01  0.00000000E+00
  9.55249411E+00  9.55249411E+00 -1.91049882E+01  0.00000000E+00  9.55249411E+00
  9.55249411E+00 -1.91049882E+01  0.00000000E+00  9.55249411E+00  9.55249411E+00
 -1.91049882E+01  0.00000000E+00  9.55249411E+00  9.55249411E+00 -1.91049882E+01
  0.00000000E+00  9.55249411E+00  9.55249411E+00 -1.91049882E+01  0.00000000E+00
  9.55249411E+00  9.55249411E+00 -1.91049882E+01  0.00000000E+00  9.55249411E+00
  9.55249411E+00 -1.91049882E+01  0.00000000E+00  9.55249411E+00  9.55249411E+00
 -1.91049882E+01  0.00000000E+00  9.55249411E+00  9.55249411E+00 -1.91049882E+01
  0.00000000E+00  9.55249411E+00  9.55249411E+00 -1.91049882E+01  0.00000000E+00
  9.55249411E+00  9.55249411E+00 -1.91049882E+01  0.00000000E+00  9.55249411E+00
  9.55249411E+00 -1.91049882E+01  0.00000000E+00  9.55249411E+00  9.55249411E+00
 -1.91049882E+01  0.00000000E+00  9.55249411E+00  9.55249411E+00 -1.91049882E+01
  0.00000000E+00  9.55249411E+00  9.55249411E+00 -1.91049882E+01  0.00000000E+00
  9.55249411E+00  9.55249411E+00 -1.91049882E+01  0.00000000E+00  9.55249411E+00
  9.55249411E+00 -1.91049882E+01  0.00000000E+00  9.55249411E+00  9.55249411E+00
 -1.91049882E+01  0.00000000E+00  9.55249411E+00  9.55249411E+00 -1.91049882E+01
  0.00000000E+00  9.55249411E+00  9.55249411E+00 -1.91049882E+01  0.00000000E+00
  9.55249411E+00  9.55249411E+00 -1.91049882E+01  0.00000000E+00  9.55249411E+00
  9.55249411E+00 -1.91049882E+01  0.00000000E+00  9.55249411E+00  9.55249411E+00
 -1.91049882E+01  0.00000000E+00  9.55249411E+00  9.55249411E+00 -1.91049882E+01
  0.00000000E+00  9.55249411E+00  9.55249411E+00 -1.91049882E+01  0.00000000E+00
  9.55249411E+00  9.55249411E+00 -1.91049882E+01  0.00000000E+00  9.55249411E+00
  9.55249411E+00 -1.91049882E+01  0.00000000E+00  9.55249411E+00  9.55249411E+00
 -1.91049882E+01  0.00000000E+00  9.55249411E+00  9.55249411E+00 -1.91049882E+01
  0.00000000E+00  9.55249411E+00  9.55249411E+00 -1.91049882E+01  0.00000000E+00
  9.55249411E+00  9.55249411E+00 -1.91049882E+01  0.00000000E+00  9.55249411E+00
  9.55249411E+00 -1.91049882E+01  0.00000000E+00  9.55249411E+00  9.55249411E+00
 -1.91049882E+01  0.00000000E+00  9.55249411E+00  9.55249411E+00 -1.91049882E+01
  0.00000000E+00  9.55249411E+00  9.55249411E+00 -1.91049882E+01  0.00000000E+00
  9.55249411E+00  9.55249411E+00 -1.91049882E+01  0.00000000E+00  9.55249411E+00
  9.55249411E+00 -1.91049882E+01  0.00000000E+00  9.55249411E+00  9.55249411E+00
 -1.91049882E+01  0.00000000E+00  9.55249411E+00  9.55249411E+00 -1.91049882E+01
  0.00000000E+00  9.55249411E+00  9.55249411E+00 -1.91049882E+01  0.00000000E+00
  9.55249411E+00  9.55249411E+00 -1.91049882E+01  0.00000000E+00  9.55249411E+00
  9.55249411E+00 -1.91049882E+01  0.00000000E+00  9.55249411E+00  9.55249411E+00
 -1.91049882E+01  0.00000000E+00  9.55249411E+00  9.55249411E+00 -1.91049882E+01
  0.00000000E+00  9.55249411E+00  9.55249411E+00 -1.91049882E+01  0.00000000E+00
  9.55249411E+00  9.55249411E+00 -1.91049882E+01  0.00000000E+00  9.55249411E+00
  9.55249411E+00 -1.91049882E+01  0.00000000E+00  9.55249411E+00  9.55249411E+00
 -1.91049882E+01  0.00000000E+00  9.55249411E+00  9.55249411E+00 -1.91049882E+01
  0.00000000E+00  9.55249411E+00  9.55249411E+00 -1.91049882E+01  0.00000000E+00
  9.55249411E+00  9.55249411E+00 -1.91049882E+01  0.00000000E+00  9.55249411E+00
  9.55249411E+00 -1.91049882E+01  0.00000000E+00  9.55249411E+00  9.55249411E+00
 -1.91049882E+01  0.00000000E+00  9.55249411E+00  9.55249411E+00 -1.91049882E+01
  0.00000000E+00  9.55249411E+00  9.55249411E+00 -1.91049882E+01  0.00000000E+00
  9.55249411E+00  9.55249411E+00 -1.91049882E+01  0.00000000E+00  9.55249411E+00
  9.55249411E+00 -1.91049882E+01  0.00000000E+00  9.55249411E+00  9.55249411E+00
 -1.91049882E+01  0.00000000E+00  9.55249411E+00  9.55249411E+00 -1.91049882E+01
  0.00000000E+00  9.55249411E+00  9.55249411E+00 -1.91049882E+01  0.00000000E+00
  9.55249411E+00  9.55249411E+00 -1.91049882E+01  0.00000000E+00  9.55249411E+00
  9.55249411E+00 -1.91049882E+01  0.00000000E+00  9.55249411E+00  9.55249411E+00
 -1.91049882E+01  0.00000000E+00  9.55249411E+00  9.55249411E+00 -1.91049882E+01
  0.00000000E+00  9.55249411E+00  9.55249411E+00 -1.91049882E+01  0.00000000E+00
  9.55249411E+00  9.55249411E+00 -1.91049882E+01  0.00000000E+00  9.55249411E+00
  9.55249411E+00 -1.91049882E+01  0.00000000E+00  9.55249411E+00  9.55249411E+00
 -1.91049882E+01  0.00000000E+00  9.55249411E+00  9.55249411E+00 -1.91049882E+01
  0.00000000E+00  9.55249411E+00  9.55249411E+00 -1.91049882E+01  0.00000000E+00
  9.55249411E+00  9.55249411E+00 -1.91049882E+01  0.00000000E+00  9.55249411E+00
  9.55249411E+00 -1.91049882E+01  0.00000000E+00  9.55249411E+00  9.55249411E+00
 -1.91049882E+01  0.00000000E+00  9.55249411E+00  9.55249411E+00 -1.91049882E+01
  0.00000000E+00  9.55249411E+00  9.55249411E+00 -1.91049882E+01  0.00000000E+00
  9.55249411E+00  9.55249411E+00 -1.91049882E+01  0.00000000E+00  9.55249411E+00
  9.55249411E+00 -1.91049882E+01  0.00000000E+00  9.55249411E+00  9.55249411E+00
 -1.91049882E+01  0.00000000E+00  9.55249411E+00  9.55249411E+00 -1.91049882E+01
  0.00000000E+00  9.55249411E+00  9.55249411E+00 -1.91049882E+01  0.00000000E+00
  9.55249411E+00  9.55249411E+00 -1.91049882E+01  0.00000000E+00  9.55249411E+00
  9.55249411E+00 -1.91049882E+01  0.00000000E+00  9.55249411E+00  9.55249411E+00
 -1.91049882E+01  0.00000000E+00  9.55249411E+00  9.55249411E+00 -1.91049882E+01
  0.00000000E+00  9.55249411E+00  9.55249411E+00 -1.91049882E+01  0.00000000E+00
  9.55249411E+00  9.55249411E+00 -1.91049882E+01  0.00000000E+00  9.55249411E+00
  9.55249411E+00 -1.91049882E+01  0.00000000E+00  9.55249411E+00  9.55249411E+00
 -1.91049882E+01  0.00000000E+00  9.55249411E+00  9.55249411E+00 -1.91049882E+01
  0.00000000E+00  9.55249411E+00  9.55249411E+00 -1.91049882E+01  0.00000000E+00
  9.55249411E+00  9.55249411E+00 -1.91049882E+01  0.00000000E+00  9.55249411E+00
  9.55249411E+00 -1.91049882E+01  0.00000000E+00  9.55249411E+00  9.55249411E+00
 -1.91049882E+01  0.00000000E+00  9.55249411E+00  9.55249411E+00 -1.91049882E+01
  0.00000000E+00  9.55249411E+00  9.55249411E+00 -1.91049882E+01  0.00000000E+00
  9.55249411E+00  9.55249411E+00 -1.91049882E+01  0.00000000E+00  9.55249411E+00
  9.55249411E+00 -1.91049882E+01  0.00000000E+00  9.55249411E+00  9.55249411E+00
 -1.91049882E+01  0.00000000E+00  9.55249411E+00  9.55249411E+00 -1.91049882E+01
  0.00000000E+00  9.55249411E+00  9.55249411E+00 -1.91049882E+01  0.00000000E+00
  9.55249411E+00  9.55249411E+00 -1.91049882E+01  0.00000000E+00  9.55249411E+00
  9.55249411E+00 -1.91049882E+01  0.00000000E+00  9.55249411E+00  9.55249411E+00
 -1.91049882E+01  0.00000000E+00  9.55249411E+00  9.55249411E+00 -1.91049882E+01
  0.00000000E+00  9.55249411E+00  9.55249411E+00 -1.91049882E+01  0.00000000E+00
  9.55249411E+00  9.55249411E+00 -1.91049882E+01  0.00000000E+00  9.55249411E+00
  9.55249411E+00 -1.91049882E+01  0.00000000E+00  9.55249411E+00  9.55249411E+00
 -1.91049882E+01  0.00000000E+00  9.55249411E+00  9.55249411E+00 -1.91049882E+01
  0.00000000E+00  9.55249411E+00  9.55249411E+00 -1.91049882E+01  0.00000000E+00
  9.55249411E+00  9.55249411E+00 -1.91049882E+01  0.00000000E+00  9.55249411E+00
  9.55249411E+00 -1.91049882E+01  0.00000000E+00  9.55249411E+00  9.55249411E+00
 -1.91049882E+01  0.00000000E+00  9.55249411E+00  9.55249411E+00 -1.91049882E+01
  0.00000000E+00  9.55249411E+00  9.55249411E+00 -1.91049882E+01  0.00000000E+00
  9.55249411E+00  9.55249411E+00 -1.91049882E+01  0.00000000E+00  9.55249411E+00
  9.55249411E+00 -1.91049882E+01  0.00000000E+00  9.55249411E+00  9.55249411E+00
 -1.91049882E+01  0.00000000E+00  9.55249411E+00  9.55249411E+00 -1.91049882E+01
  0.00000000E+00  9.55249411E+00  9.55249411E+00 -1.91049882E+01  0.00000000E+00
  9.55249411E+00  9.55249411E+00 -1.91049882E+01  0.00000000E+00  9.55249411E+00
  9.55249411E+00 -1.91049882E+01  0.00000000E+00  9.55249411E+00  9.55249411E+00
 -1.91049882E+01  0.00000000E+00  9.55249411E+00  9.55249411E+00 -1.91049882E+01
  0.00000000E+00  9.55249411E+00  9.55249411E+00 -1.91049882E+01  0.00000000E+00
  9.55249411E+00  9.55249411E+00 -1.91049882E+01  0.00000000E+00  9.55249411E+00
  9.55249411E+00 -1.91049882E+01  0.00000000E+00  9.55249411E+00  9.55249411E+00
 -1.91049882E+01  0.00000000E+00  9.55249411E+00  9.55249411E+00 -1.91049882E+01
  0.00000000E+00  9.55249411E+00  9.55249411E+00 -1.91049882E+01  0.00000000E+00
  9.55249411E+00  9.55249411E+00 -1.91049882E+01  0.00000000E+00  9.55249411E+00
  9.55249411E+00 -1.91049882E+01  0.00000000E+00  9.55249411E+00  9.55249411E+00
 -1.91049882E+01  0.00000000E+00  9.55249411E+00  9.55249411E+00 -1.91049882E+01
  0.00000000E+00  9.55249411E+00  9.55249411E+00 -1.91049882E+01  0.00000000E+00
  9.55249411E+00  9.55249411E+00 -1.91049882E+01  0.00000000E+00  9.55249411E+00
  9.55249411E+00 -1.91049882E+01  0.00000000E+00  9.55249411E+00  9.55249411E+00
 -1.91049882E+01  0.00000000E+00  9.55249411E+00  9.55249411E+00 -1.91049882E+01
  0.00000000E+00  9.55249411E+00  9.55249411E+00 -1.91049882E+01  0.00000000E+00
  9.55249411E+00  9.55249411E+00 -1.91049882E+01  0.00000000E+00  9.55249411E+00
  9.55249411E+00 -1.91049882E+01  0.00000000E+00  9.55249411E+00  9.55249411E+00
 -1.91049882E+01  0.00000000E+00  9.55249411E+00  9.55249411E+00 -1.91049882E+01
  0.00000000E+00  9.55249411E+00  9.55249411E+00 -1.91049882E+01  0.00000000E+00
  9.55249411E+00  9.55249411E+00 -1.91049882E+01  0.00000000E+00  9.55249411E+00
  9.55249411E+00 -1.91049882E+01  0.00000000E+00  9.55249411E+00  9.55249411E+00
 -1.91049882E+01  0.00000000E+00  9.55249411E+00  9.55249411E+00 -1.91049882E+01
  0.00000000E+00  9.55249411E+00  9.55249411E+00 -1.91049882E+01  0.00000000E+00
  9.55249411E+00  9.55249411E+00 -1.91049882E+01  0.00000000E+00  9.55249411E+00
  9.55249411E+00 -1.91049882E+01  0.00000000E+00  9.55249411E+00  9.55249411E+00
 -1.91049882E+01  0.00000000E+00  9.55249411E+00  9.55249411E+00 -1.91049882E+01
  0.00000000E+00  9.55249411E+00  9.55249411E+00 -1.91049882E+01  0.00000000E+00
  9.55249411E+00  9.55249411E+00 -1.91049882E+01  0.00000000E+00  9.55249411E+00
  9.55249411E+00 -1.91049882E+01  0.00000000E+00  9.55249411E+00  9.55249411E+00
 -1.91049882E+01  0.00000000E+00  9.55249411E+00  9.55249411E+00 -1.91049882E+01
  0.00000000E+00  9.55249411E+00  9.55249411E+00 -1.91049882E+01  0.00000000E+00
  9.55249411E+00  9.55249411E+00 -1.91049882E+01  0.00000000E+00  9.55249411E+00
  9.55249411E+00 -1.91049882E+01  0.00000000E+00  9.55249411E+00  9.55249411E+00
 -1.91049882E+01  0.00000000E+00  9.55249411E+00  9.55249411E+00 -1.91049882E+01
  0.00000000E+00  9.55249411E+00  9.55249411E+00 -1.91049882E+01  0.00000000E+00
  9.55249411E+00  9.55249411E+00 -1.91049882E+01  0.00000000E+00  9.55249411E+00
  9.55249411E+00 -1.91049882E+01  0.00000000E+00  9.55249411E+00  9.55249411E+00
 -1.91049882E+01  0.00000000E+00  9.55249411E+00  9.55249411E+00 -1.91049882E+01
  0.00000000E+00  9.55249411E+00  9.55249411E+00 -1.91049882E+01  0.00000000E+00
  9.55249411E+00  9.55249411E+00 -1.91049882E+01  0.00000000E+00  9.55249411E+00
  9.55249411E+00 -1.91049882E+01  0.00000000E+00  9.55249411E+00  9.55249411E+00
 -1.91049882E+01  0.00000000E+00  9.55249411E+00  9.55249411E+00 -1.91049882E+01
  0.00000000E+00  9.55249411E+00  9.55249411E+00 -1.91049882E+01  0.00000000E+00
  9.55249411E+00  9.55249411E+00 -1.91049882E+01  0.00000000E+00  9.55249411E+00
  9.55249411E+00 -1.91049882E+01  0.00000000E+00  9.55249411E+00  9.55249411E+00
 -1.91049882E+01  0.00000000E+00  9.55249411E+00  9.55249411E+00 -1.91049882E+01
  0.00000000E+00  9.55249411E+00  9.55249411E+00 -1.91049882E+01  0.00000000E+00
  9.55249411E+00  9.55249411E+00 -1.91049882E+01  0.00000000E+00  9.55249411E+00
  9.55249411E+00 -1.91049882E+01  0.00000000E+00  9.55249411E+00  9.55249411E+00
 -1.91049882E+01  0.00000000E+00  9.55249411E+00  9.55249411E+00 -1.91049882E+01
  0.00000000E+00  9.55249411E+00  9.55249411E+00 -1.91049882E+01  0.00000000E+00
  9.55249411E+00  9.55249411E+00 -1.91049882E+01  0.00000000E+00  9.55249411E+00
  9.55249411E+00 -1.91049882E+01  0.00000000E+00  9.55249411E+00  9.55249411E+00
 -1.91049882E+01  0.00000000E+00  9.55249411E+00  9.55249411E+00 -1.91049882E+01
  0.00000000E+00  9.55249411E+00  9.55249411E+00 -1.91049882E+01  0.00000000E+00
  9.55249411E+00  9.55249411E+00 -1.91049882E+01  0.00000000E+00  9.55249411E+00
  9.55249411E+00 -1.91049882E+01  0.00000000E+00  9.55249411E+00  9.55249411E+00
 -1.91049882E+01  0.00000000E+00  9.55249411E+00  9.55249411E+00 -1.91049882E+01
  0.00000000E+00  9.55249411E+00  9.55249411E+00 -1.91049882E+01  0.00000000E+00
  9.55249411E+00  9.55249411E+00 -1.91049882E+01  0.00000000E+00  9.55249411E+00
  9.55249411E+00 -1.91049882E+01  0.00000000E+00  9.55249411E+00  9.55249411E+00
 -1.91049882E+01  0.00000000E+00  9.55249411E+00  9.55249411E+00 -1.91049882E+01
  0.00000000E+00  9.55249411E+00  9.55249411E+00 -1.91049882E+01  0.00000000E+00
  9.55249411E+00  9.55249411E+00 -1.91049882E+01  0.00000000E+00  9.55249411E+00
  9.55249411E+00 -1.91049882E+01  0.00000000E+00  9.55249411E+00  9.55249411E+00
 -1.91049882E+01  0.00000000E+00  9.55249411E+00  9.55249411E+00 -1.91049882E+01
  0.00000000E+00  9.55249411E+00  9.55249411E+00 -1.91049882E+01  0.00000000E+00
  9.55249411E+00  9.55249411E+00 -1.91049882E+01  0.00000000E+00  9.55249411E+00
  9.55249411E+00 -1.91049882E+01  0.00000000E+00  9.55249411E+00  9.55249411E+00
 -1.91049882E+01  0.00000000E+00  9.55249411E+00  9.55249411E+00 -1.91049882E+01
  0.00000000E+00  9.55249411E+00  9.55249411E+00 -1.91049882E+01  0.00000000E+00
  9.55249411E+00  9.55249411E+00 -1.91049882E+01  0.00000000E+00  9.55249411E+00
  9.55249411E+00 -1.91049882E+01  0.00000000E+00  9.55249411E+00  9.55249411E+00
 -1.91049882E+01  0.00000000E+00  9.55249411E+00  9.55249411E+00 -1.91049882E+01
  0.00000000E+00  9.55249411E+00  9.55249411E+00 -1.91049882E+01  0.00000000E+00
  9.55249411E+00  9.55249411E+00 -1.91049882E+01  0.00000000E+00  9.55249411E+00
  9.55249411E+00 -1.91049882E+01  0.00000000E+00  9.55249411E+00  9.55249411E+00
 -1.91049882E+01  0.00000000E+00  9.55249411E+00  9.55249411E+00 -1.91049882E+01
  0.00000000E+00  9.55249411E+00  9.55249411E+00 -1.91049882E+01  0.00000000E+00
  9.55249411E+00  9.55249411E+00 -1.91049882E+01  0.00000000E+00  9.55249411E+00
  9.55249411E+00 -1.91049882E+01  0.00000000E+00  9.55249411E+00  9.55249411E+00
 -1.91049882E+01  0.00000000E+00  9.55249411E+00  9.55249411E+00 -1.91049882E+01
  0.00000000E+00  9.55249411E+00  9.55249411E+00 -1.91049882E+01  0.00000000E+00
  9.55249411E+00  9.55249411E+00 -1.91049882E+01  0.00000000E+00  9.55249411E+00
  9.55249411E+00 -1.91049882E+01  0.00000000E+00  9.55249411E+00  9.55249411E+00
 -1.91049882E+01  0.00000000E+00  9.55249411E+00  9.55249411E+00 -1.91049882E+01
  0.00000000E+00  9.55249411E+00  9.55249411E+00 -1.91049882E+01  0.00000000E+00
  9.55249411E+00  9.55249411E+00 -1.91049882E+01  0.00000000E+00  9.55249411E+00
  9.55249411E+00 -1.91049882E+01  0.00000000E+00  9.55249411E+00  9.55249411E+00
 -1.91049882E+01  0.00000000E+00  9.55249411E+00  9.55249411E+00 -1.91049882E+01
  0.00000000E+00  9.55249411E+00  9.55249411E+00 -1.91049882E+01  0.00000000E+00
  9.55249411E+00  9.55249411E+00 -1.91049882E+01  0.00000000E+00  9.55249411E+00
  9.55249411E+00 -1.91049882E+01  0.00000000E+00  9.55249411E+00  9.55249411E+00
 -1.91049882E+01  0.00000000E+00  9.55249411E+00  9.55249411E+00 -1.91049882E+01
  0.00000000E+00  9.55249411E+00  9.55249411E+00 -1.91049882E+01  0.00000000E+00
  9.55249411E+00  9.55249411E+00 -1.91049882E+01  0.00000000E+00  9.55249411E+00
  9.55249411E+00 -1.91049882E+01  0.00000000E+00  9.55249411E+00  9.55249411E+00
 -1.91049882E+01  0.00000000E+00  9.55249411E+00  9.55249411E+00 -1.91049882E+01
  0.00000000E+00  9.55249411E+00  9.55249411E+00 -1.91049882E+01  0.00000000E+00
  9.55249411E+00  9.55249411E+00 -1.91049882E+01  0.00000000E+00  9.55249411E+00
  9.55249411E+00 -1.91049882E+01  0.00000000E+00  9.55249411E+00  9.55249411E+00
 -1.91049882E+01  0.00000000E+00  9.55249411E+00  9.55249411E+00 -1.91049882E+01
  0.00000000E+00  9.55249411E+00  9.55249411E+00 -1.91049882E+01  0.00000000E+00
  9.55249411E+00  9.55249411E+00 -1.91049882E+01  0.00000000E+00  9.55249411E+00
  9.55249411E+00 -1.91049882E+01  0.00000000E+00  9.55249411E+00  9.55249411E+00
 -1.91049882E+01  0.00000000E+00  9.55249411E+00  9.55249411E+00 -1.91049882E+01
  0.00000000E+00  9.55249411E+00  9.55249411E+00 -1.91049882E+01  0.00000000E+00
  9.55249411E+00  9.55249411E+00 -1.91049882E+01  0.00000000E+00  9.55249411E+00
  9.55249411E+00 -1.91049882E+01  0.00000000E+00  9.55249411E+00  9.55249411E+00
 -1.91049882E+01  0.00000000E+00  9.55249411E+00  9.55249411E+00 -1.91049882E+01
  0.00000000E+00  9.55249411E+00  9.55249411E+00 -1.91049882E+01  0.00000000E+00
  9.55249411E+00  9.55249411E+00 -1.91049882E+01  0.00000000E+00  9.55249411E+00
  9.55249411E+00 -1.91049882E+01  0.00000000E+00  9.55249411E+00  9.55249411E+00
 -1.91049882E+01  0.00000000E+00  9.55249411E+00  9.55249411E+00 -1.91049882E+01
  0.00000000E+00  9.55249411E+00  9.55249411E+00 -1.91049882E+01  0.00000000E+00
  9.55249411E+00  9.55249411E+00 -1.91049882E+01  0.00000000E+00  9.55249411E+00
  9.55249411E+00 -1.91049882E+01  0.00000000E+00  9.55249411E+00  9.55249411E+00
 -1.91049882E+01  0.00000000E+00  9.55249411E+00  9.55249411E+00 -1.91049882E+01
  0.00000000E+00  9.55249411E+00  9.55249411E+00 -1.91049882E+01  0.00000000E+00
  9.55249411E+00  9.55249411E+00 -1.91049882E+01  0.00000000E+00  9.55249411E+00
  9.55249411E+00 -1.91049882E+01  0.00000000E+00  9.55249411E+00  9.55249411E+00
 -1.91049882E+01  0.00000000E+00  9.55249411E+00  9.55249411E+00 -1.91049882E+01
  0.00000000E+00  9.55249411E+00  9.55249411E+00 -1.91049882E+01  0.00000000E+00
  9.55249411E+00  9.55249411E+00 -1.91049882E+01  0.00000000E+00  9.55249411E+00
  9.55249411E+00 -1.91049882E+01  0.00000000E+00  9.55249411E+00  9.55249411E+00
 -1.91049882E+01  0.00000000E+00  9.55249411E+00  9.55249411E+00 -1.91049882E+01
  0.00000000E+00  9.55249411E+00  9.55249411E+00 -1.91049882E+01  0.00000000E+00
  9.55249411E+00  9.55249411E+00 -1.91049882E+01  0.00000000E+00  9.55249411E+00
  9.55249411E+00 -1.91049882E+01  0.00000000E+00  9.55249411E+00  9.55249411E+00
 -1.91049882E+01  0.00000000E+00  9.55249411E+00  9.55249411E+00 -1.91049882E+01
  0.00000000E+00  9.55249411E+00  9.55249411E+00 -1.91049882E+01  0.00000000E+00
  9.55249411E+00  9.55249411E+00 -1.91049882E+01  0.00000000E+00  9.55249411E+00
  9.55249411E+00 -1.91049882E+01  0.00000000E+00  9.55249411E+00  9.55249411E+00
 -1.91049882E+01  0.00000000E+00  9.55249411E+00  9.55249411E+00 -1.91049882E+01
  0.00000000E+00  9.55249411E+00  9.55249411E+00 -1.91049882E+01  0.00000000E+00
  9.55249411E+00  9.55249411E+00 -1.91049882E+01  0.00000000E+00  9.55249411E+00
  9.55249411E+00 -1.91049882E+01  0.00000000E+00  9.55249411E+00  9.55249411E+00
 -1.91049882E+01  0.00000000E+00  9.55249411E+00  9.55249411E+00 -1.91049882E+01
  0.00000000E+00  9.55249411E+00  9.55249411E+00 -1.91049882E+01  0.00000000E+00
  9.55249411E+00  9.55249411E+00 -1.91049882E+01  0.00000000E+00  9.55249411E+00
  9.55249411E+00 -1.91049882E+01  0.00000000E+00  9.55249411E+00  9.55249411E+00
 -1.91049882E+01  0.00000000E+00  9.55249411E+00  9.55249411E+00 -1.91049882E+01
  0.00000000E+00  9.55249411E+00  9.55249411E+00 -1.91049882E+01  0.00000000E+00
  9.55249411E+00  9.55249411E+00 -1.91049882E+01  0.00000000E+00  9.55249411E+00
  9.55249411E+00 -1.91049882E+01  0.00000000E+00  9.55249411E+00  9.55249411E+00
 -1.91049882E+01  0.00000000E+00  9.55249411E+00  9.55249411E+00 -1.91049882E+01
  0.00000000E+00  9.55249411E+00  9.55249411E+00 -1.91049882E+01  0.00000000E+00
  9.55249411E+00  9.55249411E+00 -1.91049882E+01  0.00000000E+00  9.55249411E+00
  9.55249411E+00 -1.91049882E+01  0.00000000E+00  9.55249411E+00  9.55249411E+00
 -1.91049882E+01  0.00000000E+00  9.55249411E+00  9.55249411E+00 -1.91049882E+01
  0.00000000E+00  9.55249411E+00  9.55249411E+00 -1.91049882E+01  0.00000000E+00
  9.55249411E+00  9.55249411E+00 -1.91049882E+01  0.00000000E+00  9.55249411E+00
  9.55249411E+00 -1.91049882E+01  0.00000000E+00  9.55249411E+00  9.55249411E+00
 -1.91049882E+01  0.00000000E+00  9.55249411E+00  9.55249411E+00 -1.91049882E+01
  0.00000000E+00  9.55249411E+00  9.55249411E+00 -1.91049882E+01  0.00000000E+00
  9.55249411E+00  9.55249411E+00 -1.91049882E+01  0.00000000E+00  9.55249411E+00
  9.55249411E+00 -1.91049882E+01  0.00000000E+00  9.55249411E+00  9.55249411E+00
 -1.91049882E+01  0.00000000E+00  9.55249411E+00  9.55249411E+00 -1.91049882E+01
  0.00000000E+00  9.55249411E+00  9.55249411E+00 -1.91049882E+01  0.00000000E+00
  9.55249411E+00  9.55249411E+00 -1.91049882E+01  0.00000000E+00  9.55249411E+00
  9.55249411E+00 -1.91049882E+01  0.00000000E+00  9.55249411E+00  9.55249411E+00
 -1.91049882E+01  0.00000000E+00  9.55249411E+00  9.55249411E+00 -1.91049882E+01
  0.00000000E+00  9.55249411E+00  9.55249411E+00 -1.91049882E+01  0.00000000E+00
  9.55249411E+00  9.55249411E+00 -1.91049882E+01  0.00000000E+00  9.55249411E+00
  9.55249411E+00 -1.91049882E+01  0.00000000E+00  9.55249411E+00  9.55249411E+00
 -1.91049882E+01  0.00000000E+00  9.55249411E+00  9.55249411E+00 -1.91049882E+01
  0.00000000E+00  9.55249411E+00  9.55249411E+00 -1.91049882E+01  0.00000000E+00
  9.55249411E+00  9.55249411E+00 -1.91049882E+01  0.00000000E+00  9.55249411E+00
  9.55249411E+00 -1.91049882E+01  0.00000000E+00  9.55249411E+00  9.55249411E+00
 -1.91049882E+01  0.00000000E+00  9.55249411E+00  9.55249411E+00 -1.91049882E+01
  0.00000000E+00  9.55249411E+00  9.55249411E+00 -1.91049882E+01  0.00000000E+00
  9.55249411E+00  9.55249411E+00 -1.91049882E+01  0.00000000E+00  9.55249411E+00
  9.55249411E+00 -1.91049882E+01  0.00000000E+00  9.55249411E+00  9.55249411E+00
 -1.91049882E+01  0.00000000E+00  9.55249411E+00  9.55249411E+00 -1.91049882E+01
  0.00000000E+00  9.55249411E+00  9.55249411E+00 -1.91049882E+01  0.00000000E+00
  9.55249411E+00  9.55249411E+00 -1.91049882E+01  0.00000000E+00  9.55249411E+00
  9.55249411E+00 -1.91049882E+01  0.00000000E+00  9.55249411E+00  9.55249411E+00
 -1.91049882E+01  0.00000000E+00  9.55249411E+00  9.55249411E+00 -1.91049882E+01
  0.00000000E+00  9.55249411E+00  9.55249411E+00 -1.91049882E+01  0.00000000E+00
  9.55249411E+00  9.55249411E+00 -1.91049882E+01  0.00000000E+00  9.55249411E+00
  9.55249411E+00 -1.91049882E+01  0.00000000E+00  9.55249411E+00  9.55249411E+00
 -1.91049882E+01  0.00000000E+00  9.55249411E+00  9.55249411E+00 -1.91049882E+01
  0.00000000E+00  9.55249411E+00  9.55249411E+00 -1.91049882E+01  0.00000000E+00
  9.55249411E+00  9.55249411E+00 -1.91049882E+01  0.00000000E+00  9.55249411E+00
  9.55249411E+00 -1.91049882E+01  0.00000000E+00  9.55249411E+00  9.55249411E+00
 -1.91049882E+01  0.00000000E+00  9.55249411E+00  9.55249411E+00 -1.91049882E+01
  0.00000000E+00  9.55249411E+00  9.55249411E+00 -1.91049882E+01  0.00000000E+00
  9.55249411E+00  9.55249411E+00 -1.91049882E+01  0.00000000E+00  9.55249411E+00
  9.55249411E+00 -1.91049882E+01  0.00000000E+00  9.55249411E+00  9.55249411E+00
 -1.91049882E+01  0.00000000E+00  9.55249411E+00  9.55249411E+00 -1.91049882E+01
  0.00000000E+00  9.55249411E+00  9.55249411E+00 -1.91049882E+01  0.00000000E+00
  9.55249411E+00  9.55249411E+00 -1.91049882E+01  0.00000000E+00  9.55249411E+00
  9.55249411E+00 -1.91049882E+01  0.00000000E+00  9.55249411E+00  9.55249411E+00
 -1.91049882E+01  0.00000000E+00  9.55249411E+00  9.55249411E+00 -1.91049882E+01
  0.00000000E+00  9.55249411E+00  9.55249411E+00 -1.91049882E+01  0.00000000E+00
  9.55249411E+00  9.55249411E+00 -1.91049882E+01  0.00000000E+00  9.55249411E+00
  9.55249411E+00 -1.91049882E+01  0.00000000E+00  9.55249411E+00  9.55249411E+00
 -1.91049882E+01  0.00000000E+00  9.55249411E+00  9.55249411E+00 -1.91049882E+01
  0.00000000E+00  9.55249411E+00  9.55249411E+00 -1.91049882E+01  0.00000000E+00
  9.55249411E+00  9.55249411E+00 -1.91049882E+01  0.00000000E+00  9.55249411E+00
  9.55249411E+00 -1.91049882E+01  0.00000000E+00  9.55249411E+00  9.55249411E+00
 -1.91049882E+01  0.00000000E+00  9.55249411E+00  9.55249411E+00 -1.91049882E+01
  0.00000000E+00  9.55249411E+00  9.55249411E+00 -1.91049882E+01  0.00000000E+00
  9.55249411E+00  9.55249411E+00 -1.91049882E+01  0.00000000E+00  9.55249411E+00
  9.55249411E+00 -1.91049882E+01  0.00000000E+00  9.55249411E+00  9.55249411E+00
 -1.91049882E+01  0.00000000E+00  9.55249411E+00  9.55249411E+00 -1.91049882E+01
  0.00000000E+00  9.55249411E+00  9.55249411E+00 -1.91049882E+01  0.00000000E+00
  9.55249411E+00  9.55249411E+00 -1.91049882E+01  0.00000000E+00  9.55249411E+00
  9.55249411E+00 -1.91049882E+01  0.00000000E+00  9.55249411E+00  9.55249411E+00
 -1.91049882E+01  0.00000000E+00  9.55249411E+00  9.55249411E+00 -1.91049882E+01
  0.00000000E+00  9.55249411E+00  9.55249411E+00 -1.91049882E+01  0.00000000E+00
  9.55249411E+00  9.55249411E+00 -1.91049882E+01  0.00000000E+00  9.55249411E+00
  9.55249411E+00 -1.91049882E+01  0.00000000E+00  9.55249411E+00  9.55249411E+00
 -1.91049882E+01  0.00000000E+00  9.55249411E+00  9.55249411E+00 -1.91049882E+01
  0.00000000E+00  9.55249411E+00  9.55249411E+00 -1.91049882E+01  0.00000000E+00
  9.55249411E+00  9.55249411E+00 -1.91049882E+01  0.00000000E+00  9.55249411E+00
  9.55249411E+00 -1.91049882E+01  0.00000000E+00  9.55249411E+00  9.55249411E+00
 -1.91049882E+01  0.00000000E+00  9.55249411E+00  9.55249411E+00 -1.91049882E+01
  0.00000000E+00  9.55249411E+00  9.55249411E+00 -1.91049882E+01  0.00000000E+00
  9.55249411E+00  9.55249411E+00 -1.91049882E+01  0.00000000E+00  9.55249411E+00
  9.55249411E+00 -1.91049882E+01  0.00000000E+00  9.55249411E+00  9.55249411E+00
 -1.91049882E+01  0.00000000E+00  9.55249411E+00  9.55249411E+00 -1.91049882E+01
  0.00000000E+00  9.55249411E+00  9.55249411E+00 -1.91049882E+01  0.00000000E+00
  9.55249411E+00  9.55249411E+00 -1.91049882E+01  0.00000000E+00  9.55249411E+00
  9.55249411E+00 -1.91049882E+01  0.00000000E+00  9.55249411E+00  9.55249411E+00
 -1.91049882E+01  0.00000000E+00  9.55249411E+00  9.55249411E+00 -1.91049882E+01
  0.00000000E+00  9.55249411E+00  9.55249411E+00 -1.91049882E+01  0.00000000E+00
  9.55249411E+00  9.55249411E+00 -1.91049882E+01  0.00000000E+00  9.55249411E+00
  9.55249411E+00 -1.91049882E+01  0.00000000E+00  9.55249411E+00  9.55249411E+00
 -1.91049882E+01  0.00000000E+00  9.55249411E+00  9.55249411E+00 -1.91049882E+01
  0.00000000E+00  9.55249411E+00  9.55249411E+00 -1.91049882E+01  0.00000000E+00
  9.55249411E+00  9.55249411E+00 -1.91049882E+01  0.00000000E+00  9.55249411E+00
  9.55249411E+00 -1.91049882E+01  0.00000000E+00  9.55249411E+00  9.55249411E+00
 -1.91049882E+01  0.00000000E+00  9.55249411E+00  9.55249411E+00 -1.91049882E+01
  0.00000000E+00  9.55249411E+00  9.55249411E+00 -1.91049882E+01  0.00000000E+00
  9.55249411E+00  9.55249411E+00 -1.91049882E+01  0.00000000E+00  9.55249411E+00
  9.55249411E+00 -1.91049882E+01  0.00000000E+00  9.55249411E+00  9.55249411E+00
 -1.91049882E+01  0.00000000E+00  9.55249411E+00  9.55249411E+00 -1.91049882E+01
  0.00000000E+00  9.55249411E+00  9.55249411E+00 -1.91049882E+01  0.00000000E+00
  9.55249411E+00  9.55249411E+00 -1.91049882E+01  0.00000000E+00  9.55249411E+00
  9.55249411E+00 -1.91049882E+01  0.00000000E+00  9.55249411E+00  9.55249411E+00
 -1.91049882E+01  0.00000000E+00  9.55249411E+00  9.55249411E+00 -1.91049882E+01
  0.00000000E+00  9.55249411E+00  9.55249411E+00 -1.91049882E+01  0.00000000E+00
  9.55249411E+00  9.55249411E+00 -1.91049882E+01  0.00000000E+00  9.55249411E+00
  9.55249411E+00 -1.91049882E+01  0.00000000E+00  9.55249411E+00  9.55249411E+00
 -1.91049882E+01  0.00000000E+00  9.55249411E+00  9.55249411E+00 -1.91049882E+01
  0.00000000E+00  9.55249411E+00  9.55249411E+00 -1.91049882E+01  0.00000000E+00
  9.55249411E+00  9.55249411E+00 -1.91049882E+01  0.00000000E+00  9.55249411E+00
  9.55249411E+00 -1.91049882E+01  0.00000000E+00  9.55249411E+00  9.55249411E+00
 -1.91049882E+01  0.00000000E+00  9.55249411E+00  9.55249411E+00 -1.91049882E+01
  0.00000000E+00  9.55249411E+00  9.55249411E+00 -1.91049882E+01  0.00000000E+00
  9.55249411E+00  9.55249411E+00 -1.91049882E+01  0.00000000E+00  9.55249411E+00
  9.55249411E+00 -1.91049882E+01  0.00000000E+00  9.55249411E+00  9.55249411E+00
 -1.91049882E+01  0.00000000E+00  9.55249411E+00  9.55249411E+00 -1.91049882E+01
  0.00000000E+00  9.55249411E+00  9.55249411E+00 -1.91049882E+01  0.00000000E+00
  9.55249411E+00  9.55249411E+00 -1.91049882E+01  0.00000000E+00  9.55249411E+00
  9.55249411E+00 -1.91049882E+01  0.00000000E+00  9.55249411E+00  9.55249411E+00
 -1.91049882E+01  0.00000000E+00  9.55249411E+00  9.55249411E+00 -1.91049882E+01
  0.00000000E+00  9.55249411E+00  9.55249411E+00 -1.91049882E+01  0.00000000E+00
  9.55249411E+00  9.55249411E+00 -1.91049882E+01  0.00000000E+00  9.55249411E+00
  9.55249411E+00 -1.91049882E+01  0.00000000E+00  9.55249411E+00  9.55249411E+00
 -1.91049882E+01  0.00000000E+00  9.55249411E+00  9.55249411E+00 -1.91049882E+01
  0.00000000E+00  9.55249411E+00  9.55249411E+00 -1.91049882E+01  0.00000000E+00
  9.55249411E+00  9.55249411E+00 -1.91049882E+01  0.00000000E+00  9.55249411E+00
  9.55249411E+00 -1.91049882E+01  0.00000000E+00  9.55249411E+00  9.55249411E+00
 -1.91049882E+01  0.00000000E+00  9.55249411E+00  9.55249411E+00 -1.91049882E+01
  0.00000000E+00  9.55249411E+00  9.55249411E+00 -1.91049882E+01  0.00000000E+00
  9.55249411E+00  9.55249411E+00 -1.91049882E+01  0.00000000E+00  9.55249411E+00
  9.55249411E+00 -1.91049882E+01  0.00000000E+00  9.55249411E+00  9.55249411E+00
 -1.91049882E+01  0.00000000E+00  9.55249411E+00  9.55249411E+00 -1.91049882E+01
  0.00000000E+00  9.55249411E+00  9.55249411E+00 -1.91049882E+01  0.00000000E+00
  9.55249411E+00  9.55249411E+00 -1.91049882E+01  0.00000000E+00  9.55249411E+00
  9.55249411E+00 -1.91049882E+01  0.00000000E+00  9.55249411E+00  9.55249411E+00
 -1.91049882E+01  0.00000000E+00  9.55249411E+00  9.55249411E+00 -1.91049882E+01
  0.00000000E+00  9.55249411E+00  9.55249411E+00 -1.91049882E+01  0.00000000E+00
  9.55249411E+00  9.55249411E+00 -1.91049882E+01  0.00000000E+00  9.55249411E+00
  9.55249411E+00 -1.91049882E+01  0.00000000E+00  9.55249411E+00  9.55249411E+00
 -1.91049882E+01  0.00000000E+00  9.55249411E+00  9.55249411E+00 -1.91049882E+01
  0.00000000E+00  9.55249411E+00  9.55249411E+00 -1.91049882E+01  0.00000000E+00
  9.55249411E+00  9.55249411E+00 -1.91049882E+01  0.00000000E+00  9.55249411E+00
  9.55249411E+00 -1.91049882E+01  0.00000000E+00  9.55249411E+00  9.55249411E+00
 -1.91049882E+01  0.00000000E+00  9.55249411E+00  9.55249411E+00 -1.91049882E+01
  0.00000000E+00  9.55249411E+00  9.55249411E+00 -1.91049882E+01  0.00000000E+00
  9.55249411E+00  9.55249411E+00 -1.91049882E+01  0.00000000E+00  9.55249411E+00
  9.55249411E+00 -1.91049882E+01  0.00000000E+00  9.55249411E+00  9.55249411E+00
 -1.91049882E+01  0.00000000E+00  9.55249411E+00  9.55249411E+00 -1.91049882E+01
  0.00000000E+00  9.55249411E+00  9.55249411E+00 -1.91049882E+01  0.00000000E+00
  9.55249411E+00  9.55249411E+00 -1.91049882E+01  0.00000000E+00  9.55249411E+00
  9.55249411E+00 -1.91049882E+01  0.00000000E+00  9.55249411E+00  9.55249411E+00
 -1.91049882E+01  0.00000000E+00  9.55249411E+00  9.55249411E+00 -1.91049882E+01
  0.00000000E+00  9.55249411E+00  9.55249411E+00 -1.91049882E+01  0.00000000E+00
  9.55249411E+00  9.55249411E+00 -1.91049882E+01  0.00000000E+00  9.55249411E+00
  9.55249411E+00 -1.91049882E+01  0.00000000E+00  9.55249411E+00  9.55249411E+00
 -1.91049882E+01  0.00000000E+00  9.55249411E+00  9.55249411E+00 -1.91049882E+01
  0.00000000E+00  9.55249411E+00  9.55249411E+00 -1.91049882E+01  0.00000000E+00
  9.55249411E+00  9.55249411E+00 -1.91049882E+01  0.00000000E+00  9.55249411E+00
  9.55249411E+00 -1.91049882E+01  0.00000000E+00  9.55249411E+00  9.55249411E+00
 -1.91049882E+01  0.00000000E+00  9.55249411E+00  9.55249411E+00 -1.91049882E+01
  0.00000000E+00  9.55249411E+00  9.55249411E+00 -1.91049882E+01  0.00000000E+00
  9.55249411E+00  9.55249411E+00 -1.91049882E+01  0.00000000E+00  9.55249411E+00
  9.55249411E+00 -1.91049882E+01  0.00000000E+00  9.55249411E+00  9.55249411E+00
 -1.91049882E+01  0.00000000E+00  9.55249411E+00  9.55249411E+00 -1.91049882E+01
  0.00000000E+00  9.55249411E+00  9.55249411E+00 -1.91049882E+01  0.00000000E+00
  9.55249411E+00  9.55249411E+00 -1.91049882E+01  0.00000000E+00  9.55249411E+00
  9.55249411E+00 -1.91049882E+01  0.00000000E+00  9.55249411E+00  9.55249411E+00
 -1.91049882E+01  0.00000000E+00  9.55249411E+00  9.55249411E+00 -1.91049882E+01
  0.00000000E+00  9.55249411E+00  9.55249411E+00 -1.91049882E+01  0.00000000E+00
  9.55249411E+00  9.55249411E+00 -1.91049882E+01  0.00000000E+00  9.55249411E+00
  9.55249411E+00 -1.91049882E+01  0.00000000E+00  9.55249411E+00  9.55249411E+00
 -1.91049882E+01  0.00000000E+00  9.55249411E+00  9.55249411E+00 -1.91049882E+01
  0.00000000E+00  9.55249411E+00  9.55249411E+00 -1.91049882E+01  0.00000000E+00
  9.55249411E+00  9.55249411E+00 -1.91049882E+01  0.00000000E+00  9.55249411E+00
  9.55249411E+00 -1.91049882E+01  0.00000000E+00  9.55249411E+00  9.55249411E+00
 -1.91049882E+01  0.00000000E+00  9.55249411E+00  9.55249411E+00 -1.91049882E+01
  0.00000000E+00  9.55249411E+00  9.55249411E+00 -1.91049882E+01  0.00000000E+00
  9.55249411E+00  9.55249411E+00 -1.91049882E+01  0.00000000E+00  9.55249411E+00
  9.55249411E+00 -1.91049882E+01  0.00000000E+00  9.55249411E+00  9.55249411E+00
 -1.91049882E+01  0.00000000E+00  9.55249411E+00  9.55249411E+00 -1.91049882E+01
  0.00000000E+00  9.55249411E+00  9.55249411E+00 -1.91049882E+01  0.00000000E+00
  9.55249411E+00  9.55249411E+00 -1.91049882E+01  0.00000000E+00  9.55249411E+00
  9.55249411E+00 -1.91049882E+01  0.00000000E+00  9.55249411E+00  9.55249411E+00
 -1.91049882E+01  0.00000000E+00  9.55249411E+00  9.55249411E+00 -1.91049882E+01
  0.00000000E+00  9.55249411E+00  9.55249411E+00 -1.91049882E+01  0.00000000E+00
  9.55249411E+00  9.55249411E+00 -1.91049882E+01  0.00000000E+00  9.55249411E+00
  9.55249411E+00 -1.91049882E+01  0.00000000E+00  9.55249411E+00  9.55249411E+00
 -1.91049882E+01  0.00000000E+00  9.55249411E+00  9.55249411E+00 -1.91049882E+01
  0.00000000E+00  9.55249411E+00  9.55249411E+00 -1.91049882E+01  0.00000000E+00
  9.55249411E+00  9.55249411E+00 -1.91049882E+01  0.00000000E+00  9.55249411E+00
  9.55249411E+00 -1.91049882E+01  0.00000000E+00  9.55249411E+00  9.55249411E+00
 -1.91049882E+01  0.00000000E+00  9.55249411E+00  9.55249411E+00 -1.91049882E+01
  0.00000000E+00  9.55249411E+00  9.55249411E+00 -1.91049882E+01  0.00000000E+00
  9.55249411E+00  9.55249411E+00 -1.91049882E+01  0.00000000E+00  9.55249411E+00
  9.55249411E+00 -1.91049882E+01  0.00000000E+00  9.55249411E+00  9.55249411E+00
 -1.91049882E+01  0.00000000E+00  9.55249411E+00  9.55249411E+00 -1.91049882E+01
  0.00000000E+00  9.55249411E+00  9.55249411E+00 -1.91049882E+01  0.00000000E+00
  9.55249411E+00  9.55249411E+00 -1.91049882E+01  0.00000000E+00  9.55249411E+00
  9.55249411E+00 -1.91049882E+01  0.00000000E+00  9.55249411E+00  9.55249411E+00
 -1.91049882E+01  0.00000000E+00  9.55249411E+00  9.55249411E+00 -1.91049882E+01
  0.00000000E+00  9.55249411E+00  9.55249411E+00 -1.91049882E+01  0.00000000E+00
  9.55249411E+00  9.55249411E+00 -1.91049882E+01  0.00000000E+00  9.55249411E+00
  9.55249411E+00 -1.91049882E+01  0.00000000E+00  9.55249411E+00  9.55249411E+00
 -1.91049882E+01  0.00000000E+00  9.55249411E+00  9.55249411E+00 -1.91049882E+01
  0.00000000E+00  9.55249411E+00  9.55249411E+00 -1.91049882E+01  0.00000000E+00
  9.55249411E+00  9.55249411E+00 -1.91049882E+01  0.00000000E+00  9.55249411E+00
  9.55249411E+00 -1.91049882E+01  0.00000000E+00  9.55249411E+00  9.55249411E+00
 -1.91049882E+01  0.00000000E+00  9.55249411E+00  9.55249411E+00 -1.91049882E+01
  0.00000000E+00  9.55249411E+00  9.55249411E+00 -1.91049882E+01  0.00000000E+00
  9.55249411E+00  9.55249411E+00 -1.91049882E+01  0.00000000E+00  9.55249411E+00
  9.55249411E+00 -1.91049882E+01  0.00000000E+00  9.55249411E+00  9.55249411E+00
 -1.91049882E+01  0.00000000E+00  9.55249411E+00  9.55249411E+00 -1.91049882E+01
  0.00000000E+00  9.55249411E+00  9.55249411E+00 -1.91049882E+01  0.00000000E+00
  9.55249411E+00  9.55249411E+00 -1.91049882E+01  0.00000000E+00  9.55249411E+00
  9.55249411E+00 -1.91049882E+01  0.00000000E+00  9.55249411E+00  9.55249411E+00
 -1.91049882E+01  0.00000000E+00  9.55249411E+00  9.55249411E+00 -1.91049882E+01
  0.00000000E+00  9.55249411E+00  9.55249411E+00 -1.91049882E+01  0.00000000E+00
  9.55249411E+00  9.55249411E+00 -1.91049882E+01  0.00000000E+00  9.55249411E+00
  9.55249411E+00 -1.91049882E+01  0.00000000E+00  9.55249411E+00  9.55249411E+00
 -1.91049882E+01  0.00000000E+00  9.55249411E+00  9.55249411E+00 -1.91049882E+01
  0.00000000E+00  9.55249411E+00  9.55249411E+00 -1.91049882E+01  0.00000000E+00
  9.55249411E+00  9.55249411E+00 -1.91049882E+01  0.00000000E+00  9.55249411E+00
  9.55249411E+00 -1.91049882E+01  0.00000000E+00  9.55249411E+00  9.55249411E+00
 -1.91049882E+01  0.00000000E+00  9.55249411E+00  9.55249411E+00 -1.91049882E+01
  0.00000000E+00  9.55249411E+00  9.55249411E+00 -1.91049882E+01  0.00000000E+00
  9.55249411E+00  9.55249411E+00 -1.91049882E+01  0.00000000E+00  9.55249411E+00
  9.55249411E+00 -1.91049882E+01  0.00000000E+00  9.55249411E+00  9.55249411E+00
 -1.91049882E+01  0.00000000E+00  9.55249411E+00  9.55249411E+00 -1.91049882E+01
  0.00000000E+00  9.55249411E+00  9.55249411E+00 -1.91049882E+01  0.00000000E+00
  9.55249411E+00  9.55249411E+00 -1.91049882E+01  0.00000000E+00  9.55249411E+00
  9.55249411E+00 -1.91049882E+01  0.00000000E+00  9.55249411E+00  9.55249411E+00
 -1.91049882E+01  0.00000000E+00  9.55249411E+00  9.55249411E+00 -1.91049882E+01
  0.00000000E+00  9.55249411E+00  9.55249411E+00 -1.91049882E+01  0.00000000E+00
  9.55249411E+00  9.55249411E+00 -1.91049882E+01  0.00000000E+00  9.55249411E+00
  9.55249411E+00 -1.91049882E+01  0.00000000E+00  9.55249411E+00  9.55249411E+00
 -1.91049882E+01  0.00000000E+00  9.55249411E+00  9.55249411E+00 -1.91049882E+01
  0.00000000E+00  9.55249411E+00  9.55249411E+00 -1.91049882E+01  0.00000000E+00
  9.55249411E+00  9.55249411E+00 -1.91049882E+01  0.00000000E+00  9.55249411E+00
  9.55249411E+00 -1.91049882E+01  0.00000000E+00  9.55249411E+00  9.55249411E+00
 -1.91049882E+01  0.00000000E+00  9.55249411E+00  9.55249411E+00 -1.91049882E+01
  0.00000000E+00  9.55249411E+00  9.55249411E+00 -1.91049882E+01  0.00000000E+00
  9.55249411E+00  9.55249411E+00 -1.91049882E+01  0.00000000E+00  9.55249411E+00
  9.55249411E+00 -1.91049882E+01  0.00000000E+00  9.55249411E+00  9.55249411E+00
 -1.91049882E+01  0.00000000E+00  9.55249411E+00  9.55249411E+00 -1.91049882E+01
  0.00000000E+00  9.55249411E+00  9.55249411E+00 -1.91049882E+01  0.00000000E+00
  9.55249411E+00  9.55249411E+00 -1.91049882E+01  0.00000000E+00  9.55249411E+00
  9.55249411E+00 -1.91049882E+01  0.00000000E+00  9.55249411E+00  9.55249411E+00
 -1.91049882E+01  0.00000000E+00  9.55249411E+00  9.55249411E+00 -1.91049882E+01
  0.00000000E+00  9.55249411E+00  9.55249411E+00 -1.91049882E+01  0.00000000E+00
  9.55249411E+00  9.55249411E+00 -1.91049882E+01  0.00000000E+00  9.55249411E+00
  9.55249411E+00 -1.91049882E+01  0.00000000E+00  9.55249411E+00  9.55249411E+00
 -1.91049882E+01  0.00000000E+00  9.55249411E+00  9.55249411E+00 -1.91049882E+01
  0.00000000E+00  9.55249411E+00  9.55249411E+00 -1.91049882E+01  0.00000000E+00
  9.55249411E+00  9.55249411E+00 -1.91049882E+01  0.00000000E+00  9.55249411E+00
  9.55249411E+00 -1.91049882E+01  0.00000000E+00  9.55249411E+00  9.55249411E+00
 -1.91049882E+01  0.00000000E+00  9.55249411E+00  9.55249411E+00 -1.91049882E+01
  0.00000000E+00  9.55249411E+00  9.55249411E+00 -1.91049882E+01  0.00000000E+00
  9.55249411E+00  9.55249411E+00 -1.91049882E+01  0.00000000E+00  9.55249411E+00
  9.55249411E+00 -1.91049882E+01  0.00000000E+00  9.55249411E+00  9.55249411E+00
 -1.91049882E+01  0.00000000E+00  9.55249411E+00  9.55249411E+00 -1.91049882E+01
  0.00000000E+00  9.55249411E+00  9.55249411E+00 -1.91049882E+01  0.00000000E+00
  9.55249411E+00  9.55249411E+00 -1.91049882E+01  0.00000000E+00  9.55249411E+00
  9.55249411E+00 -1.91049882E+01  0.00000000E+00  9.55249411E+00  9.55249411E+00
 -1.91049882E+01  0.00000000E+00  9.55249411E+00  9.55249411E+00 -1.91049882E+01
  0.00000000E+00  9.55249411E+00  9.55249411E+00 -1.91049882E+01  0.00000000E+00
  9.55249411E+00  9.55249411E+00 -1.91049882E+01  0.00000000E+00  9.55249411E+00
  9.55249411E+00 -1.91049882E+01  0.00000000E+00  9.55249411E+00  9.55249411E+00
 -1.91049882E+01  0.00000000E+00  9.55249411E+00  9.55249411E+00 -1.91049882E+01
  0.00000000E+00  9.55249411E+00  9.55249411E+00 -1.91049882E+01  0.00000000E+00
  9.55249411E+00  9.55249411E+00 -1.91049882E+01  0.00000000E+00  9.55249411E+00
  9.55249411E+00 -1.91049882E+01  0.00000000E+00  9.55249411E+00  9.55249411E+00
 -1.91049882E+01  0.00000000E+00  9.55249411E+00  9.55249411E+00 -1.91049882E+01
  0.00000000E+00  9.55249411E+00  9.55249411E+00 -1.91049882E+01  0.00000000E+00
  9.55249411E+00  9.55249411E+00 -1.91049882E+01  0.00000000E+00  9.55249411E+00
  9.55249411E+00 -1.91049882E+01  0.00000000E+00  9.55249411E+00  9.55249411E+00
 -1.91049882E+01  0.00000000E+00  9.55249411E+00  9.55249411E+00 -1.91049882E+01
  0.00000000E+00  9.55249411E+00  9.55249411E+00 -1.91049882E+01  0.00000000E+00
  9.55249411E+00  9.55249411E+00 -1.91049882E+01  0.00000000E+00  9.55249411E+00
  9.55249411E+00 -1.91049882E+01  0.00000000E+00  9.55249411E+00  9.55249411E+00
 -1.91049882E+01  0.00000000E+00  9.55249411E+00  9.55249411E+00 -1.91049882E+01
  0.00000000E+00  9.55249411E+00  9.55249411E+00 -1.91049882E+01  0.00000000E+00
  9.55249411E+00  9.55249411E+00 -1.91049882E+01  0.00000000E+00  9.55249411E+00
  9.55249411E+00 -1.91049882E+01  0.00000000E+00  9.55249411E+00  9.55249411E+00
 -1.91049882E+01  0.00000000E+00  9.55249411E+00  9.55249411E+00 -1.91049882E+01
  0.00000000E+00  9.55249411E+00  9.55249411E+00 -1.91049882E+01  0.00000000E+00
  9.55249411E+00  9.55249411E+00 -1.91049882E+01  0.00000000E+00  9.55249411E+00
  9.55249411E+00 -1.91049882E+01  0.00000000E+00  9.55249411E+00  9.55249411E+00
 -1.91049882E+01  0.00000000E+00  9.55249411E+00  9.55249411E+00 -1.91049882E+01
  0.00000000E+00  9.55249411E+00  9.55249411E+00 -1.91049882E+01  0.00000000E+00
  9.55249411E+00  9.55249411E+00 -1.91049882E+01  0.00000000E+00  9.55249411E+00
  9.55249411E+00 -1.91049882E+01  0.00000000E+00  9.55249411E+00  9.55249411E+00
 -1.91049882E+01  0.00000000E+00  9.55249411E+00  9.55249411E+00 -1.91049882E+01
  0.00000000E+00  9.55249411E+00  9.55249411E+00 -1.91049882E+01  0.00000000E+00
  9.55249411E+00  9.55249411E+00 -1.91049882E+01  0.00000000E+00  9.55249411E+00
  9.55249411E+00 -1.91049882E+01  0.00000000E+00  9.55249411E+00  9.55249411E+00
 -1.91049882E+01  0.00000000E+00  9.55249411E+00  9.55249411E+00 -1.91049882E+01
  0.00000000E+00  9.55249411E+00  9.55249411E+00 -1.91049882E+01  0.00000000E+00
  9.55249411E+00  9.55249411E+00 -1.91049882E+01  0.00000000E+00  9.55249411E+00
  9.55249411E+00 -1.91049882E+01  0.00000000E+00  9.55249411E+00  9.55249411E+00
 -1.91049882E+01  0.00000000E+00  9.55249411E+00  9.55249411E+00 -1.91049882E+01
  0.00000000E+00  9.55249411E+00  9.55249411E+00 -1.91049882E+01  0.00000000E+00
  9.55249411E+00  9.55249411E+00 -1.91049882E+01  0.00000000E+00  9.55249411E+00
  9.55249411E+00 -1.91049882E+01  0.00000000E+00  9.55249411E+00  9.55249411E+00
 -1.91049882E+01  0.00000000E+00  9.55249411E+00  9.55249411E+00 -1.91049882E+01
  0.00000000E+00  9.55249411E+00  9.55249411E+00 -1.91049882E+01  0.00000000E+00
  9.55249411E+00  9.55249411E+00 -1.91049882E+01  0.00000000E+00  9.55249411E+00
  9.55249411E+00 -1.91049882E+01  0.00000000E+00  9.55249411E+00  9.55249411E+00
 -1.91049882E+01  0.00000000E+00  9.55249411E+00  9.55249411E+00 -1.91049882E+01
  0.00000000E+00  9.55249411E+00  9.55249411E+00 -1.91049882E+01  0.00000000E+00
  9.55249411E+00  9.55249411E+00 -1.91049882E+01  0.00000000E+00  9.55249411E+00
  9.55249411E+00 -1.91049882E+01  0.00000000E+00  9.55249411E+00  9.55249411E+00
 -1.91049882E+01  0.00000000E+00  9.55249411E+00  9.55249411E+00 -1.91049882E+01
  0.00000000E+00  9.55249411E+00  9.55249411E+00 -1.91049882E+01  0.00000000E+00
  9.55249411E+00  9.55249411E+00 -1.91049882E+01  0.00000000E+00  9.55249411E+00
  9.55249411E+00 -1.91049882E+01  0.00000000E+00  9.55249411E+00  9.55249411E+00
 -1.91049882E+01  0.00000000E+00  9.55249411E+00  9.55249411E+00 -1.91049882E+01
  0.00000000E+00  9.55249411E+00  9.55249411E+00 -1.91049882E+01  0.00000000E+00
  9.55249411E+00  9.55249411E+00 -1.91049882E+01  0.00000000E+00  9.55249411E+00
  9.55249411E+00 -1.91049882E+01  0.00000000E+00  9.55249411E+00  9.55249411E+00
 -1.91049882E+01  0.00000000E+00  9.55249411E+00  9.55249411E+00 -1.91049882E+01
  0.00000000E+00  9.55249411E+00  9.55249411E+00 -1.91049882E+01  0.00000000E+00
  9.55249411E+00  9.55249411E+00 -1.91049882E+01  0.00000000E+00  9.55249411E+00
  9.55249411E+00 -1.91049882E+01  0.00000000E+00  9.55249411E+00  9.55249411E+00
 -1.91049882E+01  0.00000000E+00  9.55249411E+00  9.55249411E+00 -1.91049882E+01
  0.00000000E+00  9.55249411E+00  9.55249411E+00 -1.91049882E+01  0.00000000E+00
  9.55249411E+00  9.55249411E+00 -1.91049882E+01  0.00000000E+00  9.55249411E+00
  9.55249411E+00 -1.91049882E+01  0.00000000E+00  9.55249411E+00  9.55249411E+00
 -1.91049882E+01  0.00000000E+00  9.55249411E+00  9.55249411E+00 -1.91049882E+01
  0.00000000E+00  9.55249411E+00  9.55249411E+00 -1.91049882E+01  0.00000000E+00
  9.55249411E+00  9.55249411E+00 -1.91049882E+01  0.00000000E+00  9.55249411E+00
  9.55249411E+00 -1.91049882E+01  0.00000000E+00  9.55249411E+00  9.55249411E+00
 -1.91049882E+01  0.00000000E+00  9.55249411E+00  9.55249411E+00 -1.91049882E+01
  0.00000000E+00  9.55249411E+00  9.55249411E+00 -1.91049882E+01  0.00000000E+00
  9.55249411E+00  9.55249411E+00 -1.91049882E+01  0.00000000E+00  9.55249411E+00
  9.55249411E+00 -1.91049882E+01  0.00000000E+00  9.55249411E+00  9.55249411E+00
 -1.91049882E+01  0.00000000E+00  9.55249411E+00  9.55249411E+00 -1.91049882E+01
  0.00000000E+00  9.55249411E+00  9.55249411E+00 -1.91049882E+01  0.00000000E+00
  9.55249411E+00  9.55249411E+00 -1.91049882E+01  0.00000000E+00  9.55249411E+00
  9.55249411E+00 -1.91049882E+01  0.00000000E+00  9.55249411E+00  9.55249411E+00
 -1.91049882E+01  0.00000000E+00  9.55249411E+00  9.55249411E+00 -1.91049882E+01
  0.00000000E+00  9.55249411E+00  9.55249411E+00 -1.91049882E+01  0.00000000E+00
  9.55249411E+00  9.55249411E+00 -1.91049882E+01  0.00000000E+00  9.55249411E+00
  9.55249411E+00 -1.91049882E+01  0.00000000E+00  9.55249411E+00  9.55249411E+00
 -1.91049882E+01  0.00000000E+00  9.55249411E+00  9.55249411E+00 -1.91049882E+01
  0.00000000E+00  9.55249411E+00  9.55249411E+00 -1.91049882E+01  0.00000000E+00
  9.55249411E+00  9.55249411E+00 -1.91049882E+01  0.00000000E+00  9.55249411E+00
  9.55249411E+00 -1.91049882E+01  0.00000000E+00  9.55249411E+00  9.55249411E+00
 -1.91049882E+01  0.00000000E+00  9.55249411E+00  9.55249411E+00 -1.91049882E+01
  0.00000000E+00  9.55249411E+00  9.55249411E+00 -1.91049882E+01  0.00000000E+00
  9.55249411E+00  9.55249411E+00 -1.91049882E+01  0.00000000E+00  9.55249411E+00
  9.55249411E+00 -1.91049882E+01  0.00000000E+00  9.55249411E+00  9.55249411E+00
 -1.91049882E+01  0.00000000E+00  9.55249411E+00  9.55249411E+00 -1.91049882E+01
  0.00000000E+00  9.55249411E+00  9.55249411E+00 -1.91049882E+01  0.00000000E+00
  9.55249411E+00  9.55249411E+00 -1.91049882E+01  0.00000000E+00  9.55249411E+00
  9.55249411E+00 -1.91049882E+01  0.00000000E+00  9.55249411E+00  9.55249411E+00
 -1.91049882E+01  0.00000000E+00  9.55249411E+00  9.55249411E+00 -1.91049882E+01
  0.00000000E+00  9.55249411E+00  9.55249411E+00 -1.91049882E+01  0.00000000E+00
  9.55249411E+00  9.55249411E+00 -1.91049882E+01  0.00000000E+00  9.55249411E+00
  9.55249411E+00 -1.91049882E+01  0.00000000E+00  9.55249411E+00  9.55249411E+00
 -1.91049882E+01  0.00000000E+00  9.55249411E+00  9.55249411E+00 -1.91049882E+01
  0.00000000E+00  9.55249411E+00  9.55249411E+00 -1.91049882E+01  0.00000000E+00
  9.55249411E+00  9.55249411E+00 -1.91049882E+01  0.00000000E+00  9.55249411E+00
  9.55249411E+00 -1.91049882E+01  0.00000000E+00  9.55249411E+00  9.55249411E+00
 -1.91049882E+01  0.00000000E+00  9.55249411E+00  9.55249411E+00 -1.91049882E+01
  0.00000000E+00  9.55249411E+00  9.55249411E+00 -1.91049882E+01  0.00000000E+00
  9.55249411E+00  9.55249411E+00 -1.91049882E+01  0.00000000E+00  9.55249411E+00
  9.55249411E+00 -1.91049882E+01  0.00000000E+00  9.55249411E+00  9.55249411E+00
 -1.91049882E+01  0.00000000E+00  9.55249411E+00  9.55249411E+00 -1.91049882E+01
  0.00000000E+00  9.55249411E+00  9.55249411E+00 -1.91049882E+01  0.00000000E+00
  9.55249411E+00  9.55249411E+00 -1.91049882E+01  0.00000000E+00  9.55249411E+00
  9.55249411E+00 -1.91049882E+01  0.00000000E+00  9.55249411E+00  9.55249411E+00
 -1.91049882E+01  0.00000000E+00  9.55249411E+00  9.55249411E+00 -1.91049882E+01
  0.00000000E+00  9.55249411E+00  9.55249411E+00 -1.91049882E+01  0.00000000E+00
  9.55249411E+00  9.55249411E+00 -1.91049882E+01  0.00000000E+00  9.55249411E+00
  9.55249411E+00 -1.91049882E+01  0.00000000E+00  9.55249411E+00  9.55249411E+00
 -1.91049882E+01  0.00000000E+00  9.55249411E+00  9.55249411E+00 -1.91049882E+01
  0.00000000E+00  9.55249411E+00  9.55249411E+00 -1.91049882E+01  0.00000000E+00
  9.55249411E+00  9.55249411E+00 -1.91049882E+01  0.00000000E+00  9.55249411E+00
  9.55249411E+00 -1.91049882E+01  0.00000000E+00  9.55249411E+00  9.55249411E+00
 -1.91049882E+01  0.00000000E+00  9.55249411E+00  9.55249411E+00 -1.91049882E+01
  0.00000000E+00  9.55249411E+00  9.55249411E+00 -1.91049882E+01  0.00000000E+00
  9.55249411E+00  9.55249411E+00 -1.91049882E+01  0.00000000E+00  9.55249411E+00
  9.55249411E+00 -1.91049882E+01  0.00000000E+00  9.55249411E+00  9.55249411E+00
 -1.91049882E+01  0.00000000E+00  9.55249411E+00  9.55249411E+00 -1.91049882E+01
  0.00000000E+00  9.55249411E+00  9.55249411E+00 -1.91049882E+01  0.00000000E+00
  9.55249411E+00  9.55249411E+00 -1.91049882E+01  0.00000000E+00  9.55249411E+00
  9.55249411E+00 -1.91049882E+01  0.00000000E+00  9.55249411E+00  9.55249411E+00
 -1.91049882E+01  0.00000000E+00  9.55249411E+00  9.55249411E+00 -1.91049882E+01
  0.00000000E+00  9.55249411E+00  9.55249411E+00 -1.91049882E+01  0.00000000E+00
  9.55249411E+00  9.55249411E+00 -1.91049882E+01  0.00000000E+00  9.55249411E+00
  9.55249411E+00 -1.91049882E+01  0.00000000E+00  9.55249411E+00  9.55249411E+00
 -1.91049882E+01  0.00000000E+00  9.55249411E+00  9.55249411E+00 -1.91049882E+01
  0.00000000E+00  9.55249411E+00  9.55249411E+00 -1.91049882E+01  0.00000000E+00
  9.55249411E+00  9.55249411E+00 -1.91049882E+01  0.00000000E+00  9.55249411E+00
  9.55249411E+00 -1.91049882E+01  0.00000000E+00  9.55249411E+00  9.55249411E+00
 -1.91049882E+01  0.00000000E+00  9.55249411E+00  9.55249411E+00 -1.91049882E+01
  0.00000000E+00  9.55249411E+00  9.55249411E+00 -1.91049882E+01  0.00000000E+00
  9.55249411E+00  9.55249411E+00 -1.91049882E+01  0.00000000E+00  9.55249411E+00
  9.55249411E+00 -1.91049882E+01  0.00000000E+00  9.55249411E+00  9.55249411E+00
 -1.91049882E+01  0.00000000E+00  9.55249411E+00  9.55249411E+00 -1.91049882E+01
  0.00000000E+00  9.55249411E+00  9.55249411E+00 -1.91049882E+01  0.00000000E+00
  9.55249411E+00  9.55249411E+00 -1.91049882E+01  0.00000000E+00  9.55249411E+00
  9.55249411E+00 -1.91049882E+01  0.00000000E+00  9.55249411E+00  9.55249411E+00
 -1.91049882E+01  0.00000000E+00  9.55249411E+00  9.55249411E+00 -1.91049882E+01
  0.00000000E+00  9.55249411E+00  9.55249411E+00 -1.91049882E+01  0.00000000E+00
  9.55249411E+00  9.55249411E+00 -1.91049882E+01  0.00000000E+00  9.55249411E+00
  9.55249411E+00 -1.91049882E+01  0.00000000E+00  9.55249411E+00  9.55249411E+00
 -1.91049882E+01  0.00000000E+00  9.55249411E+00  9.55249411E+00 -1.91049882E+01
  0.00000000E+00  9.55249411E+00  9.55249411E+00 -1.91049882E+01  0.00000000E+00
  9.55249411E+00  9.55249411E+00 -1.91049882E+01  0.00000000E+00  9.55249411E+00
  9.55249411E+00 -1.91049882E+01  0.00000000E+00  9.55249411E+00  9.55249411E+00
 -1.91049882E+01  0.00000000E+00  9.55249411E+00  9.55249411E+00 -1.91049882E+01
  0.00000000E+00  9.55249411E+00  9.55249411E+00 -1.91049882E+01  0.00000000E+00
  9.55249411E+00  9.55249411E+00 -1.91049882E+01  0.00000000E+00  9.55249411E+00
  9.55249411E+00 -1.91049882E+01  0.00000000E+00  9.55249411E+00  9.55249411E+00
 -1.91049882E+01  0.00000000E+00  9.55249411E+00  9.55249411E+00 -1.91049882E+01
  0.00000000E+00  9.55249411E+00  9.55249411E+00 -1.91049882E+01  0.00000000E+00
  9.55249411E+00  9.55249411E+00 -1.91049882E+01  0.00000000E+00  9.55249411E+00
  9.55249411E+00 -1.91049882E+01  0.00000000E+00  9.55249411E+00  9.55249411E+00
 -1.91049882E+01  0.00000000E+00  9.55249411E+00  9.55249411E+00 -1.91049882E+01
  0.00000000E+00  9.55249411E+00  9.55249411E+00 -1.91049882E+01  0.00000000E+00
  9.55249411E+00  9.55249411E+00 -1.91049882E+01  0.00000000E+00  9.55249411E+00
  9.55249411E+00 -1.91049882E+01  0.00000000E+00  9.55249411E+00  9.55249411E+00
 -1.91049882E+01  0.00000000E+00  9.55249411E+00  9.55249411E+00 -1.91049882E+01
  0.00000000E+00  9.55249411E+00  9.55249411E+00 -1.91049882E+01  0.00000000E+00
  9.55249411E+00  9.55249411E+00 -1.91049882E+01  0.00000000E+00  9.55249411E+00
  9.55249411E+00 -1.91049882E+01  0.00000000E+00  9.55249411E+00  9.55249411E+00
 -1.91049882E+01  0.00000000E+00  9.55249411E+00  9.55249411E+00 -1.91049882E+01
  0.00000000E+00  9.55249411E+00  9.55249411E+00 -1.91049882E+01  0.00000000E+00
  9.55249411E+00  9.55249411E+00 -1.91049882E+01  0.00000000E+00  9.55249411E+00
  9.55249411E+00 -1.91049882E+01  0.00000000E+00  9.55249411E+00  9.55249411E+00
 -1.91049882E+01  0.00000000E+00  9.55249411E+00  9.55249411E+00 -1.91049882E+01
  0.00000000E+00  9.55249411E+00  9.55249411E+00 -1.91049882E+01  0.00000000E+00
  9.55249411E+00  9.55249411E+00 -1.91049882E+01  0.00000000E+00  9.55249411E+00
  9.55249411E+00 -1.91049882E+01  0.00000000E+00  9.55249411E+00  9.55249411E+00
 -1.91049882E+01  0.00000000E+00  9.55249411E+00  9.55249411E+00 -1.91049882E+01
  0.00000000E+00  9.55249411E+00  9.55249411E+00 -1.91049882E+01  0.00000000E+00
  9.55249411E+00  9.55249411E+00 -1.91049882E+01  0.00000000E+00  9.55249411E+00
  9.55249411E+00 -1.91049882E+01  0.00000000E+00  9.55249411E+00  9.55249411E+00
 -1.91049882E+01  0.00000000E+00  9.55249411E+00  9.55249411E+00 -1.91049882E+01
  0.00000000E+00  9.55249411E+00  9.55249411E+00 -1.91049882E+01  0.00000000E+00
  9.55249411E+00  9.55249411E+00 -1.91049882E+01  0.00000000E+00  9.55249411E+00
  9.55249411E+00 -1.91049882E+01  0.00000000E+00  9.55249411E+00  9.55249411E+00
 -1.91049882E+01  0.00000000E+00  9.55249411E+00  9.55249411E+00 -1.91049882E+01
  0.00000000E+00  9.55249411E+00  9.55249411E+00 -1.91049882E+01  0.00000000E+00
  9.55249411E+00  9.55249411E+00 -1.91049882E+01  0.00000000E+00  9.55249411E+00
  9.55249411E+00 -1.91049882E+01  0.00000000E+00  9.55249411E+00  9.55249411E+00
 -1.91049882E+01  0.00000000E+00  9.55249411E+00  9.55249411E+00 -1.91049882E+01
  0.00000000E+00  9.55249411E+00  9.55249411E+00 -1.91049882E+01  0.00000000E+00
  9.55249411E+00  9.55249411E+00 -1.91049882E+01  0.00000000E+00  9.55249411E+00
  9.55249411E+00 -1.91049882E+01  0.00000000E+00  9.55249411E+00  9.55249411E+00
 -1.91049882E+01  0.00000000E+00  9.55249411E+00  9.55249411E+00 -1.91049882E+01
  0.00000000E+00  9.55249411E+00  9.55249411E+00 -1.91049882E+01  0.00000000E+00
  9.55249411E+00  9.55249411E+00 -1.91049882E+01  0.00000000E+00  9.55249411E+00
  9.55249411E+00 -1.91049882E+01  0.00000000E+00  9.55249411E+00  9.55249411E+00
 -1.91049882E+01  0.00000000E+00  9.55249411E+00  9.55249411E+00 -1.91049882E+01
  0.00000000E+00  9.55249411E+00  9.55249411E+00 -1.91049882E+01  0.00000000E+00
  9.55249411E+00  9.55249411E+00 -1.91049882E+01  0.00000000E+00  9.55249411E+00
  9.55249411E+00 -1.91049882E+01  0.00000000E+00  9.55249411E+00  9.55249411E+00
 -1.91049882E+01  0.00000000E+00  9.55249411E+00  9.55249411E+00 -1.91049882E+01
  0.00000000E+00  9.55249411E+00  9.55249411E+00 -1.91049882E+01  0.00000000E+00
  9.55249411E+00  9.55249411E+00 -1.91049882E+01  0.00000000E+00  9.55249411E+00
  9.55249411E+00 -1.91049882E+01  0.00000000E+00  9.55249411E+00  9.55249411E+00
 -1.91049882E+01  0.00000000E+00  9.55249411E+00  9.55249411E+00 -1.91049882E+01
  0.00000000E+00  9.55249411E+00  9.55249411E+00 -1.91049882E+01  0.00000000E+00
  9.55249411E+00  9.55249411E+00 -1.91049882E+01  0.00000000E+00  9.55249411E+00
  9.55249411E+00 -1.91049882E+01  0.00000000E+00  9.55249411E+00  9.55249411E+00
 -1.91049882E+01  0.00000000E+00  9.55249411E+00  9.55249411E+00 -1.91049882E+01
  0.00000000E+00  9.55249411E+00  9.55249411E+00 -1.91049882E+01  0.00000000E+00
  9.55249411E+00  9.55249411E+00 -1.91049882E+01  0.00000000E+00  9.55249411E+00
  9.55249411E+00 -1.91049882E+01  0.00000000E+00  9.55249411E+00  9.55249411E+00
 -1.91049882E+01  0.00000000E+00  9.55249411E+00  9.55249411E+00 -1.91049882E+01
  0.00000000E+00  9.55249411E+00  9.55249411E+00 -1.91049882E+01  0.00000000E+00
  9.55249411E+00  9.55249411E+00 -1.91049882E+01  0.00000000E+00  9.55249411E+00
  9.55249411E+00 -1.91049882E+01  0.00000000E+00  9.55249411E+00  9.55249411E+00
 -1.91049882E+01  0.00000000E+00  9.55249411E+00  9.55249411E+00 -1.91049882E+01
  0.00000000E+00  9.55249411E+00  9.55249411E+00 -1.91049882E+01  0.00000000E+00
  9.55249411E+00  9.55249411E+00 -1.91049882E+01  0.00000000E+00  9.55249411E+00
  9.55249411E+00 -1.91049882E+01  0.00000000E+00  9.55249411E+00  9.55249411E+00
 -1.91049882E+01  0.00000000E+00  9.55249411E+00  9.55249411E+00 -1.91049882E+01
  0.00000000E+00  9.55249411E+00  9.55249411E+00 -1.91049882E+01  0.00000000E+00
  9.55249411E+00  9.55249411E+00 -1.91049882E+01  0.00000000E+00  9.55249411E+00
  9.55249411E+00 -1.91049882E+01  0.00000000E+00  9.55249411E+00  9.55249411E+00
 -1.91049882E+01  0.00000000E+00  9.55249411E+00  9.55249411E+00 -1.91049882E+01
  0.00000000E+00  9.55249411E+00  9.55249411E+00 -1.91049882E+01  0.00000000E+00
  9.55249411E+00  9.55249411E+00 -1.91049882E+01  0.00000000E+00  9.55249411E+00
  9.55249411E+00 -1.91049882E+01  0.00000000E+00  9.55249411E+00  9.55249411E+00
 -1.91049882E+01  0.00000000E+00  9.55249411E+00  9.55249411E+00 -1.91049882E+01
  0.00000000E+00  9.55249411E+00  9.55249411E+00 -1.91049882E+01  0.00000000E+00
  9.55249411E+00  9.55249411E+00 -1.91049882E+01  0.00000000E+00  9.55249411E+00
  9.55249411E+00 -1.91049882E+01  0.00000000E+00  9.55249411E+00  9.55249411E+00
 -1.91049882E+01  0.00000000E+00  9.55249411E+00  9.55249411E+00 -1.91049882E+01
  0.00000000E+00  9.55249411E+00  9.55249411E+00 -1.91049882E+01  0.00000000E+00
  9.55249411E+00  9.55249411E+00 -1.91049882E+01  0.00000000E+00  9.55249411E+00
  9.55249411E+00 -1.91049882E+01  0.00000000E+00  9.55249411E+00  9.55249411E+00
 -1.91049882E+01  0.00000000E+00  9.55249411E+00  9.55249411E+00 -1.91049882E+01
  0.00000000E+00  9.55249411E+00  9.55249411E+00 -1.91049882E+01  0.00000000E+00
  9.55249411E+00  9.55249411E+00 -1.91049882E+01  0.00000000E+00  9.55249411E+00
  9.55249411E+00 -1.91049882E+01  0.00000000E+00  9.55249411E+00  9.55249411E+00
 -1.91049882E+01  0.00000000E+00  9.55249411E+00  9.55249411E+00 -1.91049882E+01
  0.00000000E+00  9.55249411E+00  9.55249411E+00 -1.91049882E+01  0.00000000E+00
  9.55249411E+00  9.55249411E+00 -1.91049882E+01  0.00000000E+00  9.55249411E+00
  9.55249411E+00 -1.91049882E+01  0.00000000E+00  9.55249411E+00  9.55249411E+00
 -1.91049882E+01  0.00000000E+00  9.55249411E+00  9.55249411E+00 -1.91049882E+01
  0.00000000E+00  9.55249411E+00  9.55249411E+00 -1.91049882E+01  0.00000000E+00
  9.55249411E+00  9.55249411E+00 -1.91049882E+01  0.00000000E+00  9.55249411E+00
  9.55249411E+00 -1.91049882E+01  0.00000000E+00  9.55249411E+00  9.55249411E+00
 -1.91049882E+01  0.00000000E+00  9.55249411E+00  9.55249411E+00 -1.91049882E+01
  0.00000000E+00  9.55249411E+00  9.55249411E+00 -1.91049882E+01  0.00000000E+00
  9.55249411E+00  9.55249411E+00 -1.91049882E+01  0.00000000E+00  9.55249411E+00
  9.55249411E+00 -1.91049882E+01  0.00000000E+00  9.55249411E+00  9.55249411E+00
 -1.91049882E+01  0.00000000E+00  9.55249411E+00  9.55249411E+00 -1.91049882E+01
  0.00000000E+00  9.55249411E+00  9.55249411E+00 -1.91049882E+01  0.00000000E+00
  9.55249411E+00  9.55249411E+00 -1.91049882E+01  0.00000000E+00  9.55249411E+00
  9.55249411E+00 -1.91049882E+01  0.00000000E+00  9.55249411E+00  9.55249411E+00
 -1.91049882E+01  0.00000000E+00  9.55249411E+00  9.55249411E+00 -1.91049882E+01
  0.00000000E+00  9.55249411E+00  9.55249411E+00 -1.91049882E+01  0.00000000E+00
  9.55249411E+00  9.55249411E+00 -1.91049882E+01  0.00000000E+00  9.55249411E+00
  9.55249411E+00 -1.91049882E+01  0.00000000E+00  9.55249411E+00  9.55249411E+00
 -1.91049882E+01  0.00000000E+00  9.55249411E+00  9.55249411E+00 -1.91049882E+01
  0.00000000E+00  9.55249411E+00  9.55249411E+00 -1.91049882E+01  0.00000000E+00
  9.55249411E+00  9.55249411E+00 -1.91049882E+01  0.00000000E+00  9.55249411E+00
  9.55249411E+00 -1.91049882E+01  0.00000000E+00  9.55249411E+00  9.55249411E+00
 -1.91049882E+01  0.00000000E+00  9.55249411E+00  9.55249411E+00 -1.91049882E+01
  0.00000000E+00  9.55249411E+00  9.55249411E+00 -1.91049882E+01  0.00000000E+00
  9.55249411E+00  9.55249411E+00 -1.91049882E+01  0.00000000E+00  9.55249411E+00
  9.55249411E+00 -1.91049882E+01  0.00000000E+00  9.55249411E+00  9.55249411E+00
 -1.91049882E+01  0.00000000E+00  9.55249411E+00  9.55249411E+00 -1.91049882E+01
  0.00000000E+00  9.55249411E+00  9.55249411E+00 -1.91049882E+01  0.00000000E+00
  9.55249411E+00  9.55249411E+00 -1.91049882E+01  0.00000000E+00  9.55249411E+00
  9.55249411E+00 -1.91049882E+01  0.00000000E+00  9.55249411E+00  9.55249411E+00
 -1.91049882E+01  0.00000000E+00  9.55249411E+00  9.55249411E+00 -1.91049882E+01
  0.00000000E+00  9.55249411E+00  9.55249411E+00 -1.91049882E+01  0.00000000E+00
  9.55249411E+00  9.55249411E+00 -1.91049882E+01  0.00000000E+00  9.55249411E+00
  9.55249411E+00 -1.91049882E+01  0.00000000E+00  9.55249411E+00  9.55249411E+00
 -1.91049882E+01  0.00000000E+00  9.55249411E+00  9.55249411E+00 -1.91049882E+01
  0.00000000E+00  9.55249411E+00  9.55249411E+00 -1.91049882E+01  0.00000000E+00
  9.55249411E+00  9.55249411E+00 -1.91049882E+01  0.00000000E+00  9.55249411E+00
  9.55249411E+00 -1.91049882E+01  0.00000000E+00  9.55249411E+00  9.55249411E+00
 -1.91049882E+01  0.00000000E+00  9.55249411E+00  9.55249411E+00 -1.91049882E+01
  0.00000000E+00  9.55249411E+00  9.55249411E+00 -1.91049882E+01  0.00000000E+00
  9.55249411E+00  9.55249411E+00 -1.91049882E+01  0.00000000E+00  9.55249411E+00
  9.55249411E+00 -1.91049882E+01  0.00000000E+00  9.55249411E+00  9.55249411E+00
 -1.91049882E+01  0.00000000E+00  9.55249411E+00  9.55249411E+00 -1.91049882E+01
  0.00000000E+00  9.55249411E+00  9.55249411E+00 -1.91049882E+01  0.00000000E+00
  9.55249411E+00  9.55249411E+00 -1.91049882E+01  0.00000000E+00  9.55249411E+00
  9.55249411E+00 -1.91049882E+01  0.00000000E+00  9.55249411E+00  9.55249411E+00
 -1.91049882E+01  0.00000000E+00  9.55249411E+00  9.55249411E+00 -1.91049882E+01
  0.00000000E+00  9.55249411E+00  9.55249411E+00 -1.91049882E+01  0.00000000E+00
  9.55249411E+00  9.55249411E+00 -1.91049882E+01  0.00000000E+00  9.55249411E+00
  9.55249411E+00 -1.91049882E+01  0.00000000E+00  9.55249411E+00  9.55249411E+00
 -1.91049882E+01  0.00000000E+00  9.55249411E+00  9.55249411E+00 -1.91049882E+01
  0.00000000E+00  9.55249411E+00  9.55249411E+00 -1.91049882E+01  0.00000000E+00
  9.55249411E+00  9.55249411E+00 -1.91049882E+01  0.00000000E+00  9.55249411E+00
  9.55249411E+00 -1.91049882E+01  0.00000000E+00  9.55249411E+00  9.55249411E+00
 -1.91049882E+01  0.00000000E+00  9.55249411E+00  9.55249411E+00 -1.91049882E+01
  0.00000000E+00  9.55249411E+00  9.55249411E+00 -1.91049882E+01  0.00000000E+00
  9.55249411E+00  9.55249411E+00 -1.91049882E+01  0.00000000E+00  9.55249411E+00
  9.55249411E+00 -1.91049882E+01  0.00000000E+00  9.55249411E+00  9.55249411E+00
 -1.91049882E+01  0.00000000E+00  9.55249411E+00  9.55249411E+00 -1.91049882E+01
  0.00000000E+00  9.55249411E+00  9.55249411E+00 -1.91049882E+01  0.00000000E+00
  9.55249411E+00  9.55249411E+00 -1.91049882E+01  0.00000000E+00  9.55249411E+00
  9.55249411E+00 -1.91049882E+01  0.00000000E+00  9.55249411E+00  9.55249411E+00
 -1.91049882E+01  0.00000000E+00  9.55249411E+00  9.55249411E+00 -1.91049882E+01
  0.00000000E+00  9.55249411E+00  9.55249411E+00 -1.91049882E+01  0.00000000E+00
  9.55249411E+00  9.55249411E+00 -1.91049882E+01  0.00000000E+00  9.55249411E+00
  9.55249411E+00 -1.91049882E+01  0.00000000E+00  9.55249411E+00  9.55249411E+00
 -1.91049882E+01  0.00000000E+00  9.55249411E+00  9.55249411E+00 -1.91049882E+01
  0.00000000E+00  9.55249411E+00  9.55249411E+00 -1.91049882E+01  0.00000000E+00
  9.55249411E+00  9.55249411E+00 -1.91049882E+01  0.00000000E+00  9.55249411E+00
  9.55249411E+00 -1.91049882E+01  0.00000000E+00  9.55249411E+00  9.55249411E+00
 -1.91049882E+01  0.00000000E+00  9.55249411E+00  9.55249411E+00 -1.91049882E+01
  0.00000000E+00  9.55249411E+00  9.55249411E+00 -1.91049882E+01  0.00000000E+00
  9.55249411E+00  9.55249411E+00 -1.91049882E+01  0.00000000E+00  9.55249411E+00
  9.55249411E+00 -1.91049882E+01  0.00000000E+00  9.55249411E+00  9.55249411E+00
 -1.91049882E+01  0.00000000E+00  9.55249411E+00  9.55249411E+00 -1.91049882E+01
  0.00000000E+00  9.55249411E+00  9.55249411E+00 -1.91049882E+01  0.00000000E+00
  9.55249411E+00  9.55249411E+00 -1.91049882E+01  0.00000000E+00  9.55249411E+00
  9.55249411E+00 -1.91049882E+01  0.00000000E+00  9.55249411E+00  9.55249411E+00
 -1.91049882E+01  0.00000000E+00  9.55249411E+00  9.55249411E+00 -1.91049882E+01
  0.00000000E+00  9.55249411E+00  9.55249411E+00 -1.91049882E+01  0.00000000E+00
  9.55249411E+00  9.55249411E+00 -1.91049882E+01  0.00000000E+00  9.55249411E+00
  9.55249411E+00 -1.91049882E+01  0.00000000E+00  9.55249411E+00  9.55249411E+00
 -1.91049882E+01  0.00000000E+00  9.55249411E+00  9.55249411E+00 -1.91049882E+01
  0.00000000E+00  9.55249411E+00  9.55249411E+00 -1.91049882E+01  0.00000000E+00
  9.55249411E+00  9.55249411E+00 -1.91049882E+01  0.00000000E+00  9.55249411E+00
  9.55249411E+00 -1.91049882E+01  0.00000000E+00  9.55249411E+00  9.55249411E+00
 -1.91049882E+01  0.00000000E+00  9.55249411E+00  9.55249411E+00 -1.91049882E+01
  0.00000000E+00  9.55249411E+00  9.55249411E+00 -1.91049882E+01  0.00000000E+00
  9.55249411E+00  9.55249411E+00 -1.91049882E+01  0.00000000E+00  9.55249411E+00
  9.55249411E+00 -1.91049882E+01  0.00000000E+00  9.55249411E+00  9.55249411E+00
 -1.91049882E+01  0.00000000E+00  9.55249411E+00  9.55249411E+00 -1.91049882E+01
  0.00000000E+00  9.55249411E+00  9.55249411E+00 -1.91049882E+01  0.00000000E+00
  9.55249411E+00  9.55249411E+00 -1.91049882E+01  0.00000000E+00  9.55249411E+00
  9.55249411E+00 -1.91049882E+01  0.00000000E+00  9.55249411E+00  9.55249411E+00
 -1.91049882E+01  0.00000000E+00  9.55249411E+00  9.55249411E+00 -1.91049882E+01
  0.00000000E+00  9.55249411E+00  9.55249411E+00 -1.91049882E+01  0.00000000E+00
  9.55249411E+00  9.55249411E+00 -1.91049882E+01  0.00000000E+00  9.55249411E+00
  9.55249411E+00 -1.91049882E+01  0.00000000E+00  9.55249411E+00  9.55249411E+00
 -1.91049882E+01  0.00000000E+00  9.55249411E+00  9.55249411E+00 -1.91049882E+01
  0.00000000E+00  9.55249411E+00  9.55249411E+00 -1.91049882E+01  0.00000000E+00
  9.55249411E+00  9.55249411E+00 -1.91049882E+01  0.00000000E+00  9.55249411E+00
  9.55249411E+00 -1.91049882E+01  0.00000000E+00  9.55249411E+00  9.55249411E+00
 -1.91049882E+01  0.00000000E+00  9.55249411E+00  9.55249411E+00 -1.91049882E+01
  0.00000000E+00  9.55249411E+00  9.55249411E+00 -1.91049882E+01  0.00000000E+00
  9.55249411E+00  9.55249411E+00 -1.91049882E+01  0.00000000E+00  9.55249411E+00
  9.55249411E+00 -1.91049882E+01  0.00000000E+00  9.55249411E+00  9.55249411E+00
 -1.91049882E+01  0.00000000E+00  9.55249411E+00  9.55249411E+00 -1.91049882E+01
  0.00000000E+00  9.55249411E+00  9.55249411E+00 -1.91049882E+01  0.00000000E+00
  9.55249411E+00  9.55249411E+00 -1.91049882E+01  0.00000000E+00  9.55249411E+00
  9.55249411E+00 -1.91049882E+01  0.00000000E+00  9.55249411E+00  9.55249411E+00
 -1.91049882E+01  0.00000000E+00  9.55249411E+00  9.55249411E+00 -1.91049882E+01
  0.00000000E+00  9.55249411E+00  9.55249411E+00 -1.91049882E+01  0.00000000E+00
  9.55249411E+00  9.55249411E+00 -1.91049882E+01  0.00000000E+00  9.55249411E+00
  9.55249411E+00 -1.91049882E+01  0.00000000E+00  9.55249411E+00  9.55249411E+00
 -1.91049882E+01  0.00000000E+00  9.55249411E+00  9.55249411E+00 -1.91049882E+01
  0.00000000E+00  9.55249411E+00  9.55249411E+00 -1.91049882E+01  0.00000000E+00
  9.55249411E+00  9.55249411E+00 -1.91049882E+01  0.00000000E+00  9.55249411E+00
  9.55249411E+00 -1.91049882E+01  0.00000000E+00  9.55249411E+00  9.55249411E+00
 -1.91049882E+01  0.00000000E+00  9.55249411E+00  9.55249411E+00 -1.91049882E+01
  0.00000000E+00  9.55249411E+00  9.55249411E+00 -1.91049882E+01  0.00000000E+00
  9.55249411E+00  9.55249411E+00 -1.91049882E+01  0.00000000E+00  9.55249411E+00
  9.55249411E+00 -1.91049882E+01  0.00000000E+00  9.55249411E+00  9.55249411E+00
 -1.91049882E+01  0.00000000E+00  9.55249411E+00  9.55249411E+00 -1.91049882E+01
  0.00000000E+00  9.55249411E+00  9.55249411E+00 -1.91049882E+01  0.00000000E+00
  9.55249411E+00  9.55249411E+00 -1.91049882E+01  0.00000000E+00  9.55249411E+00
  9.55249411E+00 -1.91049882E+01  0.00000000E+00  9.55249411E+00  9.55249411E+00
 -1.91049882E+01  0.00000000E+00  9.55249411E+00  9.55249411E+00 -1.91049882E+01
  0.00000000E+00  9.55249411E+00  9.55249411E+00 -1.91049882E+01  0.00000000E+00
  9.55249411E+00  9.55249411E+00 -1.91049882E+01  0.00000000E+00  9.55249411E+00
  9.55249411E+00 -1.91049882E+01  0.00000000E+00  9.55249411E+00  9.55249411E+00
 -1.91049882E+01  0.00000000E+00  9.55249411E+00  9.55249411E+00 -1.91049882E+01
  0.00000000E+00  9.55249411E+00  9.55249411E+00 -1.91049882E+01  0.00000000E+00
  9.55249411E+00  9.55249411E+00 -1.91049882E+01  0.00000000E+00  9.55249411E+00
  9.55249411E+00 -1.91049882E+01  0.00000000E+00  9.55249411E+00  9.55249411E+00
 -1.91049882E+01  0.00000000E+00  9.55249411E+00  9.55249411E+00 -1.91049882E+01
  0.00000000E+00  9.55249411E+00  9.55249411E+00 -1.91049882E+01  0.00000000E+00
  9.55249411E+00  9.55249411E+00 -1.91049882E+01  0.00000000E+00  9.55249411E+00
  9.55249411E+00 -1.91049882E+01  0.00000000E+00  9.55249411E+00  9.55249411E+00
 -1.91049882E+01  0.00000000E+00  9.55249411E+00  9.55249411E+00 -1.91049882E+01
  0.00000000E+00  9.55249411E+00  9.55249411E+00 -1.91049882E+01  0.00000000E+00
  9.55249411E+00  9.55249411E+00 -1.91049882E+01  0.00000000E+00  9.55249411E+00
  9.55249411E+00 -1.91049882E+01  0.00000000E+00  9.55249411E+00  9.55249411E+00
 -1.91049882E+01  0.00000000E+00  9.55249411E+00  9.55249411E+00 -1.91049882E+01
  0.00000000E+00  9.55249411E+00  9.55249411E+00 -1.91049882E+01  0.00000000E+00
  9.55249411E+00  9.55249411E+00 -1.91049882E+01  0.00000000E+00  9.55249411E+00
  9.55249411E+00 -1.91049882E+01  0.00000000E+00  9.55249411E+00  9.55249411E+00
 -1.91049882E+01  0.00000000E+00  9.55249411E+00  9.55249411E+00 -1.91049882E+01
  0.00000000E+00  9.55249411E+00  9.55249411E+00 -1.91049882E+01  0.00000000E+00
  9.55249411E+00  9.55249411E+00 -1.91049882E+01  0.00000000E+00  9.55249411E+00
  9.55249411E+00 -1.91049882E+01  0.00000000E+00  9.55249411E+00  9.55249411E+00
 -1.91049882E+01  0.00000000E+00  9.55249411E+00  9.55249411E+00 -1.91049882E+01
  0.00000000E+00  9.55249411E+00  9.55249411E+00 -1.91049882E+01  0.00000000E+00
  9.55249411E+00  9.55249411E+00 -1.91049882E+01  0.00000000E+00  9.55249411E+00
  9.55249411E+00 -1.91049882E+01  0.00000000E+00  9.55249411E+00  9.55249411E+00
 -1.91049882E+01  0.00000000E+00  9.55249411E+00  9.55249411E+00 -1.91049882E+01
  0.00000000E+00  9.55249411E+00  9.55249411E+00 -1.91049882E+01  0.00000000E+00
  9.55249411E+00  9.55249411E+00 -1.91049882E+01  0.00000000E+00  9.55249411E+00
  9.55249411E+00 -1.91049882E+01  0.00000000E+00  9.55249411E+00  9.55249411E+00
 -1.91049882E+01  0.00000000E+00  9.55249411E+00  9.55249411E+00 -1.91049882E+01
  0.00000000E+00  9.55249411E+00  9.55249411E+00 -1.91049882E+01  0.00000000E+00
  9.55249411E+00  9.55249411E+00 -1.91049882E+01  0.00000000E+00  9.55249411E+00
  9.55249411E+00 -1.91049882E+01  0.00000000E+00  9.55249411E+00  9.55249411E+00
 -1.91049882E+01  0.00000000E+00  9.55249411E+00  9.55249411E+00 -1.91049882E+01
  0.00000000E+00  9.55249411E+00  9.55249411E+00 -1.91049882E+01  0.00000000E+00
  9.55249411E+00  9.55249411E+00 -1.91049882E+01  0.00000000E+00  9.55249411E+00
  9.55249411E+00 -1.91049882E+01  0.00000000E+00  9.55249411E+00  9.55249411E+00
 -1.91049882E+01  0.00000000E+00  9.55249411E+00  9.55249411E+00 -1.91049882E+01
  0.00000000E+00  9.55249411E+00  9.55249411E+00 -1.91049882E+01  0.00000000E+00
  9.55249411E+00  9.55249411E+00 -1.91049882E+01  0.00000000E+00  9.55249411E+00
  9.55249411E+00 -1.91049882E+01  0.00000000E+00  9.55249411E+00  9.55249411E+00
 -1.91049882E+01  0.00000000E+00  9.55249411E+00  9.55249411E+00 -1.91049882E+01
  0.00000000E+00  9.55249411E+00  9.55249411E+00 -1.91049882E+01  0.00000000E+00
  9.55249411E+00  9.55249411E+00 -1.91049882E+01  0.00000000E+00  9.55249411E+00
  9.55249411E+00 -1.91049882E+01  0.00000000E+00  9.55249411E+00  9.55249411E+00
 -1.91049882E+01  0.00000000E+00  9.55249411E+00  9.55249411E+00 -1.91049882E+01
  0.00000000E+00  9.55249411E+00  9.55249411E+00 -1.91049882E+01  0.00000000E+00
  9.55249411E+00  9.55249411E+00 -1.91049882E+01  0.00000000E+00  9.55249411E+00
  9.55249411E+00 -1.91049882E+01  0.00000000E+00  9.55249411E+00  9.55249411E+00
 -1.91049882E+01  0.00000000E+00  9.55249411E+00  9.55249411E+00 -1.91049882E+01
  0.00000000E+00  9.55249411E+00  9.55249411E+00 -1.91049882E+01  0.00000000E+00
  9.55249411E+00  9.55249411E+00 -1.91049882E+01  0.00000000E+00  9.55249411E+00
  9.55249411E+00 -1.91049882E+01  0.00000000E+00  9.55249411E+00  9.55249411E+00
 -1.91049882E+01  0.00000000E+00  9.55249411E+00  9.55249411E+00 -1.91049882E+01
  0.00000000E+00  9.55249411E+00  9.55249411E+00 -1.91049882E+01  0.00000000E+00
  9.55249411E+00  9.55249411E+00 -1.91049882E+01  0.00000000E+00  9.55249411E+00
  9.55249411E+00 -1.91049882E+01  0.00000000E+00  9.55249411E+00  9.55249411E+00
 -1.91049882E+01  0.00000000E+00  9.55249411E+00  9.55249411E+00 -1.91049882E+01
  0.00000000E+00  9.55249411E+00  9.55249411E+00 -1.91049882E+01  0.00000000E+00
  9.55249411E+00  9.55249411E+00 -1.91049882E+01  0.00000000E+00  9.55249411E+00
  9.55249411E+00 -1.91049882E+01  0.00000000E+00  9.55249411E+00  9.55249411E+00
 -1.91049882E+01  0.00000000E+00  9.55249411E+00  9.55249411E+00 -1.91049882E+01
  0.00000000E+00  9.55249411E+00  9.55249411E+00 -1.91049882E+01  0.00000000E+00
  9.55249411E+00  9.55249411E+00 -1.91049882E+01  0.00000000E+00  9.55249411E+00
  9.55249411E+00 -1.91049882E+01  0.00000000E+00  9.55249411E+00  9.55249411E+00
 -1.91049882E+01  0.00000000E+00  9.55249411E+00  9.55249411E+00 -1.91049882E+01
  0.00000000E+00  9.55249411E+00  9.55249411E+00 -1.91049882E+01  0.00000000E+00
  9.55249411E+00  9.55249411E+00 -1.91049882E+01  0.00000000E+00  9.55249411E+00
  9.55249411E+00 -1.91049882E+01  0.00000000E+00  9.55249411E+00  9.55249411E+00
 -1.91049882E+01  0.00000000E+00  9.55249411E+00  9.55249411E+00 -1.91049882E+01
  0.00000000E+00  9.55249411E+00  9.55249411E+00 -1.91049882E+01  0.00000000E+00
  9.55249411E+00  9.55249411E+00 -1.91049882E+01  0.00000000E+00  9.55249411E+00
  9.55249411E+00 -1.91049882E+01  0.00000000E+00  9.55249411E+00  9.55249411E+00
 -1.91049882E+01  0.00000000E+00  9.55249411E+00  9.55249411E+00 -1.91049882E+01
  0.00000000E+00  9.55249411E+00  9.55249411E+00 -1.91049882E+01  0.00000000E+00
  9.55249411E+00  9.55249411E+00 -1.91049882E+01  0.00000000E+00  9.55249411E+00
  9.55249411E+00 -1.91049882E+01  0.00000000E+00  9.55249411E+00  9.55249411E+00
 -1.91049882E+01  0.00000000E+00  9.55249411E+00  9.55249411E+00 -1.91049882E+01
  0.00000000E+00  9.55249411E+00  9.55249411E+00 -1.91049882E+01  0.00000000E+00
  9.55249411E+00  9.55249411E+00 -1.91049882E+01  0.00000000E+00  9.55249411E+00
  9.55249411E+00 -1.91049882E+01  0.00000000E+00  9.55249411E+00  9.55249411E+00
 -1.91049882E+01  0.00000000E+00  9.55249411E+00  9.55249411E+00 -1.91049882E+01
  0.00000000E+00  9.55249411E+00  9.55249411E+00 -1.91049882E+01  0.00000000E+00
  9.55249411E+00  9.55249411E+00 -1.91049882E+01  0.00000000E+00  9.55249411E+00
  9.55249411E+00 -1.91049882E+01  0.00000000E+00  9.55249411E+00  9.55249411E+00
 -1.91049882E+01  0.00000000E+00  9.55249411E+00  9.55249411E+00 -1.91049882E+01
  0.00000000E+00  9.55249411E+00  9.55249411E+00 -1.91049882E+01  0.00000000E+00
  9.55249411E+00  9.55249411E+00 -1.91049882E+01  0.00000000E+00  9.55249411E+00
  9.55249411E+00 -1.91049882E+01  0.00000000E+00  9.55249411E+00  9.55249411E+00
 -1.91049882E+01  0.00000000E+00  9.55249411E+00  9.55249411E+00 -1.91049882E+01
  0.00000000E+00  9.55249411E+00  9.55249411E+00 -1.91049882E+01  0.00000000E+00
  9.55249411E+00  9.55249411E+00 -1.91049882E+01  0.00000000E+00  9.55249411E+00
  9.55249411E+00 -1.91049882E+01  0.00000000E+00  9.55249411E+00  9.55249411E+00
 -1.91049882E+01  0.00000000E+00  9.55249411E+00  9.55249411E+00 -1.91049882E+01
  0.00000000E+00  9.55249411E+00  9.55249411E+00 -1.91049882E+01  0.00000000E+00
  9.55249411E+00  9.55249411E+00 -1.91049882E+01  0.00000000E+00  9.55249411E+00
  9.55249411E+00 -1.91049882E+01  0.00000000E+00  9.55249411E+00  9.55249411E+00
 -1.91049882E+01  0.00000000E+00  9.55249411E+00  9.55249411E+00 -1.91049882E+01
  0.00000000E+00  9.55249411E+00  9.55249411E+00 -1.91049882E+01  0.00000000E+00
  9.55249411E+00  9.55249411E+00 -1.91049882E+01  0.00000000E+00  9.55249411E+00
  9.55249411E+00 -1.91049882E+01  0.00000000E+00  9.55249411E+00  9.55249411E+00
 -1.91049882E+01  0.00000000E+00  9.55249411E+00  9.55249411E+00 -1.91049882E+01
  0.00000000E+00  9.55249411E+00  9.55249411E+00 -1.91049882E+01  0.00000000E+00
  9.55249411E+00  9.55249411E+00 -1.91049882E+01  0.00000000E+00  9.55249411E+00
  9.55249411E+00 -1.91049882E+01  0.00000000E+00  9.55249411E+00  9.55249411E+00
 -1.91049882E+01  0.00000000E+00  9.55249411E+00  9.55249411E+00 -1.91049882E+01
  0.00000000E+00  9.55249411E+00  9.55249411E+00 -1.91049882E+01  0.00000000E+00
  9.55249411E+00  9.55249411E+00 -1.91049882E+01  0.00000000E+00  9.55249411E+00
  9.55249411E+00 -1.91049882E+01  0.00000000E+00  9.55249411E+00  9.55249411E+00
 -1.91049882E+01  0.00000000E+00  9.55249411E+00  9.55249411E+00 -1.91049882E+01
  0.00000000E+00  9.55249411E+00  9.55249411E+00 -1.91049882E+01  0.00000000E+00
  9.55249411E+00  9.55249411E+00 -1.91049882E+01  0.00000000E+00  9.55249411E+00
  9.55249411E+00 -1.91049882E+01  0.00000000E+00  9.55249411E+00  9.55249411E+00
 -1.91049882E+01  0.00000000E+00  9.55249411E+00  9.55249411E+00 -1.91049882E+01
  0.00000000E+00  9.55249411E+00  9.55249411E+00 -1.91049882E+01  0.00000000E+00
  9.55249411E+00  9.55249411E+00 -1.91049882E+01  0.00000000E+00  9.55249411E+00
  9.55249411E+00 -1.91049882E+01  0.00000000E+00  9.55249411E+00  9.55249411E+00
 -1.91049882E+01  0.00000000E+00  9.55249411E+00  9.55249411E+00 -1.91049882E+01
  0.00000000E+00  9.55249411E+00  9.55249411E+00 -1.91049882E+01  0.00000000E+00
  9.55249411E+00  9.55249411E+00 -1.91049882E+01  0.00000000E+00  9.55249411E+00
  9.55249411E+00 -1.91049882E+01  0.00000000E+00  9.55249411E+00  9.55249411E+00
 -1.91049882E+01  0.00000000E+00  9.55249411E+00  9.55249411E+00 -1.91049882E+01
  0.00000000E+00  9.55249411E+00  9.55249411E+00 -1.91049882E+01  0.00000000E+00
  9.55249411E+00  9.55249411E+00 -1.91049882E+01  0.00000000E+00  9.55249411E+00
  9.55249411E+00 -1.91049882E+01  0.00000000E+00  9.55249411E+00  9.55249411E+00
 -1.91049882E+01  0.00000000E+00  9.55249411E+00  9.55249411E+00 -1.91049882E+01
  0.00000000E+00  9.55249411E+00  9.55249411E+00 -1.91049882E+01  0.00000000E+00
  9.55249411E+00  9.55249411E+00 -1.91049882E+01  0.00000000E+00  9.55249411E+00
  9.55249411E+00 -1.91049882E+01  0.00000000E+00  9.55249411E+00  9.55249411E+00
 -1.91049882E+01  0.00000000E+00  9.55249411E+00  9.55249411E+00 -1.91049882E+01
  0.00000000E+00  9.55249411E+00  9.55249411E+00 -1.91049882E+01  0.00000000E+00
  9.55249411E+00  9.55249411E+00 -1.91049882E+01  0.00000000E+00  9.55249411E+00
  9.55249411E+00 -1.91049882E+01  0.00000000E+00  9.55249411E+00  9.55249411E+00
 -1.91049882E+01  0.00000000E+00  9.55249411E+00  9.55249411E+00 -1.91049882E+01
  0.00000000E+00  9.55249411E+00  9.55249411E+00 -1.91049882E+01  0.00000000E+00
  9.55249411E+00  9.55249411E+00 -1.91049882E+01  0.00000000E+00  9.55249411E+00
  9.55249411E+00 -1.91049882E+01  0.00000000E+00  9.55249411E+00  9.55249411E+00
 -1.91049882E+01  0.00000000E+00  9.55249411E+00  9.55249411E+00 -1.91049882E+01
  0.00000000E+00  9.55249411E+00  9.55249411E+00 -1.91049882E+01  0.00000000E+00
  9.55249411E+00  9.55249411E+00 -1.91049882E+01  0.00000000E+00  9.55249411E+00
  9.55249411E+00 -1.91049882E+01  0.00000000E+00  9.55249411E+00  9.55249411E+00
 -1.91049882E+01  0.00000000E+00  9.55249411E+00  9.55249411E+00 -1.91049882E+01
  0.00000000E+00  9.55249411E+00  9.55249411E+00 -1.91049882E+01  0.00000000E+00
  9.55249411E+00  9.55249411E+00 -1.91049882E+01  0.00000000E+00  9.55249411E+00
  9.55249411E+00 -1.91049882E+01  0.00000000E+00  9.55249411E+00  9.55249411E+00
 -1.91049882E+01  0.00000000E+00  9.55249411E+00  9.55249411E+00 -1.91049882E+01
  0.00000000E+00  9.55249411E+00  9.55249411E+00 -1.91049882E+01  0.00000000E+00
  9.55249411E+00  9.55249411E+00 -1.91049882E+01  0.00000000E+00  9.55249411E+00
  9.55249411E+00 -1.91049882E+01  0.00000000E+00  9.55249411E+00  9.55249411E+00
 -1.91049882E+01  0.00000000E+00  9.55249411E+00  9.55249411E+00 -1.91049882E+01
  0.00000000E+00  9.55249411E+00  9.55249411E+00 -1.91049882E+01  0.00000000E+00
  9.55249411E+00  9.55249411E+00 -1.91049882E+01  0.00000000E+00  9.55249411E+00
  9.55249411E+00 -1.91049882E+01  0.00000000E+00  9.55249411E+00  9.55249411E+00
 -1.91049882E+01  0.00000000E+00  9.55249411E+00  9.55249411E+00 -1.91049882E+01
  0.00000000E+00  9.55249411E+00  9.55249411E+00 -1.91049882E+01  0.00000000E+00
  9.55249411E+00  9.55249411E+00 -1.91049882E+01  0.00000000E+00  9.55249411E+00
  9.55249411E+00 -1.91049882E+01  0.00000000E+00  9.55249411E+00  9.55249411E+00
 -1.91049882E+01  0.00000000E+00  9.55249411E+00  9.55249411E+00 -1.91049882E+01
  0.00000000E+00  9.55249411E+00  9.55249411E+00 -1.91049882E+01  0.00000000E+00
  9.55249411E+00  9.55249411E+00 -1.91049882E+01  0.00000000E+00  9.55249411E+00
  9.55249411E+00 -1.91049882E+01  0.00000000E+00  9.55249411E+00  9.55249411E+00
 -1.91049882E+01  0.00000000E+00  9.55249411E+00  9.55249411E+00 -1.91049882E+01
  0.00000000E+00  9.55249411E+00  9.55249411E+00 -1.91049882E+01  0.00000000E+00
  9.55249411E+00  9.55249411E+00 -1.91049882E+01  0.00000000E+00  9.55249411E+00
  9.55249411E+00 -1.91049882E+01  0.00000000E+00  9.55249411E+00  9.55249411E+00
 -1.91049882E+01  0.00000000E+00  9.55249411E+00  9.55249411E+00 -1.91049882E+01
  0.00000000E+00  9.55249411E+00  9.55249411E+00 -1.91049882E+01  0.00000000E+00
  9.55249411E+00  9.55249411E+00 -1.91049882E+01  0.00000000E+00  9.55249411E+00
  9.55249411E+00 -1.91049882E+01  0.00000000E+00  9.55249411E+00  9.55249411E+00
 -1.91049882E+01  0.00000000E+00  9.55249411E+00  9.55249411E+00 -1.91049882E+01
  0.00000000E+00  9.55249411E+00  9.55249411E+00 -1.91049882E+01  0.00000000E+00
  9.55249411E+00  9.55249411E+00 -1.91049882E+01  0.00000000E+00  9.55249411E+00
  9.55249411E+00 -1.91049882E+01  0.00000000E+00  9.55249411E+00  9.55249411E+00
 -1.91049882E+01  0.00000000E+00  9.55249411E+00  9.55249411E+00 -1.91049882E+01
  0.00000000E+00  9.55249411E+00  9.55249411E+00 -1.91049882E+01  0.00000000E+00
  9.55249411E+00  9.55249411E+00 -1.91049882E+01  0.00000000E+00  9.55249411E+00
  9.55249411E+00 -1.91049882E+01  0.00000000E+00  9.55249411E+00  9.55249411E+00
 -1.91049882E+01  0.00000000E+00  9.55249411E+00  9.55249411E+00 -1.91049882E+01
  0.00000000E+00  9.55249411E+00  9.55249411E+00 -1.91049882E+01  0.00000000E+00
  9.55249411E+00  9.55249411E+00 -1.91049882E+01  0.00000000E+00  9.55249411E+00
  9.55249411E+00 -1.91049882E+01  0.00000000E+00  9.55249411E+00  9.55249411E+00
 -1.91049882E+01  0.00000000E+00  9.55249411E+00  9.55249411E+00 -1.91049882E+01
  0.00000000E+00  9.55249411E+00  9.55249411E+00 -1.91049882E+01  0.00000000E+00
  9.55249411E+00  9.55249411E+00 -1.91049882E+01  0.00000000E+00  9.55249411E+00
  9.55249411E+00 -1.91049882E+01  0.00000000E+00  9.55249411E+00  9.55249411E+00
 -1.91049882E+01  0.00000000E+00  9.55249411E+00  9.55249411E+00 -1.91049882E+01
  0.00000000E+00  9.55249411E+00  9.55249411E+00 -1.91049882E+01  0.00000000E+00
  9.55249411E+00  9.55249411E+00 -1.91049882E+01  0.00000000E+00  9.55249411E+00
  9.55249411E+00 -1.91049882E+01  0.00000000E+00  9.55249411E+00  9.55249411E+00
 -1.91049882E+01  0.00000000E+00  9.55249411E+00  9.55249411E+00 -1.91049882E+01
  0.00000000E+00  9.55249411E+00  9.55249411E+00 -1.91049882E+01  0.00000000E+00
  9.55249411E+00  9.55249411E+00 -1.91049882E+01  0.00000000E+00  9.55249411E+00
  9.55249411E+00 -1.91049882E+01  0.00000000E+00  9.55249411E+00  9.55249411E+00
 -1.91049882E+01  0.00000000E+00  9.55249411E+00  9.55249411E+00 -1.91049882E+01
  0.00000000E+00  9.55249411E+00  9.55249411E+00 -1.91049882E+01  0.00000000E+00
  9.55249411E+00  9.55249411E+00 -1.91049882E+01  0.00000000E+00  9.55249411E+00
  9.55249411E+00 -1.91049882E+01  0.00000000E+00  9.55249411E+00  9.55249411E+00
 -1.91049882E+01
%FLAG ATOMIC_NUMBER                                                             
%FORMAT(10I8)                                                                   
       1       8       6       1       1       6       1       8       6       1
       7       6       1       7       6       6       8       7       1       6
       7       1       1       7       6       6       1       6       1       8
       1       8      15       8       8       8       6       1       1       6
       1       8       6       1       7       6       1       7       6       6
       8       7       1       6       7       1       1       7       6       6
       1       6       1       8       1       8      15       8       8       8
       6       1       1       6       1       8       6       1       7       6
       1       7       6       6       7       1       1       7       6       1
       7       6       6       1       6       1       8       1       8      15
       8       8       8       6       1       1       6       1       8       6
       1       7       6       1       6       1       6       8       7       1
       6       8       6       1       6       1       8       1       8      15
       8       8       8       6       1       1       6       1       8       6
       1       7       6       1       6       1       6       7       1       1
       7       6       8       6       1       6       1       8       1       8
      15       8       8       8       6       1       1       6       1       8
       6       1       7       6       1       7       6       6       7       1
       1       7       6       1       7       6       6       1       6       1
       8       1       8      15       8       8       8       6       1       1
       6       1       8       6       1       7       6       1       6       1
       6       8       7       1       6       8       6       1       6       1
       8       1       8      15       8       8       8       6       1       1
       6       1       8       6       1       7       6       1       7       6
       6       7       1       1       7       6       1       7       6       6
       1       6       1       8       1       8      15       8       8       8
       6       1       1       6       1       8       6       1       7       6
       1       6       1       6       8       7       1       6       8       6
       1       6       1       8       1       8      15       8       8       8
       6       1       1       6       1       8       6       1       7       6
       1       7       6       6       7       1       1       7       6       1
       7       6       6       1       6       1       8       1       8      15
       8       8       8       6       1       1       6       1       8       6
       1       7       6       1       7       6       6       7       1       1
       7       6       1       7       6       6       1       6       1       8
       1       8      15       8       8       8       6       1       1       6
       1       8       6       1       7       6       1       6       1       6
       8       7       1       6       8       6       1       6       1       8
       1       8      15       8       8       8       6       1       1       6
       1       8       6       1       7       6       1       6       1       6
       7       1       1       7       6       8       6       1       6       1
       8       1       8      15       8       8       8       6       1       1
       6       1       8       6       1       7       6       1       7       6
       6       8       7       1       6       7       1       1       7       6
       6       1       6       1       8       1       8      15       8       8
       8       6       1       1       6       1       8       6       1       7
       6       1       6       1       6       7       1       1       7       6
       8       6       1       6       1       8       1       8      15       8
       8       8       6       1       1       6       1       8       6       1
       7       6       1       7       6       6       8       7       1       6
       7       1       1       7       6       6       1       6       1       8
       1       8      15       8       8       8       6       1       1       6
       1       8       6       1       7       6       1       6       1       6
       8       7       1       6       8       6       1       6       1       8
       1       8      15       8       8       8       6       1       1       6
       1       8       6       1       7       6       1       7       6       6
       8       7       1       6       7       1       1       7       6       6
       1       6       1       8       1       8      15       8       8       8
       6       1       1       6       1       8       6       1       7       6
       1       7       6       6       8       7       1       6       7       1
       1       7       6       6       1       6       1       8       1       8
      15       8       8       8       6       1       1       6       1       8
       6       1       7       6       1       7       6       6       7       1
       1       7       6       1       7       6       6       1       6       1
       8       1       8      15       8       8       8       6       1       1
       6       1       8       6       1       7       6       1       6       1
       6       8       7       1       6       8       6       1       6       1
       8       1       8      15       8       8       8       6       1       1
       6       1       8       6       1       7       6       1       7       6
       6       7       1       1       7       6       1       7       6       6
       1       6       1       8       1       8      15       8       8       8
       6       1       1       6       1       8       6       1       7       6
       1       6       1       6       8       7       1       6       8       6
       1       6       1       8       1       8      15       8       8       8
       6       1       1       6       1       8       6       1       7       6
       1       7       6       6       8       7       1       6       7       1
       1       7       6       6       1       6       1       8       1       8
      15       8       8       8       6       1       1       6       1       8
       6       1       7       6       1       7       6       6       8       7
       1       6       7       1       1       7       6       6       1       6
       1       8       1       8      15       8       8       8       6       1
       1       6       1       8       6       1       7       6       1       6
       1       6       7       1       1       7       6       8       6       1
       6       1       8       1       8      15       8       8       8       6
       1       1       6       1       8       6       1       7       6       1
       7       6       6       7       1       1       7       6       1       7
       6       6       1       6       1       8       1       8      15       8
       8       8       6       1       1       6       1       8       6       1
       7       6       1       6       1       6       7       1       1       7
       6       8       6       1       6       1       8       1       8      15
       8       8       8       6       1       1       6       1       8       6
       1       7       6       1       7       6       6       8       7       1
       6       7       1       1       7       6       6       1       6       1
       8       1       8      15       8       8       8       6       1       1
       6       1       8       6       1       7       6       1       6       1
       6       7       1       1       7       6       8       6       1       6
       1       8       1       8      15       8       8       8       6       1
       1       6       1       8       6       1       7       6       1       7
       6       6       7       1       1       7       6       1       7       6
       6       1       6       1       8       1       8      15       8       8
       8       6       1       1       6       1       8       6       1       7
       6       1       7       6       6       7       1       1       7       6
       1       7       6       6       1       6       1       8       1       8
      15       8       8       8       6       1       1       6       1       8
       6       1       7       6       1       7       6       6       8       7
       1       6       7       1       1       7       6       6       1       6
       1       8       1       8      15       8       8       8       6       1
       1       6       1       8       6       1       7       6       1       6
       1       6       8       7       1       6       8       6       1       6
       1       8       1       8      15       8       8       8       6       1
       1       6       1       8       6       1       7       6       1       6
       1       6       8       7       1       6       8       6       1       6
       1       8       1       8      15       8       8       8       6       1
       1       6       1       8       6       1       7       6       1       6
       1       6       8       7       1       6       8       6       1       6
       1       8       1       8      15       8       8       8       6       1
       1       6       1       8       6       1       7       6       1       6
       1       6       7       1       1       7       6       8       6       1
       6       1       8       1       8      15       8       8       8       6
       1       1       6       1       8       6       1       7       6       1
       6       1       6       8       7       1       6       8       6       1
       6       1       8       1       8      15       8       8       8       6
       1       1       6       1       8       6       1       7       6       1
       7       6       6       7       1       1       7       6       1       7
       6       6       1       6       1       8       1       8      15       8
       8       8       6       1       1       6       1       8       6       1
       7       6       1       6       1       6       7       1       1       7
       6       8       6       1       6       1       8       1       8      15
       8       8       8       6       1       1       6       1       8       6
       1       7       6       1       6       1       6       7       1       1
       7       6       8       6       1       6       1       8       1       8
      15       8       8       8       6       1       1       6       1       8
       6       1       7       6       1       7       6       6       8       7
       1       6       7       1       1       7       6       6       1       6
       1       8       1       8      15       8       8       8       6       1
       1       6       1       8       6       1       7       6       1       7
       6       6       8       7       1       6       7       1       1       7
       6       6       1       6       1       8       1       8      15       8
       8       8       6       1       1       6       1       8       6       1
       7       6       1       7       6       6       8       7       1       6
       7       1       1       7       6       6       1       6       1       8
       1       8      15       8       8       8       6       1       1       6
       1       8       6       1       7       6       1       6       1       6
       7       1       1       7       6       8       6       1       6       1
       8       1       8      15       8       8       8       6       1       1
       6       1       8       6       1       7       6       1       7       6
       6       7       1       1       7       6       1       7       6       6
       1       6       1       8       1       8      15       8       8       8
       6       1       1       6       1       8       6       1       7       6
       1       6       1       6       7       1       1       7       6       8
       6       1       6       1       8       1       8      15       8       8
       8       6       1       1       6       1       8       6       1       7
       6       1       6       1       6       7       1       1       7       6
       8       6       1       6       1       8       1       8      15       8
       8       8       6       1       1       6       1       8       6       1
       7       6       1       7       6       6       8       7       1       6
       7       1       1       7       6       6       1       6       1       8
       1       8      15       8       8       8       6       1       1       6
       1       8       6       1       7       6       1       6       1       6
       8       7       1       6       8       6       1       6       1       8
       1       8      15       8       8       8       6       1       1       6
       1       8       6       1       7       6       1       7       6       6
       7       1       1       7       6       1       7       6       6       1
       6       1       8       1       8      15       8       8       8       6
       1       1       6       1       8       6       1       7       6       1
       7       6       6       7       1       1       7       6       1       7
       6       6       1       6       1       8       1       8      15       8
       8       8       6       1       1       6       1       8       6       1
       7       6       1       7       6       6       7       1       1       7
       6       1       7       6       6       1       6       1       8       1
       8      15       8       8       8       6       1       1       6       1
       8       6       1       7       6       1       6       1       6       8
       7       1       6       8       6       1       6       1       8       1
       8      15       8       8       8       6       1       1       6       1
       8       6       1       7       6       1       7       6       6       8
       7       1       6       7       1       1       7       6       6       1
       6       1       8       1       8      15       8       8       8       6
       1       1       6       1       8       6       1       7       6       1
       6       1       6       8       7       1       6       8       6       1
       6       1       8       1       8      15       8       8       8       6
       1       1       6       1       8       6       1       7       6       1
       6       1       6       7       1       1       7       6       8       6
       1       6       1       8       1       8      15       8       8       8
       6       1       1       6       1       8       6       1       7       6
       1       6       1       6       7       1       1       7       6       8
       6       1       6       1       8       1       8      15       8       8
       8       6       1       1       6       1       8       6       1       7
       6       1       7       6       6       8       7       1       6       7
       1       1       7       6       6       1       6       1       8       1
       8      15       8       8       8       6       1       1       6       1
       8       6       1       7       6       1       7       6       6       7
       1       1       7       6       1       7       6       6       1       6
       1       8       1       8      15       8       8       8       6       1
       1       6       1       8       6       1       7       6       1       6
       1       6       7       1       1       7       6       8       6       1
       6       1       8       1       8      15       8       8       8       6
       1       1       6       1       8       6       1       7       6       1
       6       1       6       8       7       1       6       8       6       1
       6       1       8       1       8      15       8       8       8       6
       1       1       6       1       8       6       1       7       6       1
       7       6       6       7       1       1       7       6       1       7
       6       6       1       6       1       8       1       8      15       8
       8       8       6       1       1       6       1       8       6       1
       7       6       1       6       1       6       8       7       1       6
       8       6       1       6       1       8       1       8      15       8
       8       8       6       1       1       6       1       8       6       1
       7       6       1       7       6       6       8       7       1       6
       7       1       1       7       6       6       1       6       1       8
       1       8      15       8       8       8       6       1       1       6
       1       8       6       1       7       6       1       7       6       6
       8       7       1       6       7       1       1       7       6       6
       1       6       1       8       1       8      15       8       8       8
       6       1       1       6       1       8       6       1       7       6
       1       6       1       6       8       7       1       6       8       6
       1       6       1       8       1       8      15       8       8       8
       6       1       1       6       1       8       6       1       7       6
       1       6       1       6       7       1       1       7       6       8
       6       1       6       1       8       1       8       1      11      11
      11      11      11      11      11      11      11      11      11      11
      11      11      11      11      11      11      11      11      11      11
      11      11      11      11      11      11      11      11      11      11
      11      11      11      11      11      11      11      11      11      11
      11      11      11      11      11      11      11      11      11      11
      11      11      11      11      11      11      11      11      11      11
      11      11      11      11      11      11      17      11      17      11
      17      11      17      11      17      11      17      11      17      11
      17      11      17      11      17      11      17      11      17      11
      17      11      17      11      17      11      17      11      17      11
      17      11      17      11      17      11      17      11      17      11
      17      11      17      11      17      11      17      11      17      11
      17      11      17      11      17      11      17      11      17       8
       6       7       6       6       9       9       9       7       6       6
       7       6       7       1       1       1       8       1       1       0
       8       1       1       0       8       1       1       0       8       1
       1       0       8       1       1       0       8       1       1       0
       8       1       1       0       8       1       1       0       8       1
       1       0       8       1       1       0       8       1       1       0
       8       1       1       0       8       1       1       0       8       1
       1       0       8       1       1       0       8       1       1       0
       8       1       1       0       8       1       1       0       8       1
       1       0       8       1       1       0       8       1       1       0
       8       1       1       0       8       1       1       0       8       1
       1       0       8       1       1       0       8       1       1       0
       8       1       1       0       8       1       1       0       8       1
       1       0       8       1       1       0       8       1       1       0
       8       1       1       0       8       1       1       0       8       1
       1       0       8       1       1       0       8       1       1       0
       8       1       1       0       8       1       1       0       8       1
       1       0       8       1       1       0       8       1       1       0
       8       1       1       0       8       1       1       0       8       1
       1       0       8       1       1       0       8       1       1       0
       8       1       1       0       8       1       1       0       8       1
       1       0       8       1       1       0       8       1       1       0
       8       1       1       0       8       1       1       0       8       1
       1       0       8       1       1       0       8       1       1       0
       8       1       1       0       8       1       1       0       8       1
       1       0       8       1       1       0       8       1       1       0
       8       1       1       0       8       1       1       0       8       1
       1       0       8       1       1       0       8       1       1       0
       8       1       1       0       8       1       1       0       8       1
       1       0       8       1       1       0       8       1       1       0
       8       1       1       0       8       1       1       0       8       1
       1       0       8       1       1       0       8       1       1       0
       8       1       1       0       8       1       1       0       8       1
       1       0       8       1       1       0       8       1       1       0
       8       1       1       0       8       1       1       0       8       1
       1       0       8       1       1       0       8       1       1       0
       8       1       1       0       8       1       1       0       8       1
       1       0       8       1       1       0       8       1       1       0
       8       1       1       0       8       1       1       0       8       1
       1       0       8       1       1       0       8       1       1       0
       8       1       1       0       8       1       1       0       8       1
       1       0       8       1       1       0       8       1       1       0
       8       1       1       0       8       1       1       0       8       1
       1       0       8       1       1       0       8       1       1       0
       8       1       1       0       8       1       1       0       8       1
       1       0       8       1       1       0       8       1       1       0
       8       1       1       0       8       1       1       0       8       1
       1       0       8       1       1       0       8       1       1       0
       8       1       1       0       8       1       1       0       8       1
       1       0       8       1       1       0       8       1       1       0
       8       1       1       0       8       1       1       0       8       1
       1       0       8       1       1       0       8       1       1       0
       8       1       1       0       8       1       1       0       8       1
       1       0       8       1       1       0       8       1       1       0
       8       1       1       0       8       1       1       0       8       1
       1       0       8       1       1       0       8       1       1       0
       8       1       1       0       8       1       1       0       8       1
       1       0       8       1       1       0       8       1       1       0
       8       1       1       0       8       1       1       0       8       1
       1       0       8       1       1       0       8       1       1       0
       8       1       1       0       8       1       1       0       8       1
       1       0       8       1       1       0       8       1       1       0
       8       1       1       0       8       1       1       0       8       1
       1       0       8       1       1       0       8       1       1       0
       8       1       1       0       8       1       1       0       8       1
       1       0       8       1       1       0       8       1       1       0
       8       1       1       0       8       1       1       0       8       1
       1       0       8       1       1       0       8       1       1       0
       8       1       1       0       8       1       1       0       8       1
       1       0       8       1       1       0       8       1       1       0
       8       1       1       0       8       1       1       0       8       1
       1       0       8       1       1       0       8       1       1       0
       8       1       1       0       8       1       1       0       8       1
       1       0       8       1       1       0       8       1       1       0
       8       1       1       0       8       1       1       0       8       1
       1       0       8       1       1       0       8       1       1       0
       8       1       1       0       8       1       1       0       8       1
       1       0       8       1       1       0       8       1       1       0
       8       1       1       0       8       1       1       0       8       1
       1       0       8       1       1       0       8       1       1       0
       8       1       1       0       8       1       1       0       8       1
       1       0       8       1       1       0       8       1       1       0
       8       1       1       0       8       1       1       0       8       1
       1       0       8       1       1       0       8       1       1       0
       8       1       1       0       8       1       1       0       8       1
       1       0       8       1       1       0       8       1       1       0
       8       1       1       0       8       1       1       0       8       1
       1       0       8       1       1       0       8       1       1       0
       8       1       1       0       8       1       1       0       8       1
       1       0       8       1       1       0       8       1       1       0
       8       1       1       0       8       1       1       0       8       1
       1       0       8       1       1       0       8       1       1       0
       8       1       1       0       8       1       1       0       8       1
       1       0       8       1       1       0       8       1       1       0
       8       1       1       0       8       1       1       0       8       1
       1       0       8       1       1       0       8       1       1       0
       8       1       1       0       8       1       1       0       8       1
       1       0       8       1       1       0       8       1       1       0
       8       1       1       0       8       1       1       0       8       1
       1       0       8       1       1       0       8       1       1       0
       8       1       1       0       8       1       1       0       8       1
       1       0       8       1       1       0       8       1       1       0
       8       1       1       0       8       1       1       0       8       1
       1       0       8       1       1       0       8       1       1       0
       8       1       1       0       8       1       1       0       8       1
       1       0       8       1       1       0       8       1       1       0
       8       1       1       0       8       1       1       0       8       1
       1       0       8       1       1       0       8       1       1       0
       8       1       1       0       8       1       1       0       8       1
       1       0       8       1       1       0       8       1       1       0
       8       1       1       0       8       1       1       0       8       1
       1       0       8       1       1       0       8       1       1       0
       8       1       1       0       8       1       1       0       8       1
       1       0       8       1       1       0       8       1       1       0
       8       1       1       0       8       1       1       0       8       1
       1       0       8       1       1       0       8       1       1       0
       8       1       1       0       8       1       1       0       8       1
       1       0       8       1       1       0       8       1       1       0
       8       1       1       0       8       1       1       0       8       1
       1       0       8       1       1       0       8       1       1       0
       8       1       1       0       8       1       1       0       8       1
       1       0       8       1       1       0       8       1       1       0
       8       1       1       0       8       1       1       0       8       1
       1       0       8       1       1       0       8       1       1       0
       8       1       1       0       8       1       1       0       8       1
       1       0       8       1       1       0       8       1       1       0
       8       1       1       0       8       1       1       0       8       1
       1       0       8       1       1       0       8       1       1       0
       8       1       1       0       8       1       1       0       8       1
       1       0       8       1       1       0       8       1       1       0
       8       1       1       0       8       1       1       0       8       1
       1       0       8       1       1       0       8       1       1       0
       8       1       1       0       8       1       1       0       8       1
       1       0       8       1       1       0       8       1       1       0
       8       1       1       0       8       1       1       0       8       1
       1       0       8       1       1       0       8       1       1       0
       8       1       1       0       8       1       1       0       8       1
       1       0       8       1       1       0       8       1       1       0
       8       1       1       0       8       1       1       0       8       1
       1       0       8       1       1       0       8       1       1       0
       8       1       1       0       8       1       1       0       8       1
       1       0       8       1       1       0       8       1       1       0
       8       1       1       0       8       1       1       0       8       1
       1       0       8       1       1       0       8       1       1       0
       8       1       1       0       8       1       1       0       8       1
       1       0       8       1       1       0       8       1       1       0
       8       1       1       0       8       1       1       0       8       1
       1       0       8       1       1       0       8       1       1       0
       8       1       1       0       8       1       1       0       8       1
       1       0       8       1       1       0       8       1       1       0
       8       1       1       0       8       1       1       0       8       1
       1       0       8       1       1       0       8       1       1       0
       8       1       1       0       8       1       1       0       8       1
       1       0       8       1       1       0       8       1       1       0
       8       1       1       0       8       1       1       0       8       1
       1       0       8       1       1       0       8       1       1       0
       8       1       1       0       8       1       1       0       8       1
       1       0       8       1       1       0       8       1       1       0
       8       1       1       0       8       1       1       0       8       1
       1       0       8       1       1       0       8       1       1       0
       8       1       1       0       8       1       1       0       8       1
       1       0       8       1       1       0       8       1       1       0
       8       1       1       0       8       1       1       0       8       1
       1       0       8       1       1       0       8       1       1       0
       8       1       1       0       8       1       1       0       8       1
       1       0       8       1       1       0       8       1       1       0
       8       1       1       0       8       1       1       0       8       1
       1       0       8       1       1       0       8       1       1       0
       8       1       1       0       8       1       1       0       8       1
       1       0       8       1       1       0       8       1       1       0
       8       1       1       0       8       1       1       0       8       1
       1       0       8       1       1       0       8       1       1       0
       8       1       1       0       8       1       1       0       8       1
       1       0       8       1       1       0       8       1       1       0
       8       1       1       0       8       1       1       0       8       1
       1       0       8       1       1       0       8       1       1       0
       8       1       1       0       8       1       1       0       8       1
       1       0       8       1       1       0       8       1       1       0
       8       1       1       0       8       1       1       0       8       1
       1       0       8       1       1       0       8       1       1       0
       8       1       1       0       8       1       1       0       8       1
       1       0       8       1       1       0       8       1       1       0
       8       1       1       0       8       1       1       0       8       1
       1       0       8       1       1       0       8       1       1       0
       8       1       1       0       8       1       1       0       8       1
       1       0       8       1       1       0       8       1       1       0
       8       1       1       0       8       1       1       0       8       1
       1       0       8       1       1       0       8       1       1       0
       8       1       1       0       8       1       1       0       8       1
       1       0       8       1       1       0       8       1       1       0
       8       1       1       0       8       1       1       0       8       1
       1       0       8       1       1       0       8       1       1       0
       8       1       1       0       8       1       1       0       8       1
       1       0       8       1       1       0       8       1       1       0
       8       1       1       0       8       1       1       0       8       1
       1       0       8       1       1       0       8       1       1       0
       8       1       1       0       8       1       1       0       8       1
       1       0       8       1       1       0       8       1       1       0
       8       1       1       0       8       1       1       0       8       1
       1       0       8       1       1       0       8       1       1       0
       8       1       1       0       8       1       1       0       8       1
       1       0       8       1       1       0       8       1       1       0
       8       1       1       0       8       1       1       0       8       1
       1       0       8       1       1       0       8       1       1       0
       8       1       1       0       8       1       1       0       8       1
       1       0       8       1       1       0       8       1       1       0
       8       1       1       0       8       1       1       0       8       1
       1       0       8       1       1       0       8       1       1       0
       8       1       1       0       8       1       1       0       8       1
       1       0       8       1       1       0       8       1       1       0
       8       1       1       0       8       1       1       0       8       1
       1       0       8       1       1       0       8       1       1       0
       8       1       1       0       8       1       1       0       8       1
       1       0       8       1       1       0       8       1       1       0
       8       1       1       0       8       1       1       0       8       1
       1       0       8       1       1       0       8       1       1       0
       8       1       1       0       8       1       1       0       8       1
       1       0       8       1       1       0       8       1       1       0
       8       1       1       0       8       1       1       0       8       1
       1       0       8       1       1       0       8       1       1       0
       8       1       1       0       8       1       1       0       8       1
       1       0       8       1       1       0       8       1       1       0
       8       1       1       0       8       1       1       0       8       1
       1       0       8       1       1       0       8       1       1       0
       8       1       1       0       8       1       1       0       8       1
       1       0       8       1       1       0       8       1       1       0
       8       1       1       0       8       1       1       0       8       1
       1       0       8       1       1       0       8       1       1       0
       8       1       1       0       8       1       1       0       8       1
       1       0       8       1       1       0       8       1       1       0
       8       1       1       0       8       1       1       0       8       1
       1       0       8       1       1       0       8       1       1       0
       8       1       1       0       8       1       1       0       8       1
       1       0       8       1       1       0       8       1       1       0
       8       1       1       0       8       1       1       0       8       1
       1       0       8       1       1       0       8       1       1       0
       8       1       1       0       8       1       1       0       8       1
       1       0       8       1       1       0       8       1       1       0
       8       1       1       0       8       1       1       0       8       1
       1       0       8       1       1       0       8       1       1       0
       8       1       1       0       8       1       1       0       8       1
       1       0       8       1       1       0       8       1       1       0
       8       1       1       0       8       1       1       0       8       1
       1       0       8       1       1       0       8       1       1       0
       8       1       1       0       8       1       1       0       8       1
       1       0       8       1       1       0       8       1       1       0
       8       1       1       0       8       1       1       0       8       1
       1       0       8       1       1       0       8       1       1       0
       8       1       1       0       8       1       1       0       8       1
       1       0       8       1       1       0       8       1       1       0
       8       1       1       0       8       1       1       0       8       1
       1       0       8       1       1       0       8       1       1       0
       8       1       1       0       8       1       1       0       8       1
       1       0       8       1       1       0       8       1       1       0
       8       1       1       0       8       1       1       0       8       1
       1       0       8       1       1       0       8       1       1       0
       8       1       1       0       8       1       1       0       8       1
       1       0       8       1       1       0       8       1       1       0
       8       1       1       0       8       1       1       0       8       1
       1       0       8       1       1       0       8       1       1       0
       8       1       1       0       8       1       1       0       8       1
       1       0       8       1       1       0       8       1       1       0
       8       1       1       0       8       1       1       0       8       1
       1       0       8       1       1       0       8       1       1       0
       8       1       1       0       8       1       1       0       8       1
       1       0       8       1       1       0       8       1       1       0
       8       1       1       0       8       1       1       0       8       1
       1       0       8       1       1       0       8       1       1       0
       8       1       1       0       8       1       1       0       8       1
       1       0       8       1       1       0       8       1       1       0
       8       1       1       0       8       1       1       0       8       1
       1       0       8       1       1       0       8       1       1       0
       8       1       1       0       8       1       1       0       8       1
       1       0       8       1       1       0       8       1       1       0
       8       1       1       0       8       1       1       0       8       1
       1       0       8       1       1       0       8       1       1       0
       8       1       1       0       8       1       1       0       8       1
       1       0       8       1       1       0       8       1       1       0
       8       1       1       0       8       1       1       0       8       1
       1       0       8       1       1       0       8       1       1       0
       8       1       1       0       8       1       1       0       8       1
       1       0       8       1       1       0       8       1       1       0
       8       1       1       0       8       1       1       0       8       1
       1       0       8       1       1       0       8       1       1       0
       8       1       1       0       8       1       1       0       8       1
       1       0       8       1       1       0       8       1       1       0
       8       1       1       0       8       1       1       0       8       1
       1       0       8       1       1       0       8       1       1       0
       8       1       1       0       8       1       1       0       8       1
       1       0       8       1       1       0       8       1       1       0
       8       1       1       0       8       1       1       0       8       1
       1       0       8       1       1       0       8       1       1       0
       8       1       1       0       8       1       1       0       8       1
       1       0       8       1       1       0       8       1       1       0
       8       1       1       0       8       1       1       0       8       1
       1       0       8       1       1       0       8       1       1       0
       8       1       1       0       8       1       1       0       8       1
       1       0       8       1       1       0       8       1       1       0
       8       1       1       0       8       1       1       0       8       1
       1       0       8       1       1       0       8       1       1       0
       8       1       1       0       8       1       1       0       8       1
       1       0       8       1       1       0       8       1       1       0
       8       1       1       0       8       1       1       0       8       1
       1       0       8       1       1       0       8       1       1       0
       8       1       1       0       8       1       1       0       8       1
       1       0       8       1       1       0       8       1       1       0
       8       1       1       0       8       1       1       0       8       1
       1       0       8       1       1       0       8       1       1       0
       8       1       1       0       8       1       1       0       8       1
       1       0       8       1       1       0       8       1       1       0
       8       1       1       0       8       1       1       0       8       1
       1       0       8       1       1       0       8       1       1       0
       8       1       1       0       8       1       1       0       8       1
       1       0       8       1       1       0       8       1       1       0
       8       1       1       0       8       1       1       0       8       1
       1       0       8       1       1       0       8       1       1       0
       8       1       1       0       8       1       1       0       8       1
       1       0       8       1       1       0       8       1       1       0
       8       1       1       0       8       1       1       0       8       1
       1       0       8       1       1       0       8       1       1       0
       8       1       1       0       8       1       1       0       8       1
       1       0       8       1       1       0       8       1       1       0
       8       1       1       0       8       1       1       0       8       1
       1       0       8       1       1       0       8       1       1       0
       8       1       1       0       8       1       1       0       8       1
       1       0       8       1       1       0       8       1       1       0
       8       1       1       0       8       1       1       0       8       1
       1       0       8       1       1       0       8       1       1       0
       8       1       1       0       8       1       1       0       8       1
       1       0       8       1       1       0       8       1       1       0
       8       1       1       0       8       1       1       0       8       1
       1       0       8       1       1       0       8       1       1       0
       8       1       1       0       8       1       1       0       8       1
       1       0       8       1       1       0       8       1       1       0
       8       1       1       0       8       1       1       0       8       1
       1       0       8       1       1       0       8       1       1       0
       8       1       1       0       8       1       1       0       8       1
       1       0       8       1       1       0       8       1       1       0
       8       1       1       0       8       1       1       0       8       1
       1       0       8       1       1       0       8       1       1       0
       8       1       1       0       8       1       1       0       8       1
       1       0       8       1       1       0       8       1       1       0
       8       1       1       0       8       1       1       0       8       1
       1       0       8       1       1       0       8       1       1       0
       8       1       1       0       8       1       1       0       8       1
       1       0       8       1       1       0       8       1       1       0
       8       1       1       0       8       1       1       0       8       1
       1       0       8       1       1       0       8       1       1       0
       8       1       1       0       8       1       1       0       8       1
       1       0       8       1       1       0       8       1       1       0
       8       1       1       0       8       1       1       0       8       1
       1       0       8       1       1       0       8       1       1       0
       8       1       1       0       8       1       1       0       8       1
       1       0       8       1       1       0       8       1       1       0
       8       1       1       0       8       1       1       0       8       1
       1       0       8       1       1       0       8       1       1       0
       8       1       1       0       8       1       1       0       8       1
       1       0       8       1       1       0       8       1       1       0
       8       1       1       0       8       1       1       0       8       1
       1       0       8       1       1       0       8       1       1       0
       8       1       1       0       8       1       1       0       8       1
       1       0       8       1       1       0       8       1       1       0
       8       1       1       0       8       1       1       0       8       1
       1       0       8       1       1       0       8       1       1       0
       8       1       1       0       8       1       1       0       8       1
       1       0       8       1       1       0       8       1       1       0
       8       1       1       0       8       1       1       0       8       1
       1       0       8       1       1       0       8       1       1       0
       8       1       1       0       8       1       1       0       8       1
       1       0       8       1       1       0       8       1       1       0
       8       1       1       0       8       1       1       0       8       1
       1       0       8       1       1       0       8       1       1       0
       8       1       1       0       8       1       1       0       8       1
       1       0       8       1       1       0       8       1       1       0
       8       1       1       0       8       1       1       0       8       1
       1       0       8       1       1       0       8       1       1       0
       8       1       1       0       8       1       1       0       8       1
       1       0       8       1       1       0       8       1       1       0
       8       1       1       0       8       1       1       0       8       1
       1       0       8       1       1       0       8       1       1       0
       8       1       1       0       8       1       1       0       8       1
       1       0       8       1       1       0       8       1       1       0
       8       1       1       0       8       1       1       0       8       1
       1       0       8       1       1       0       8       1       1       0
       8       1       1       0       8       1       1       0       8       1
       1       0       8       1       1       0       8       1       1       0
       8       1       1       0       8       1       1       0       8       1
       1       0       8       1       1       0       8       1       1       0
       8       1       1       0       8       1       1       0       8       1
       1       0       8       1       1       0       8       1       1       0
       8       1       1       0       8       1       1       0       8       1
       1       0       8       1       1       0       8       1       1       0
       8       1       1       0       8       1       1       0       8       1
       1       0       8       1       1       0       8       1       1       0
       8       1       1       0       8       1       1       0       8       1
       1       0       8       1       1       0       8       1       1       0
       8       1       1       0       8       1       1       0       8       1
       1       0       8       1       1       0       8       1       1       0
       8       1       1       0       8       1       1       0       8       1
       1       0       8       1       1       0       8       1       1       0
       8       1       1       0       8       1       1       0       8       1
       1       0       8       1       1       0       8       1       1       0
       8       1       1       0       8       1       1       0       8       1
       1       0       8       1       1       0       8       1       1       0
       8       1       1       0       8       1       1       0       8       1
       1       0       8       1       1       0       8       1       1       0
       8       1       1       0       8       1       1       0       8       1
       1       0       8       1       1       0       8       1       1       0
       8       1       1       0       8       1       1       0       8       1
       1       0       8       1       1       0       8       1       1       0
       8       1       1       0       8       1       1       0       8       1
       1       0       8       1       1       0       8       1       1       0
       8       1       1       0       8       1       1       0       8       1
       1       0       8       1       1       0       8       1       1       0
       8       1       1       0       8       1       1       0       8       1
       1       0       8       1       1       0       8       1       1       0
       8       1       1       0       8       1       1       0       8       1
       1       0       8       1       1       0       8       1       1       0
       8       1       1       0       8       1       1       0       8       1
       1       0       8       1       1       0       8       1       1       0
       8       1       1       0       8       1       1       0       8       1
       1       0       8       1       1       0       8       1       1       0
       8       1       1       0       8       1       1       0       8       1
       1       0       8       1       1       0       8       1       1       0
       8       1       1       0       8       1       1       0       8       1
       1       0       8       1       1       0       8       1       1       0
       8       1       1       0       8       1       1       0       8       1
       1       0       8       1       1       0       8       1       1       0
       8       1       1       0       8       1       1       0       8       1
       1       0       8       1       1       0       8       1       1       0
       8       1       1       0       8       1       1       0       8       1
       1       0       8       1       1       0       8       1       1       0
       8       1       1       0       8       1       1       0       8       1
       1       0       8       1       1       0       8       1       1       0
       8       1       1       0       8       1       1       0       8       1
       1       0       8       1       1       0       8       1       1       0
       8       1       1       0       8       1       1       0       8       1
       1       0       8       1       1       0       8       1       1       0
       8       1       1       0       8       1       1       0       8       1
       1       0       8       1       1       0       8       1       1       0
       8       1       1       0       8       1       1       0       8       1
       1       0       8       1       1       0       8       1       1       0
       8       1       1       0       8       1       1       0       8       1
       1       0       8       1       1       0       8       1       1       0
       8       1       1       0       8       1       1       0       8       1
       1       0       8       1       1       0       8       1       1       0
       8       1       1       0       8       1       1       0       8       1
       1       0       8       1       1       0       8       1       1       0
       8       1       1       0       8       1       1       0       8       1
       1       0       8       1       1       0       8       1       1       0
       8       1       1       0       8       1       1       0       8       1
       1       0       8       1       1       0       8       1       1       0
       8       1       1       0       8       1       1       0       8       1
       1       0       8       1       1       0       8       1       1       0
       8       1       1       0       8       1       1       0       8       1
       1       0       8       1       1       0       8       1       1       0
       8       1       1       0       8       1       1       0       8       1
       1       0       8       1       1       0       8       1       1       0
       8       1       1       0       8       1       1       0       8       1
       1       0       8       1       1       0       8       1       1       0
       8       1       1       0       8       1       1       0       8       1
       1       0       8       1       1       0       8       1       1       0
       8       1       1       0       8       1       1       0       8       1
       1       0       8       1       1       0       8       1       1       0
       8       1       1       0       8       1       1       0       8       1
       1       0       8       1       1       0       8       1       1       0
       8       1       1       0       8       1       1       0       8       1
       1       0       8       1       1       0       8       1       1       0
       8       1       1       0       8       1       1       0       8       1
       1       0       8       1       1       0       8       1       1       0
       8       1       1       0       8       1       1       0       8       1
       1       0       8       1       1       0       8       1       1       0
       8       1       1       0       8       1       1       0       8       1
       1       0       8       1       1       0       8       1       1       0
       8       1       1       0       8       1       1       0       8       1
       1       0       8       1       1       0       8       1       1       0
       8       1       1       0       8       1       1       0       8       1
       1       0       8       1       1       0       8       1       1       0
       8       1       1       0       8       1       1       0       8       1
       1       0       8       1       1       0       8       1       1       0
       8       1       1       0       8       1       1       0       8       1
       1       0       8       1       1       0       8       1       1       0
       8       1       1       0       8       1       1       0       8       1
       1       0       8       1       1       0       8       1       1       0
       8       1       1       0       8       1       1       0       8       1
       1       0       8       1       1       0       8       1       1       0
       8       1       1       0       8       1       1       0       8       1
       1       0       8       1       1       0       8       1       1       0
       8       1       1       0       8       1       1       0       8       1
       1       0       8       1       1       0       8       1       1       0
       8       1       1       0       8       1       1       0       8       1
       1       0       8       1       1       0       8       1       1       0
       8       1       1       0       8       1       1       0       8       1
       1       0       8       1       1       0       8       1       1       0
       8       1       1       0       8       1       1       0       8       1
       1       0       8       1       1       0       8       1       1       0
       8       1       1       0       8       1       1       0       8       1
       1       0       8       1       1       0       8       1       1       0
       8       1       1       0       8       1       1       0       8       1
       1       0       8       1       1       0       8       1       1       0
       8       1       1       0       8       1       1       0       8       1
       1       0       8       1       1       0       8       1       1       0
       8       1       1       0       8       1       1       0       8       1
       1       0       8       1       1       0       8       1       1       0
       8       1       1       0       8       1       1       0       8       1
       1       0       8       1       1       0       8       1       1       0
       8       1       1       0       8       1       1       0       8       1
       1       0       8       1       1       0       8       1       1       0
       8       1       1       0       8       1       1       0       8       1
       1       0       8       1       1       0       8       1       1       0
       8       1       1       0       8       1       1       0       8       1
       1       0       8       1       1       0       8       1       1       0
       8       1       1       0       8       1       1       0       8       1
       1       0       8       1       1       0       8       1       1       0
       8       1       1       0       8       1       1       0       8       1
       1       0       8       1       1       0       8       1       1       0
       8       1       1       0       8       1       1       0       8       1
       1       0       8       1       1       0       8       1       1       0
       8       1       1       0       8       1       1       0       8       1
       1       0       8       1       1       0       8       1       1       0
       8       1       1       0       8       1       1       0       8       1
       1       0       8       1       1       0       8       1       1       0
       8       1       1       0       8       1       1       0       8       1
       1       0       8       1       1       0       8       1       1       0
       8       1       1       0       8       1       1       0       8       1
       1       0       8       1       1       0       8       1       1       0
       8       1       1       0       8       1       1       0       8       1
       1       0       8       1       1       0       8       1       1       0
       8       1       1       0       8       1       1       0       8       1
       1       0       8       1       1       0       8       1       1       0
       8       1       1       0       8       1       1       0       8       1
       1       0       8       1       1       0       8       1       1       0
       8       1       1       0       8       1       1       0       8       1
       1       0       8       1       1       0       8       1       1       0
       8       1       1       0       8       1       1       0       8       1
       1       0       8       1       1       0       8       1       1       0
       8       1       1       0       8       1       1       0       8       1
       1       0       8       1       1       0       8       1       1       0
       8       1       1       0       8       1       1       0       8       1
       1       0       8       1       1       0       8       1       1       0
       8       1       1       0       8       1       1       0       8       1
       1       0       8       1       1       0       8       1       1       0
       8       1       1       0       8       1       1       0       8       1
       1       0       8       1       1       0       8       1       1       0
       8       1       1       0       8       1       1       0       8       1
       1       0       8       1       1       0       8       1       1       0
       8       1       1       0       8       1       1       0       8       1
       1       0       8       1       1       0       8       1       1       0
       8       1       1       0       8       1       1       0       8       1
       1       0       8       1       1       0       8       1       1       0
       8       1       1       0       8       1       1       0       8       1
       1       0       8       1       1       0       8       1       1       0
       8       1       1       0       8       1       1       0       8       1
       1       0       8       1       1       0       8       1       1       0
       8       1       1       0       8       1       1       0       8       1
       1       0       8       1       1       0       8       1       1       0
       8       1       1       0       8       1       1       0       8       1
       1       0       8       1       1       0       8       1       1       0
       8       1       1       0       8       1       1       0       8       1
       1       0       8       1       1       0       8       1       1       0
       8       1       1       0       8       1       1       0       8       1
       1       0       8       1       1       0       8       1       1       0
       8       1       1       0       8       1       1       0       8       1
       1       0       8       1       1       0       8       1       1       0
       8       1       1       0       8       1       1       0       8       1
       1       0       8       1       1       0       8       1       1       0
       8       1       1       0       8       1       1       0       8       1
       1       0       8       1       1       0       8       1       1       0
       8       1       1       0       8       1       1       0       8       1
       1       0       8       1       1       0       8       1       1       0
       8       1       1       0       8       1       1       0       8       1
       1       0       8       1       1       0       8       1       1       0
       8       1       1       0       8       1       1       0       8       1
       1       0       8       1       1       0       8       1       1       0
       8       1       1       0       8       1       1       0       8       1
       1       0       8       1       1       0       8       1       1       0
       8       1       1       0       8       1       1       0       8       1
       1       0       8       1       1       0       8       1       1       0
       8       1       1       0       8       1       1       0       8       1
       1       0       8       1       1       0       8       1       1       0
       8       1       1       0       8       1       1       0       8       1
       1       0       8       1       1       0       8       1       1       0
       8       1       1       0       8       1       1       0       8       1
       1       0       8       1       1       0       8       1       1       0
       8       1       1       0       8       1       1       0       8       1
       1       0       8       1       1       0       8       1       1       0
       8       1       1       0       8       1       1       0       8       1
       1       0       8       1       1       0       8       1       1       0
       8       1       1       0       8       1       1       0       8       1
       1       0       8       1       1       0       8       1       1       0
       8       1       1       0       8       1       1       0       8       1
       1       0       8       1       1       0       8       1       1       0
       8       1       1       0       8       1       1       0       8       1
       1       0       8       1       1       0       8       1       1       0
       8       1       1       0       8       1       1       0       8       1
       1       0       8       1       1       0       8       1       1       0
       8       1       1       0       8       1       1       0       8       1
       1       0       8       1       1       0       8       1       1       0
       8       1       1       0       8       1       1       0       8       1
       1       0       8       1       1       0       8       1       1       0
       8       1       1       0       8       1       1       0       8       1
       1       0       8       1       1       0       8       1       1       0
       8       1       1       0       8       1       1       0       8       1
       1       0       8       1       1       0       8       1       1       0
       8       1       1       0       8       1       1       0       8       1
       1       0       8       1       1       0       8       1       1       0
       8       1       1       0       8       1       1       0       8       1
       1       0       8       1       1       0       8       1       1       0
       8       1       1       0       8       1       1       0       8       1
       1       0       8       1       1       0       8       1       1       0
       8       1       1       0       8       1       1       0       8       1
       1       0       8       1       1       0       8       1       1       0
       8       1       1       0       8       1       1       0       8       1
       1       0       8       1       1       0       8       1       1       0
       8       1       1       0       8       1       1       0       8       1
       1       0       8       1       1       0       8       1       1       0
       8       1       1       0       8       1       1       0       8       1
       1       0       8       1       1       0       8       1       1       0
       8       1       1       0       8       1       1       0       8       1
       1       0       8       1       1       0       8       1       1       0
       8       1       1       0       8       1       1       0       8       1
       1       0       8       1       1       0       8       1       1       0
       8       1       1       0       8       1       1       0       8       1
       1       0       8       1       1       0       8       1       1       0
       8       1       1       0       8       1       1       0       8       1
       1       0       8       1       1       0       8       1       1       0
       8       1       1       0       8       1       1       0       8       1
       1       0       8       1       1       0       8       1       1       0
       8       1       1       0       8       1       1       0       8       1
       1       0       8       1       1       0       8       1       1       0
       8       1       1       0       8       1       1       0       8       1
       1       0       8       1       1       0       8       1       1       0
       8       1       1       0       8       1       1       0       8       1
       1       0       8       1       1       0       8       1       1       0
       8       1       1       0       8       1       1       0       8       1
       1       0       8       1       1       0       8       1       1       0
       8       1       1       0       8       1       1       0       8       1
       1       0       8       1       1       0       8       1       1       0
       8       1       1       0       8       1       1       0       8       1
       1       0       8       1       1       0       8       1       1       0
       8       1       1       0       8       1       1       0       8       1
       1       0       8       1       1       0       8       1       1       0
       8       1       1       0       8       1       1       0       8       1
       1       0       8       1       1       0       8       1       1       0
       8       1       1       0       8       1       1       0       8       1
       1       0       8       1       1       0       8       1       1       0
       8       1       1       0       8       1       1       0       8       1
       1       0       8       1       1       0       8       1       1       0
       8       1       1       0       8       1       1       0       8       1
       1       0       8       1       1       0       8       1       1       0
       8       1       1       0       8       1       1       0       8       1
       1       0       8       1       1       0       8       1       1       0
       8       1       1       0       8       1       1       0       8       1
       1       0       8       1       1       0       8       1       1       0
       8       1       1       0       8       1       1       0       8       1
       1       0       8       1       1       0       8       1       1       0
       8       1       1       0       8       1       1       0       8       1
       1       0       8       1       1       0       8       1       1       0
       8       1       1       0       8       1       1       0       8       1
       1       0       8       1       1       0       8       1       1       0
       8       1       1       0       8       1       1       0       8       1
       1       0       8       1       1       0       8       1       1       0
       8       1       1       0       8       1       1       0       8       1
       1       0       8       1       1       0       8       1       1       0
       8       1       1       0       8       1       1       0       8       1
       1       0       8       1       1       0       8       1       1       0
       8       1       1       0       8       1       1       0       8       1
       1       0       8       1       1       0       8       1       1       0
       8       1       1       0       8       1       1       0       8       1
       1       0       8       1       1       0       8       1       1       0
       8       1       1       0       8       1       1       0       8       1
       1       0       8       1       1       0       8       1       1       0
       8       1       1       0       8       1       1       0       8       1
       1       0       8       1       1       0       8       1       1       0
       8       1       1       0       8       1       1       0       8       1
       1       0       8       1       1       0       8       1       1       0
       8       1       1       0       8       1       1       0       8       1
       1       0       8       1       1       0       8       1       1       0
       8       1       1       0       8       1       1       0       8       1
       1       0       8       1       1       0       8       1       1       0
       8       1       1       0       8       1       1       0       8       1
       1       0       8       1       1       0       8       1       1       0
       8       1       1       0       8       1       1       0       8       1
       1       0       8       1       1       0       8       1       1       0
       8       1       1       0       8       1       1       0       8       1
       1       0       8       1       1       0       8       1       1       0
       8       1       1       0       8       1       1       0       8       1
       1       0       8       1       1       0       8       1       1       0
       8       1       1       0       8       1       1       0       8       1
       1       0       8       1       1       0       8       1       1       0
       8       1       1       0       8       1       1       0       8       1
       1       0       8       1       1       0       8       1       1       0
       8       1       1       0       8       1       1       0       8       1
       1       0       8       1       1       0       8       1       1       0
       8       1       1       0       8       1       1       0       8       1
       1       0       8       1       1       0       8       1       1       0
       8       1       1       0       8       1       1       0       8       1
       1       0       8       1       1       0       8       1       1       0
       8       1       1       0       8       1       1       0       8       1
       1       0       8       1       1       0       8       1       1       0
       8       1       1       0       8       1       1       0       8       1
       1       0       8       1       1       0       8       1       1       0
       8       1       1       0       8       1       1       0       8       1
       1       0       8       1       1       0       8       1       1       0
       8       1       1       0       8       1       1       0       8       1
       1       0       8       1       1       0       8       1       1       0
       8       1       1       0       8       1       1       0       8       1
       1       0       8       1       1       0       8       1       1       0
       8       1       1       0       8       1       1       0       8       1
       1       0       8       1       1       0       8       1       1       0
       8       1       1       0       8       1       1       0       8       1
       1       0       8       1       1       0       8       1       1       0
       8       1       1       0       8       1       1       0       8       1
       1       0       8       1       1       0       8       1       1       0
       8       1       1       0       8       1       1       0       8       1
       1       0       8       1       1       0       8       1       1       0
       8       1       1       0       8       1       1       0       8       1
       1       0       8       1       1       0       8       1       1       0
       8       1       1       0       8       1       1       0       8       1
       1       0       8       1       1       0       8       1       1       0
       8       1       1       0       8       1       1       0       8       1
       1       0       8       1       1       0       8       1       1       0
       8       1       1       0       8       1       1       0       8       1
       1       0       8       1       1       0       8       1       1       0
       8       1       1       0       8       1       1       0       8       1
       1       0       8       1       1       0       8       1       1       0
       8       1       1       0       8       1       1       0       8       1
       1       0       8       1       1       0       8       1       1       0
       8       1       1       0       8       1       1       0       8       1
       1       0       8       1       1       0       8       1       1       0
       8       1       1       0       8       1       1       0       8       1
       1       0       8       1       1       0       8       1       1       0
       8       1       1       0       8       1       1       0       8       1
       1       0       8       1       1       0       8       1       1       0
       8       1       1       0       8       1       1       0       8       1
       1       0       8       1       1       0       8       1       1       0
       8       1       1       0       8       1       1       0       8       1
       1       0       8       1       1       0       8       1       1       0
       8       1       1       0       8       1       1       0       8       1
       1       0       8       1       1       0       8       1       1       0
       8       1       1       0       8       1       1       0       8       1
       1       0       8       1       1       0       8       1       1       0
       8       1       1       0       8       1       1       0       8       1
       1       0       8       1       1       0       8       1       1       0
       8       1       1       0       8       1       1       0       8       1
       1       0       8       1       1       0       8       1       1       0
       8       1       1       0       8       1       1       0       8       1
       1       0       8       1       1       0       8       1       1       0
       8       1       1       0       8       1       1       0       8       1
       1       0       8       1       1       0       8       1       1       0
       8       1       1       0       8       1       1       0       8       1
       1       0       8       1       1       0       8       1       1       0
       8       1       1       0       8       1       1       0       8       1
       1       0       8       1       1       0       8       1       1       0
       8       1       1       0       8       1       1       0       8       1
       1       0       8       1       1       0       8       1       1       0
       8       1       1       0       8       1       1       0       8       1
       1       0       8       1       1       0       8       1       1       0
       8       1       1       0       8       1       1       0       8       1
       1       0       8       1       1       0       8       1       1       0
       8       1       1       0       8       1       1       0       8       1
       1       0       8       1       1       0       8       1       1       0
       8       1       1       0       8       1       1       0       8       1
       1       0       8       1       1       0       8       1       1       0
       8       1       1       0       8       1       1       0       8       1
       1       0       8       1       1       0       8       1       1       0
       8       1       1       0       8       1       1       0       8       1
       1       0       8       1       1       0       8       1       1       0
       8       1       1       0       8       1       1       0       8       1
       1       0       8       1       1       0       8       1       1       0
       8       1       1       0       8       1       1       0       8       1
       1       0       8       1       1       0       8       1       1       0
       8       1       1       0       8       1       1       0       8       1
       1       0       8       1       1       0       8       1       1       0
       8       1       1       0       8       1       1       0       8       1
       1       0       8       1       1       0       8       1       1       0
       8       1       1       0       8       1       1       0       8       1
       1       0       8       1       1       0       8       1       1       0
       8       1       1       0       8       1       1       0       8       1
       1       0       8       1       1       0       8       1       1       0
       8       1       1       0       8       1       1       0       8       1
       1       0       8       1       1       0       8       1       1       0
       8       1       1       0       8       1       1       0       8       1
       1       0       8       1       1       0       8       1       1       0
       8       1       1       0       8       1       1       0       8       1
       1       0       8       1       1       0       8       1       1       0
       8       1       1       0       8       1       1       0       8       1
       1       0       8       1       1       0       8       1       1       0
       8       1       1       0       8       1       1       0       8       1
       1       0       8       1       1       0       8       1       1       0
       8       1       1       0       8       1       1       0       8       1
       1       0       8       1       1       0       8       1       1       0
       8       1       1       0       8       1       1       0       8       1
       1       0       8       1       1       0       8       1       1       0
       8       1       1       0       8       1       1       0       8       1
       1       0       8       1       1       0       8       1       1       0
       8       1       1       0       8       1       1       0       8       1
       1       0       8       1       1       0       8       1       1       0
       8       1       1       0       8       1       1       0       8       1
       1       0       8       1       1       0       8       1       1       0
       8       1       1       0       8       1       1       0       8       1
       1       0       8       1       1       0       8       1       1       0
       8       1       1       0       8       1       1       0       8       1
       1       0       8       1       1       0       8       1       1       0
       8       1       1       0       8       1       1       0       8       1
       1       0       8       1       1       0       8       1       1       0
       8       1       1       0       8       1       1       0       8       1
       1       0       8       1       1       0       8       1       1       0
       8       1       1       0       8       1       1       0       8       1
       1       0       8       1       1       0       8       1       1       0
       8       1       1       0       8       1       1       0       8       1
       1       0       8       1       1       0       8       1       1       0
       8       1       1       0       8       1       1       0       8       1
       1       0       8       1       1       0       8       1       1       0
       8       1       1       0       8       1       1       0       8       1
       1       0       8       1       1       0       8       1       1       0
       8       1       1       0       8       1       1       0       8       1
       1       0       8       1       1       0       8       1       1       0
       8       1       1       0       8       1       1       0       8       1
       1       0       8       1       1       0       8       1       1       0
       8       1       1       0       8       1       1       0       8       1
       1       0       8       1       1       0       8       1       1       0
       8       1       1       0       8       1       1       0       8       1
       1       0       8       1       1       0       8       1       1       0
       8       1       1       0       8       1       1       0       8       1
       1       0       8       1       1       0       8       1       1       0
       8       1       1       0       8       1       1       0       8       1
       1       0       8       1       1       0       8       1       1       0
       8       1       1       0       8       1       1       0       8       1
       1       0       8       1       1       0       8       1       1       0
       8       1       1       0       8       1       1       0       8       1
       1       0       8       1       1       0       8       1       1       0
       8       1       1       0       8       1       1       0       8       1
       1       0       8       1       1       0       8       1       1       0
       8       1       1       0       8       1       1       0       8       1
       1       0       8       1       1       0       8       1       1       0
       8       1       1       0       8       1       1       0       8       1
       1       0       8       1       1       0       8       1       1       0
       8       1       1       0       8       1       1       0       8       1
       1       0       8       1       1       0       8       1       1       0
       8       1       1       0       8       1       1       0       8       1
       1       0       8       1       1       0       8       1       1       0
       8       1       1       0       8       1       1       0       8       1
       1       0       8       1       1       0       8       1       1       0
       8       1       1       0       8       1       1       0       8       1
       1       0       8       1       1       0       8       1       1       0
       8       1       1       0       8       1       1       0       8       1
       1       0       8       1       1       0       8       1       1       0
       8       1       1       0       8       1       1       0       8       1
       1       0       8       1       1       0       8       1       1       0
       8       1       1       0       8       1       1       0       8       1
       1       0       8       1       1       0       8       1       1       0
       8       1       1       0       8       1       1       0       8       1
       1       0       8       1       1       0       8       1       1       0
       8       1       1       0       8       1       1       0       8       1
       1       0       8       1       1       0       8       1       1       0
       8       1       1       0       8       1       1       0       8       1
       1       0       8       1       1       0       8       1       1       0
       8       1       1       0       8       1       1       0       8       1
       1       0       8       1       1       0       8       1       1       0
       8       1       1       0       8       1       1       0       8       1
       1       0       8       1       1       0       8       1       1       0
       8       1       1       0       8       1       1       0       8       1
       1       0       8       1       1       0       8       1       1       0
       8       1       1       0       8       1       1       0       8       1
       1       0       8       1       1       0       8       1       1       0
       8       1       1       0       8       1       1       0       8       1
       1       0       8       1       1       0       8       1       1       0
       8       1       1       0       8       1       1       0       8       1
       1       0       8       1       1       0       8       1       1       0
       8       1       1       0       8       1       1       0       8       1
       1       0       8       1       1       0       8       1       1       0
       8       1       1       0       8       1       1       0       8       1
       1       0       8       1       1       0       8       1       1       0
       8       1       1       0       8       1       1       0       8       1
       1       0       8       1       1       0       8       1       1       0
       8       1       1       0       8       1       1       0       8       1
       1       0       8       1       1       0       8       1       1       0
       8       1       1       0       8       1       1       0       8       1
       1       0       8       1       1       0       8       1       1       0
       8       1       1       0       8       1       1       0       8       1
       1       0       8       1       1       0       8       1       1       0
       8       1       1       0       8       1       1       0       8       1
       1       0       8       1       1       0       8       1       1       0
       8       1       1       0       8       1       1       0       8       1
       1       0       8       1       1       0       8       1       1       0
       8       1       1       0       8       1       1       0       8       1
       1       0       8       1       1       0       8       1       1       0
       8       1       1       0       8       1       1       0       8       1
       1       0       8       1       1       0       8       1       1       0
       8       1       1       0       8       1       1       0       8       1
       1       0       8       1       1       0       8       1       1       0
       8       1       1       0       8       1       1       0       8       1
       1       0       8       1       1       0       8       1       1       0
       8       1       1       0       8       1       1       0       8       1
       1       0       8       1       1       0       8       1       1       0
       8       1       1       0       8       1       1       0       8       1
       1       0       8       1       1       0       8       1       1       0
       8       1       1       0       8       1       1       0       8       1
       1       0       8       1       1       0       8       1       1       0
       8       1       1       0       8       1       1       0       8       1
       1       0       8       1       1       0       8       1       1       0
       8       1       1       0       8       1       1       0       8       1
       1       0       8       1       1       0       8       1       1       0
       8       1       1       0       8       1       1       0       8       1
       1       0       8       1       1       0       8       1       1       0
       8       1       1       0       8       1       1       0       8       1
       1       0       8       1       1       0       8       1       1       0
       8       1       1       0       8       1       1       0       8       1
       1       0       8       1       1       0       8       1       1       0
       8       1       1       0       8       1       1       0       8       1
       1       0       8       1       1       0       8       1       1       0
       8       1       1       0       8       1       1       0       8       1
       1       0       8       1       1       0       8       1       1       0
       8       1       1       0       8       1       1       0       8       1
       1       0       8       1       1       0       8       1       1       0
       8       1       1       0       8       1       1       0       8       1
       1       0       8       1       1       0       8       1       1       0
       8       1       1       0       8       1       1       0       8       1
       1       0       8       1       1       0       8       1       1       0
       8       1       1       0       8       1       1       0       8       1
       1       0       8       1       1       0       8       1       1       0
       8       1       1       0       8       1       1       0       8       1
       1       0       8       1       1       0       8       1       1       0
       8       1       1       0       8       1       1       0       8       1
       1       0       8       1       1       0       8       1       1       0
       8       1       1       0       8       1       1       0       8       1
       1       0       8       1       1       0       8       1       1       0
       8       1       1       0       8       1       1       0       8       1
       1       0       8       1       1       0       8       1       1       0
       8       1       1       0       8       1       1       0       8       1
       1       0       8       1       1       0       8       1       1       0
       8       1       1       0       8       1       1       0       8       1
       1       0       8       1       1       0       8       1       1       0
       8       1       1       0       8       1       1       0       8       1
       1       0       8       1       1       0       8       1       1       0
       8       1       1       0       8       1       1       0       8       1
       1       0       8       1       1       0       8       1       1       0
       8       1       1       0       8       1       1       0       8       1
       1       0       8       1       1       0       8       1       1       0
       8       1       1       0       8       1       1       0       8       1
       1       0       8       1       1       0       8       1       1       0
       8       1       1       0       8       1       1       0       8       1
       1       0       8       1       1       0       8       1       1       0
       8       1       1       0       8       1       1       0       8       1
       1       0       8       1       1       0       8       1       1       0
       8       1       1       0       8       1       1       0       8       1
       1       0       8       1       1       0       8       1       1       0
       8       1       1       0       8       1       1       0       8       1
       1       0       8       1       1       0       8       1       1       0
       8       1       1       0       8       1       1       0       8       1
       1       0       8       1       1       0       8       1       1       0
       8       1       1       0       8       1       1       0       8       1
       1       0       8       1       1       0       8       1       1       0
       8       1       1       0       8       1       1       0       8       1
       1       0       8       1       1       0       8       1       1       0
       8       1       1       0       8       1       1       0       8       1
       1       0       8       1       1       0       8       1       1       0
       8       1       1       0       8       1       1       0       8       1
       1       0       8       1       1       0       8       1       1       0
       8       1       1       0       8       1       1       0       8       1
       1       0       8       1       1       0       8       1       1       0
       8       1       1       0       8       1       1       0       8       1
       1       0       8       1       1       0       8       1       1       0
       8       1       1       0       8       1       1       0       8       1
       1       0       8       1       1       0       8       1       1       0
       8       1       1       0       8       1       1       0       8       1
       1       0       8       1       1       0       8       1       1       0
       8       1       1       0       8       1       1       0       8       1
       1       0       8       1       1       0       8       1       1       0
       8       1       1       0       8       1       1       0       8       1
       1       0       8       1       1       0       8       1       1       0
       8       1       1       0       8       1       1       0       8       1
       1       0       8       1       1       0       8       1       1       0
       8       1       1       0       8       1       1       0       8       1
       1       0       8       1       1       0       8       1       1       0
       8       1       1       0       8       1       1       0       8       1
       1       0       8       1       1       0       8       1       1       0
       8       1       1       0       8       1       1       0       8       1
       1       0       8       1       1       0       8       1       1       0
       8       1       1       0       8       1       1       0       8       1
       1       0       8       1       1       0       8       1       1       0
       8       1       1       0       8       1       1       0       8       1
       1       0       8       1       1       0       8       1       1       0
       8       1       1       0       8       1       1       0       8       1
       1       0       8       1       1       0       8       1       1       0
       8       1       1       0       8       1       1       0       8       1
       1       0       8       1       1       0       8       1       1       0
       8       1       1       0       8       1       1       0       8       1
       1       0       8       1       1       0       8       1       1       0
       8       1       1       0       8       1       1       0       8       1
       1       0       8       1       1       0       8       1       1       0
       8       1       1       0       8       1       1       0       8       1
       1       0       8       1       1       0       8       1       1       0
       8       1       1       0       8       1       1       0       8       1
       1       0       8       1       1       0       8       1       1       0
       8       1       1       0       8       1       1       0       8       1
       1       0       8       1       1       0       8       1       1       0
       8       1       1       0       8       1       1       0       8       1
       1       0       8       1       1       0       8       1       1       0
       8       1       1       0       8       1       1       0       8       1
       1       0       8       1       1       0       8       1       1       0
       8       1       1       0       8       1       1       0       8       1
       1       0       8       1       1       0       8       1       1       0
       8       1       1       0       8       1       1       0       8       1
       1       0       8       1       1       0       8       1       1       0
       8       1       1       0       8       1       1       0       8       1
       1       0       8       1       1       0       8       1       1       0
       8       1       1       0       8       1       1       0       8       1
       1       0       8       1       1       0       8       1       1       0
       8       1       1       0       8       1       1       0       8       1
       1       0       8       1       1       0       8       1       1       0
       8       1       1       0       8       1       1       0       8       1
       1       0       8       1       1       0       8       1       1       0
       8       1       1       0       8       1       1       0       8       1
       1       0       8       1       1       0       8       1       1       0
       8       1       1       0       8       1       1       0       8       1
       1       0       8       1       1       0       8       1       1       0
       8       1       1       0       8       1       1       0       8       1
       1       0       8       1       1       0       8       1       1       0
       8       1       1       0       8       1       1       0       8       1
       1       0       8       1       1       0       8       1       1       0
       8       1       1       0       8       1       1       0       8       1
       1       0       8       1       1       0       8       1       1       0
       8       1       1       0       8       1       1       0       8       1
       1       0       8       1       1       0       8       1       1       0
       8       1       1       0       8       1       1       0       8       1
       1       0       8       1       1       0       8       1       1       0
       8       1       1       0       8       1       1       0       8       1
       1       0       8       1       1       0       8       1       1       0
       8       1       1       0       8       1       1       0       8       1
       1       0       8       1       1       0       8       1       1       0
       8       1       1       0       8       1       1       0       8       1
       1       0       8       1       1       0       8       1       1       0
       8       1       1       0       8       1       1       0       8       1
       1       0       8       1       1       0       8       1       1       0
       8       1       1       0       8       1       1       0       8       1
       1       0       8       1       1       0       8       1       1       0
       8       1       1       0       8       1       1       0       8       1
       1       0       8       1       1       0       8       1       1       0
       8       1       1       0       8       1       1       0       8       1
       1       0       8       1       1       0       8       1       1       0
       8       1       1       0       8       1       1       0       8       1
       1       0       8       1       1       0       8       1       1       0
       8       1       1       0       8       1       1       0       8       1
       1       0       8       1       1       0       8       1       1       0
       8       1       1       0       8       1       1       0       8       1
       1       0       8       1       1       0       8       1       1       0
       8       1       1       0       8       1       1       0       8       1
       1       0       8       1       1       0       8       1       1       0
       8       1       1       0       8       1       1       0       8       1
       1       0       8       1       1       0       8       1       1       0
       8       1       1       0       8       1       1       0       8       1
       1       0       8       1       1       0       8       1       1       0
       8       1       1       0       8       1       1       0       8       1
       1       0       8       1       1       0       8       1       1       0
       8       1       1       0       8       1       1       0       8       1
       1       0       8       1       1       0       8       1       1       0
       8       1       1       0       8       1       1       0       8       1
       1       0       8       1       1       0       8       1       1       0
       8       1       1       0       8       1       1       0       8       1
       1       0       8       1       1       0       8       1       1       0
       8       1       1       0       8       1       1       0       8       1
       1       0       8       1       1       0       8       1       1       0
       8       1       1       0       8       1       1       0       8       1
       1       0       8       1       1       0       8       1       1       0
       8       1       1       0       8       1       1       0       8       1
       1       0       8       1       1       0       8       1       1       0
       8       1       1       0       8       1       1       0       8       1
       1       0       8       1       1       0       8       1       1       0
       8       1       1       0       8       1       1       0       8       1
       1       0       8       1       1       0       8       1       1       0
       8       1       1       0       8       1       1       0       8       1
       1       0       8       1       1       0       8       1       1       0
       8       1       1       0       8       1       1       0       8       1
       1       0       8       1       1       0       8       1       1       0
       8       1       1       0       8       1       1       0       8       1
       1       0       8       1       1       0       8       1       1       0
       8       1       1       0       8       1       1       0       8       1
       1       0       8       1       1       0       8       1       1       0
       8       1       1       0       8       1       1       0       8       1
       1       0       8       1       1       0       8       1       1       0
       8       1       1       0       8       1       1       0       8       1
       1       0       8       1       1       0       8       1       1       0
       8       1       1       0       8       1       1       0       8       1
       1       0       8       1       1       0       8       1       1       0
       8       1       1       0       8       1       1       0       8       1
       1       0       8       1       1       0       8       1       1       0
       8       1       1       0       8       1       1       0       8       1
       1       0       8       1       1       0       8       1       1       0
       8       1       1       0       8       1       1       0       8       1
       1       0       8       1       1       0       8       1       1       0
       8       1       1       0       8       1       1       0       8       1
       1       0       8       1       1       0       8       1       1       0
       8       1       1       0       8       1       1       0       8       1
       1       0       8       1       1       0       8       1       1       0
       8       1       1       0       8       1       1       0       8       1
       1       0       8       1       1       0       8       1       1       0
       8       1       1       0       8       1       1       0       8       1
       1       0       8       1       1       0       8       1       1       0
       8       1       1       0       8       1       1       0       8       1
       1       0       8       1       1       0       8       1       1       0
       8       1       1       0       8       1       1       0       8       1
       1       0       8       1       1       0       8       1       1       0
       8       1       1       0       8       1       1       0       8       1
       1       0       8       1       1       0       8       1       1       0
       8       1       1       0       8       1       1       0       8       1
       1       0       8       1       1       0       8       1       1       0
       8       1       1       0       8       1       1       0       8       1
       1       0       8       1       1       0       8       1       1       0
       8       1       1       0       8       1       1       0       8       1
       1       0       8       1       1       0       8       1       1       0
       8       1       1       0       8       1       1       0       8       1
       1       0       8       1       1       0       8       1       1       0
       8       1       1       0       8       1       1       0       8       1
       1       0       8       1       1       0       8       1       1       0
       8       1       1       0       8       1       1       0       8       1
       1       0       8       1       1       0       8       1       1       0
       8       1       1       0       8       1       1       0       8       1
       1       0       8       1       1       0       8       1       1       0
       8       1       1       0       8       1       1       0       8       1
       1       0       8       1       1       0       8       1       1       0
       8       1       1       0       8       1       1       0       8       1
       1       0       8       1       1       0       8       1       1       0
       8       1       1       0       8       1       1       0       8       1
       1       0       8       1       1       0       8       1       1       0
       8       1       1       0       8       1       1       0       8       1
       1       0       8       1       1       0       8       1       1       0
       8       1       1       0       8       1       1       0       8       1
       1       0       8       1       1       0       8       1       1       0
       8       1       1       0       8       1       1       0       8       1
       1       0       8       1       1       0       8       1       1       0
       8       1       1       0       8       1       1       0       8       1
       1       0       8       1       1       0       8       1       1       0
       8       1       1       0       8       1       1       0       8       1
       1       0       8       1       1       0       8       1       1       0
       8       1       1       0       8       1       1       0       8       1
       1       0       8       1       1       0       8       1       1       0
       8       1       1       0       8       1       1       0       8       1
       1       0       8       1       1       0       8       1       1       0
       8       1       1       0       8       1       1       0       8       1
       1       0       8       1       1       0       8       1       1       0
       8       1       1       0       8       1       1       0       8       1
       1       0       8       1       1       0       8       1       1       0
       8       1       1       0       8       1       1       0       8       1
       1       0       8       1       1       0       8       1       1       0
       8       1       1       0       8       1       1       0       8       1
       1       0       8       1       1       0       8       1       1       0
       8       1       1       0       8       1       1       0       8       1
       1       0       8       1       1       0       8       1       1       0
       8       1       1       0       8       1       1       0       8       1
       1       0       8       1       1       0       8       1       1       0
       8       1       1       0       8       1       1       0       8       1
       1       0       8       1       1       0       8       1       1       0
       8       1       1       0       8       1       1       0       8       1
       1       0       8       1       1       0       8       1       1       0
       8       1       1       0       8       1       1       0       8       1
       1       0       8       1       1       0       8       1       1       0
       8       1       1       0       8       1       1       0       8       1
       1       0       8       1       1       0       8       1       1       0
       8       1       1       0       8       1       1       0       8       1
       1       0       8       1       1       0       8       1       1       0
       8       1       1       0       8       1       1       0       8       1
       1       0       8       1       1       0       8       1       1       0
       8       1       1       0       8       1       1       0       8       1
       1       0       8       1       1       0       8       1       1       0
       8       1       1       0       8       1       1       0       8       1
       1       0       8       1       1       0       8       1       1       0
       8       1       1       0       8       1       1       0       8       1
       1       0       8       1       1       0       8       1       1       0
       8       1       1       0       8       1       1       0       8       1
       1       0       8       1       1       0       8       1       1       0
       8       1       1       0       8       1       1       0       8       1
       1       0       8       1       1       0       8       1       1       0
       8       1       1       0       8       1       1       0       8       1
       1       0       8       1       1       0       8       1       1       0
       8       1       1       0       8       1       1       0       8       1
       1       0       8       1       1       0       8       1       1       0
       8       1       1       0       8       1       1       0       8       1
       1       0       8       1       1       0       8       1       1       0
       8       1       1       0       8       1       1       0       8       1
       1       0       8       1       1       0       8       1       1       0
       8       1       1       0       8       1       1       0       8       1
       1       0       8       1       1       0       8       1       1       0
       8       1       1       0       8       1       1       0       8       1
       1       0       8       1       1       0       8       1       1       0
       8       1       1       0       8       1       1       0       8       1
       1       0       8       1       1       0       8       1       1       0
       8       1       1       0       8       1       1       0       8       1
       1       0       8       1       1       0       8       1       1       0
       8       1       1       0       8       1       1       0       8       1
       1       0       8       1       1       0       8       1       1       0
       8       1       1       0       8       1       1       0       8       1
       1       0       8       1       1       0       8       1       1       0
       8       1       1       0       8       1       1       0       8       1
       1       0       8       1       1       0       8       1       1       0
       8       1       1       0       8       1       1       0       8       1
       1       0       8       1       1       0       8       1       1       0
       8       1       1       0       8       1       1       0       8       1
       1       0       8       1       1       0       8       1       1       0
       8       1       1       0       8       1       1       0       8       1
       1       0       8       1       1       0       8       1       1       0
       8       1       1       0       8       1       1       0       8       1
       1       0       8       1       1       0       8       1       1       0
       8       1       1       0       8       1       1       0       8       1
       1       0       8       1       1       0       8       1       1       0
       8       1       1       0       8       1       1       0       8       1
       1       0       8       1       1       0       8       1       1       0
       8       1       1       0       8       1       1       0       8       1
       1       0       8       1       1       0       8       1       1       0
       8       1       1       0       8       1       1       0       8       1
       1       0       8       1       1       0       8       1       1       0
       8       1       1       0       8       1       1       0       8       1
       1       0       8       1       1       0       8       1       1       0
       8       1       1       0       8       1       1       0       8       1
       1       0       8       1       1       0       8       1       1       0
       8       1       1       0       8       1       1       0       8       1
       1       0       8       1       1       0       8       1       1       0
       8       1       1       0       8       1       1       0       8       1
       1       0       8       1       1       0       8       1       1       0
       8       1       1       0       8       1       1       0       8       1
       1       0       8       1       1       0       8       1       1       0
       8       1       1       0       8       1       1       0       8       1
       1       0       8       1       1       0       8       1       1       0
       8       1       1       0       8       1       1       0       8       1
       1       0       8       1       1       0       8       1       1       0
       8       1       1       0       8       1       1       0       8       1
       1       0       8       1       1       0       8       1       1       0
       8       1       1       0       8       1       1       0       8       1
       1       0       8       1       1       0       8       1       1       0
       8       1       1       0       8       1       1       0       8       1
       1       0       8       1       1       0       8       1       1       0
       8       1       1       0       8       1       1       0       8       1
       1       0       8       1       1       0       8       1       1       0
       8       1       1       0       8       1       1       0       8       1
       1       0       8       1       1       0       8       1       1       0
       8       1       1       0       8       1       1       0       8       1
       1       0       8       1       1       0       8       1       1       0
       8       1       1       0       8       1       1       0       8       1
       1       0       8       1       1       0       8       1       1       0
       8       1       1       0       8       1       1       0       8       1
       1       0       8       1       1       0       8       1       1       0
       8       1       1       0       8       1       1       0       8       1
       1       0       8       1       1       0       8       1       1       0
       8       1       1       0       8       1       1       0       8       1
       1       0       8       1       1       0       8       1       1       0
       8       1       1       0       8       1       1       0       8       1
       1       0       8       1       1       0       8       1       1       0
       8       1       1       0       8       1       1       0       8       1
       1       0       8       1       1       0       8       1       1       0
       8       1       1       0       8       1       1       0       8       1
       1       0       8       1       1       0       8       1       1       0
       8       1       1       0       8       1       1       0       8       1
       1       0       8       1       1       0       8       1       1       0
       8       1       1       0       8       1       1       0       8       1
       1       0       8       1       1       0       8       1       1       0
       8       1       1       0       8       1       1       0       8       1
       1       0       8       1       1       0       8       1       1       0
       8       1       1       0       8       1       1       0       8       1
       1       0       8       1       1       0       8       1       1       0
       8       1       1       0       8       1       1       0       8       1
       1       0       8       1       1       0       8       1       1       0
       8       1       1       0       8       1       1       0       8       1
       1       0       8       1       1       0       8       1       1       0
       8       1       1       0       8       1       1       0       8       1
       1       0       8       1       1       0       8       1       1       0
       8       1       1       0       8       1       1       0       8       1
       1       0       8       1       1       0       8       1       1       0
       8       1       1       0       8       1       1       0       8       1
       1       0       8       1       1       0       8       1       1       0
       8       1       1       0       8       1       1       0       8       1
       1       0       8       1       1       0       8       1       1       0
       8       1       1       0       8       1       1       0       8       1
       1       0       8       1       1       0       8       1       1       0
       8       1       1       0       8       1       1       0       8       1
       1       0       8       1       1       0       8       1       1       0
       8       1       1       0       8       1       1       0       8       1
       1       0       8       1       1       0       8       1       1       0
       8       1       1       0       8       1       1       0       8       1
       1       0       8       1       1       0       8       1       1       0
       8       1       1       0       8       1       1       0       8       1
       1       0       8       1       1       0       8       1       1       0
       8       1       1       0       8       1       1       0       8       1
       1       0       8       1       1       0       8       1       1       0
       8       1       1       0       8       1       1       0       8       1
       1       0       8       1       1       0       8       1       1       0
       8       1       1       0       8       1       1       0       8       1
       1       0       8       1       1       0       8       1       1       0
       8       1       1       0       8       1       1       0       8       1
       1       0       8       1       1       0       8       1       1       0
       8       1       1       0       8       1       1       0       8       1
       1       0       8       1       1       0       8       1       1       0
       8       1       1       0       8       1       1       0       8       1
       1       0       8       1       1       0       8       1       1       0
       8       1       1       0       8       1       1       0       8       1
       1       0       8       1       1       0       8       1       1       0
       8       1       1       0       8       1       1       0       8       1
       1       0       8       1       1       0       8       1       1       0
       8       1       1       0       8       1       1       0       8       1
       1       0       8       1       1       0       8       1       1       0
       8       1       1       0       8       1       1       0       8       1
       1       0       8       1       1       0       8       1       1       0
       8       1       1       0       8       1       1       0       8       1
       1       0       8       1       1       0       8       1       1       0
       8       1       1       0       8       1       1       0       8       1
       1       0       8       1       1       0       8       1       1       0
       8       1       1       0       8       1       1       0       8       1
       1       0       8       1       1       0       8       1       1       0
       8       1       1       0       8       1       1       0       8       1
       1       0       8       1       1       0       8       1       1       0
       8       1       1       0       8       1       1       0       8       1
       1       0       8       1       1       0       8       1       1       0
       8       1       1       0       8       1       1       0       8       1
       1       0       8       1       1       0       8       1       1       0
       8       1       1       0       8       1       1       0       8       1
       1       0       8       1       1       0       8       1       1       0
       8       1       1       0       8       1       1       0       8       1
       1       0       8       1       1       0       8       1       1       0
       8       1       1       0       8       1       1       0       8       1
       1       0       8       1       1       0       8       1       1       0
       8       1       1       0       8       1       1       0       8       1
       1       0       8       1       1       0       8       1       1       0
       8       1       1       0       8       1       1       0       8       1
       1       0       8       1       1       0       8       1       1       0
       8       1       1       0       8       1       1       0       8       1
       1       0       8       1       1       0       8       1       1       0
       8       1       1       0       8       1       1       0       8       1
       1       0       8       1       1       0       8       1       1       0
       8       1       1       0       8       1       1       0       8       1
       1       0       8       1       1       0       8       1       1       0
       8       1       1       0       8       1       1       0       8       1
       1       0       8       1       1       0       8       1       1       0
       8       1       1       0       8       1       1       0       8       1
       1       0       8       1       1       0       8       1       1       0
       8       1       1       0       8       1       1       0       8       1
       1       0       8       1       1       0       8       1       1       0
       8       1       1       0       8       1       1       0       8       1
       1       0       8       1       1       0       8       1       1       0
       8       1       1       0       8       1       1       0       8       1
       1       0       8       1       1       0       8       1       1       0
       8       1       1       0       8       1       1       0       8       1
       1       0       8       1       1       0       8       1       1       0
       8       1       1       0       8       1       1       0       8       1
       1       0       8       1       1       0       8       1       1       0
       8       1       1       0       8       1       1       0       8       1
       1       0       8       1       1       0       8       1       1       0
       8       1       1       0       8       1       1       0       8       1
       1       0       8       1       1       0       8       1       1       0
       8       1       1       0       8       1       1       0       8       1
       1       0       8       1       1       0       8       1       1       0
       8       1       1       0       8       1       1       0       8       1
       1       0       8       1       1       0       8       1       1       0
       8       1       1       0       8       1       1       0       8       1
       1       0       8       1       1       0       8       1       1       0
       8       1       1       0       8       1       1       0       8       1
       1       0       8       1       1       0       8       1       1       0
       8       1       1       0       8       1       1       0       8       1
       1       0       8       1       1       0       8       1       1       0
       8       1       1       0       8       1       1       0       8       1
       1       0       8       1       1       0       8       1       1       0
       8       1       1       0       8       1       1       0       8       1
       1       0       8       1       1       0       8       1       1       0
       8       1       1       0       8       1       1       0       8       1
       1       0       8       1       1       0       8       1       1       0
       8       1       1       0       8       1       1       0       8       1
       1       0       8       1       1       0       8       1       1       0
       8       1       1       0       8       1       1       0       8       1
       1       0       8       1       1       0       8       1       1       0
       8       1       1       0       8       1       1       0       8       1
       1       0       8       1       1       0       8       1       1       0
       8       1       1       0       8       1       1       0       8       1
       1       0       8       1       1       0       8       1       1       0
       8       1       1       0       8       1       1       0       8       1
       1       0       8       1       1       0       8       1       1       0
       8       1       1       0       8       1       1       0       8       1
       1       0       8       1       1       0       8       1       1       0
       8       1       1       0       8       1       1       0       8       1
       1       0       8       1       1       0       8       1       1       0
       8       1       1       0       8       1       1       0       8       1
       1       0       8       1       1       0       8       1       1       0
       8       1       1       0       8       1       1       0       8       1
       1       0       8       1       1       0       8       1       1       0
       8       1       1       0       8       1       1       0       8       1
       1       0       8       1       1       0       8       1       1       0
       8       1       1       0       8       1       1       0       8       1
       1       0       8       1       1       0       8       1       1       0
       8       1       1       0       8       1       1       0       8       1
       1       0       8       1       1       0       8       1       1       0
       8       1       1       0       8       1       1       0       8       1
       1       0       8       1       1       0       8       1       1       0
       8       1       1       0       8       1       1       0       8       1
       1       0       8       1       1       0       8       1       1       0
       8       1       1       0       8       1       1       0       8       1
       1       0       8       1       1       0       8       1       1       0
       8       1       1       0       8       1       1       0       8       1
       1       0       8       1       1       0       8       1       1       0
       8       1       1       0       8       1       1       0       8       1
       1       0       8       1       1       0       8       1       1       0
       8       1       1       0       8       1       1       0       8       1
       1       0       8       1       1       0       8       1       1       0
       8       1       1       0       8       1       1       0       8       1
       1       0       8       1       1       0       8       1       1       0
       8       1       1       0       8       1       1       0       8       1
       1       0       8       1       1       0       8       1       1       0
       8       1       1       0       8       1       1       0       8       1
       1       0       8       1       1       0       8       1       1       0
       8       1       1       0       8       1       1       0       8       1
       1       0       8       1       1       0       8       1       1       0
       8       1       1       0       8       1       1       0       8       1
       1       0       8       1       1       0       8       1       1       0
       8       1       1       0       8       1       1       0       8       1
       1       0       8       1       1       0       8       1       1       0
       8       1       1       0       8       1       1       0       8       1
       1       0       8       1       1       0       8       1       1       0
       8       1       1       0       8       1       1       0       8       1
       1       0       8       1       1       0       8       1       1       0
       8       1       1       0       8       1       1       0       8       1
       1       0       8       1       1       0       8       1       1       0
       8       1       1       0       8       1       1       0       8       1
       1       0       8       1       1       0       8       1       1       0
       8       1       1       0       8       1       1       0       8       1
       1       0       8       1       1       0       8       1       1       0
       8       1       1       0       8       1       1       0       8       1
       1       0       8       1       1       0       8       1       1       0
       8       1       1       0       8       1       1       0       8       1
       1       0       8       1       1       0       8       1       1       0
       8       1       1       0       8       1       1       0       8       1
       1       0       8       1       1       0       8       1       1       0
       8       1       1       0       8       1       1       0       8       1
       1       0       8       1       1       0       8       1       1       0
       8       1       1       0       8       1       1       0       8       1
       1       0       8       1       1       0       8       1       1       0
       8       1       1       0       8       1       1       0       8       1
       1       0       8       1       1       0       8       1       1       0
       8       1       1       0       8       1       1       0       8       1
       1       0       8       1       1       0       8       1       1       0
       8       1       1       0       8       1       1       0       8       1
       1       0       8       1       1       0       8       1       1       0
       8       1       1       0       8       1       1       0       8       1
       1       0       8       1       1       0       8       1       1       0
       8       1       1       0       8       1       1       0       8       1
       1       0       8       1       1       0       8       1       1       0
       8       1       1       0       8       1       1       0       8       1
       1       0       8       1       1       0       8       1       1       0
       8       1       1       0       8       1       1       0       8       1
       1       0       8       1       1       0       8       1       1       0
       8       1       1       0       8       1       1       0       8       1
       1       0       8       1       1       0       8       1       1       0
       8       1       1       0       8       1       1       0       8       1
       1       0       8       1       1       0       8       1       1       0
       8       1       1       0       8       1       1       0       8       1
       1       0       8       1       1       0       8       1       1       0
       8       1       1       0       8       1       1       0       8       1
       1       0       8       1       1       0       8       1       1       0
       8       1       1       0       8       1       1       0       8       1
       1       0       8       1       1       0       8       1       1       0
       8       1       1       0       8       1       1       0       8       1
       1       0       8       1       1       0       8       1       1       0
       8       1       1       0       8       1       1       0       8       1
       1       0       8       1       1       0       8       1       1       0
       8       1       1       0       8       1       1       0       8       1
       1       0       8       1       1       0       8       1       1       0
       8       1       1       0       8       1       1       0       8       1
       1       0       8       1       1       0       8       1       1       0
       8       1       1       0       8       1       1       0       8       1
       1       0       8       1       1       0       8       1       1       0
       8       1       1       0       8       1       1       0       8       1
       1       0       8       1       1       0       8       1       1       0
       8       1       1       0       8       1       1       0       8       1
       1       0       8       1       1       0       8       1       1       0
       8       1       1       0       8       1       1       0       8       1
       1       0       8       1       1       0       8       1       1       0
       8       1       1       0       8       1       1       0       8       1
       1       0       8       1       1       0       8       1       1       0
       8       1       1       0       8       1       1       0       8       1
       1       0       8       1       1       0       8       1       1       0
       8       1       1       0       8       1       1       0       8       1
       1       0       8       1       1       0       8       1       1       0
       8       1       1       0       8       1       1       0       8       1
       1       0       8       1       1       0       8       1       1       0
       8       1       1       0       8       1       1       0       8       1
       1       0       8       1       1       0       8       1       1       0
       8       1       1       0       8       1       1       0       8       1
       1       0       8       1       1       0       8       1       1       0
       8       1       1       0       8       1       1       0       8       1
       1       0       8       1       1       0       8       1       1       0
       8       1       1       0       8       1       1       0       8       1
       1       0       8       1       1       0       8       1       1       0
       8       1       1       0       8       1       1       0       8       1
       1       0       8       1       1       0       8       1       1       0
       8       1       1       0       8       1       1       0       8       1
       1       0       8       1       1       0       8       1       1       0
       8       1       1       0       8       1       1       0       8       1
       1       0       8       1       1       0       8       1       1       0
       8       1       1       0       8       1       1       0       8       1
       1       0       8       1       1       0       8       1       1       0
       8       1       1       0       8       1       1       0       8       1
       1       0       8       1       1       0       8       1       1       0
       8       1       1       0       8       1       1       0       8       1
       1       0       8       1       1       0       8       1       1       0
       8       1       1       0       8       1       1       0       8       1
       1       0       8       1       1       0       8       1       1       0
       8       1       1       0       8       1       1       0       8       1
       1       0       8       1       1       0       8       1       1       0
       8       1       1       0       8       1       1       0       8       1
       1       0       8       1       1       0       8       1       1       0
       8       1       1       0       8       1       1       0       8       1
       1       0       8       1       1       0       8       1       1       0
       8       1       1       0       8       1       1       0       8       1
       1       0       8       1       1       0       8       1       1       0
       8       1       1       0       8       1       1       0       8       1
       1       0       8       1       1       0       8       1       1       0
       8       1       1       0       8       1       1       0       8       1
       1       0       8       1       1       0       8       1       1       0
       8       1       1       0       8       1       1       0       8       1
       1       0       8       1       1       0       8       1       1       0
       8       1       1       0       8       1       1       0       8       1
       1       0       8       1       1       0       8       1       1       0
       8       1       1       0       8       1       1       0       8       1
       1       0       8       1       1       0       8       1       1       0
       8       1       1       0       8       1       1       0       8       1
       1       0       8       1       1       0       8       1       1       0
       8       1       1       0       8       1       1       0       8       1
       1       0       8       1       1       0       8       1       1       0
       8       1       1       0       8       1       1       0       8       1
       1       0       8       1       1       0       8       1       1       0
       8       1       1       0       8       1       1       0       8       1
       1       0       8       1       1       0       8       1       1       0
       8       1       1       0       8       1       1       0       8       1
       1       0       8       1       1       0       8       1       1       0
       8       1       1       0       8       1       1       0       8       1
       1       0       8       1       1       0       8       1       1       0
       8       1       1       0       8       1       1       0       8       1
       1       0       8       1       1       0       8       1       1       0
       8       1       1       0       8       1       1       0       8       1
       1       0       8       1       1       0       8       1       1       0
       8       1       1       0       8       1       1       0       8       1
       1       0       8       1       1       0       8       1       1       0
       8       1       1       0       8       1       1       0       8       1
       1       0       8       1       1       0       8       1       1       0
       8       1       1       0       8       1       1       0       8       1
       1       0       8       1       1       0       8       1       1       0
       8       1       1       0       8       1       1       0       8       1
       1       0       8       1       1       0       8       1       1       0
       8       1       1       0       8       1       1       0       8       1
       1       0       8       1       1       0       8       1       1       0
       8       1       1       0       8       1       1       0       8       1
       1       0       8       1       1       0       8       1       1       0
       8       1       1       0       8       1       1       0       8       1
       1       0       8       1       1       0       8       1       1       0
       8       1       1       0       8       1       1       0       8       1
       1       0       8       1       1       0       8       1       1       0
       8       1       1       0       8       1       1       0       8       1
       1       0       8       1       1       0       8       1       1       0
       8       1       1       0       8       1       1       0       8       1
       1       0       8       1       1       0       8       1       1       0
       8       1       1       0       8       1       1       0       8       1
       1       0       8       1       1       0       8       1       1       0
       8       1       1       0       8       1       1       0       8       1
       1       0       8       1       1       0       8       1       1       0
       8       1       1       0       8       1       1       0       8       1
       1       0       8       1       1       0       8       1       1       0
       8       1       1       0       8       1       1       0       8       1
       1       0       8       1       1       0       8       1       1       0
       8       1       1       0       8       1       1       0       8       1
       1       0       8       1       1       0       8       1       1       0
       8       1       1       0       8       1       1       0       8       1
       1       0       8       1       1       0       8       1       1       0
       8       1       1       0       8       1       1       0       8       1
       1       0       8       1       1       0       8       1       1       0
       8       1       1       0       8       1       1       0       8       1
       1       0       8       1       1       0       8       1       1       0
       8       1       1       0       8       1       1       0       8       1
       1       0       8       1       1       0       8       1       1       0
       8       1       1       0       8       1       1       0       8       1
       1       0       8       1       1       0       8       1       1       0
       8       1       1       0       8       1       1       0       8       1
       1       0       8       1       1       0       8       1       1       0
       8       1       1       0       8       1       1       0       8       1
       1       0       8       1       1       0       8       1       1       0
       8       1       1       0       8       1       1       0       8       1
       1       0       8       1       1       0       8       1       1       0
       8       1       1       0       8       1       1       0       8       1
       1       0       8       1       1       0       8       1       1       0
       8       1       1       0       8       1       1       0       8       1
       1       0       8       1       1       0       8       1       1       0
       8       1       1       0       8       1       1       0       8       1
       1       0       8       1       1       0       8       1       1       0
       8       1       1       0       8       1       1       0       8       1
       1       0       8       1       1       0       8       1       1       0
       8       1       1       0       8       1       1       0       8       1
       1       0       8       1       1       0       8       1       1       0
       8       1       1       0       8       1       1       0       8       1
       1       0       8       1       1       0       8       1       1       0
       8       1       1       0       8       1       1       0       8       1
       1       0       8       1       1       0       8       1       1       0
       8       1       1       0       8       1       1       0       8       1
       1       0       8       1       1       0       8       1       1       0
       8       1       1       0       8       1       1       0       8       1
       1       0       8       1       1       0       8       1       1       0
       8       1       1       0       8       1       1       0       8       1
       1       0       8       1       1       0       8       1       1       0
       8       1       1       0       8       1       1       0       8       1
       1       0       8       1       1       0       8       1       1       0
       8       1       1       0       8       1       1       0       8       1
       1       0       8       1       1       0       8       1       1       0
       8       1       1       0       8       1       1       0       8       1
       1       0       8       1       1       0       8       1       1       0
       8       1       1       0       8       1       1       0       8       1
       1       0       8       1       1       0       8       1       1       0
       8       1       1       0       8       1       1       0       8       1
       1       0       8       1       1       0       8       1       1       0
       8       1       1       0       8       1       1       0       8       1
       1       0       8       1       1       0       8       1       1       0
       8       1       1       0       8       1       1       0       8       1
       1       0       8       1       1       0       8       1       1       0
       8       1       1       0       8       1       1       0       8       1
       1       0       8       1       1       0       8       1       1       0
       8       1       1       0       8       1       1       0       8       1
       1       0       8       1       1       0       8       1       1       0
       8       1       1       0       8       1       1       0       8       1
       1       0       8       1       1       0       8       1       1       0
       8       1       1       0       8       1       1       0       8       1
       1       0       8       1       1       0       8       1       1       0
       8       1       1       0       8       1       1       0       8       1
       1       0       8       1       1       0       8       1       1       0
       8       1       1       0       8       1       1       0       8       1
       1       0       8       1       1       0       8       1       1       0
       8       1       1       0       8       1       1       0       8       1
       1       0       8       1       1       0       8       1       1       0
       8       1       1       0       8       1       1       0       8       1
       1       0       8       1       1       0       8       1       1       0
       8       1       1       0       8       1       1       0       8       1
       1       0       8       1       1       0       8       1       1       0
       8       1       1       0       8       1       1       0       8       1
       1       0       8       1       1       0       8       1       1       0
       8       1       1       0       8       1       1       0       8       1
       1       0       8       1       1       0       8       1       1       0
       8       1       1       0       8       1       1       0       8       1
       1       0       8       1       1       0       8       1       1       0
       8       1       1       0       8       1       1       0       8       1
       1       0       8       1       1       0       8       1       1       0
       8       1       1       0       8       1       1       0       8       1
       1       0       8       1       1       0       8       1       1       0
       8       1       1       0       8       1       1       0       8       1
       1       0       8       1       1       0       8       1       1       0
       8       1       1       0       8       1       1       0       8       1
       1       0       8       1       1       0       8       1       1       0
       8       1       1       0       8       1       1       0       8       1
       1       0       8       1       1       0       8       1       1       0
       8       1       1       0       8       1       1       0       8       1
       1       0       8       1       1       0       8       1       1       0
       8       1       1       0       8       1       1       0       8       1
       1       0       8       1       1       0       8       1       1       0
       8       1       1       0       8       1       1       0       8       1
       1       0       8       1       1       0       8       1       1       0
       8       1       1       0       8       1       1       0       8       1
       1       0       8       1       1       0       8       1       1       0
       8       1       1       0       8       1       1       0       8       1
       1       0       8       1       1       0       8       1       1       0
       8       1       1       0       8       1       1       0       8       1
       1       0       8       1       1       0       8       1       1       0
       8       1       1       0       8       1       1       0       8       1
       1       0       8       1       1       0       8       1       1       0
       8       1       1       0       8       1       1       0       8       1
       1       0       8       1       1       0       8       1       1       0
       8       1       1       0       8       1       1       0       8       1
       1       0       8       1       1       0       8       1       1       0
       8       1       1       0       8       1       1       0       8       1
       1       0       8       1       1       0       8       1       1       0
       8       1       1       0       8       1       1       0       8       1
       1       0       8       1       1       0       8       1       1       0
       8       1       1       0       8       1       1       0       8       1
       1       0       8       1       1       0       8       1       1       0
       8       1       1       0       8       1       1       0       8       1
       1       0       8       1       1       0       8       1       1       0
       8       1       1       0       8       1       1       0       8       1
       1       0       8       1       1       0       8       1       1       0
       8       1       1       0       8       1       1       0       8       1
       1       0       8       1       1       0       8       1       1       0
       8       1       1       0       8       1       1       0       8       1
       1       0       8       1       1       0       8       1       1       0
       8       1       1       0       8       1       1       0       8       1
       1       0       8       1       1       0       8       1       1       0
       8       1       1       0       8       1       1       0       8       1
       1       0       8       1       1       0       8       1       1       0
       8       1       1       0       8       1       1       0       8       1
       1       0       8       1       1       0       8       1       1       0
       8       1       1       0       8       1       1       0       8       1
       1       0       8       1       1       0       8       1       1       0
       8       1       1       0       8       1       1       0       8       1
       1       0       8       1       1       0       8       1       1       0
       8       1       1       0       8       1       1       0       8       1
       1       0       8       1       1       0       8       1       1       0
       8       1       1       0       8       1       1       0       8       1
       1       0       8       1       1       0       8       1       1       0
       8       1       1       0       8       1       1       0       8       1
       1       0       8       1       1       0       8       1       1       0
       8       1       1       0       8       1       1       0       8       1
       1       0       8       1       1       0       8       1       1       0
       8       1       1       0       8       1       1       0       8       1
       1       0       8       1       1       0       8       1       1       0
       8       1       1       0       8       1       1       0       8       1
       1       0       8       1       1       0       8       1       1       0
       8       1       1       0       8       1       1       0       8       1
       1       0       8       1       1       0       8       1       1       0
       8       1       1       0       8       1       1       0       8       1
       1       0       8       1       1       0       8       1       1       0
       8       1       1       0       8       1       1       0       8       1
       1       0       8       1       1       0       8       1       1       0
       8       1       1       0       8       1       1       0       8       1
       1       0       8       1       1       0       8       1       1       0
       8       1       1       0       8       1       1       0       8       1
       1       0       8       1       1       0       8       1       1       0
       8       1       1       0       8       1       1       0       8       1
       1       0       8       1       1       0       8       1       1       0
       8       1       1       0       8       1       1       0       8       1
       1       0       8       1       1       0       8       1       1       0
       8       1       1       0       8       1       1       0       8       1
       1       0       8       1       1       0       8       1       1       0
       8       1       1       0       8       1       1       0       8       1
       1       0       8       1       1       0       8       1       1       0
       8       1       1       0       8       1       1       0       8       1
       1       0       8       1       1       0       8       1       1       0
       8       1       1       0       8       1       1       0       8       1
       1       0       8       1       1       0       8       1       1       0
       8       1       1       0       8       1       1       0       8       1
       1       0       8       1       1       0       8       1       1       0
       8       1       1       0       8       1       1       0       8       1
       1       0       8       1       1       0       8       1       1       0
       8       1       1       0       8       1       1       0       8       1
       1       0       8       1       1       0       8       1       1       0
       8       1       1       0       8       1       1       0       8       1
       1       0       8       1       1       0       8       1       1       0
       8       1       1       0       8       1       1       0       8       1
       1       0       8       1       1       0       8       1       1       0
       8       1       1       0       8       1       1       0       8       1
       1       0       8       1       1       0       8       1       1       0
       8       1       1       0       8       1       1       0       8       1
       1       0       8       1       1       0       8       1       1       0
       8       1       1       0       8       1       1       0       8       1
       1       0       8       1       1       0       8       1       1       0
       8       1       1       0       8       1       1       0       8       1
       1       0       8       1       1       0       8       1       1       0
       8       1       1       0       8       1       1       0       8       1
       1       0       8       1       1       0       8       1       1       0
       8       1       1       0       8       1       1       0       8       1
       1       0       8       1       1       0       8       1       1       0
       8       1       1       0       8       1       1       0       8       1
       1       0       8       1       1       0       8       1       1       0
       8       1       1       0       8       1       1       0       8       1
       1       0       8       1       1       0       8       1       1       0
       8       1       1       0       8       1       1       0       8       1
       1       0       8       1       1       0       8       1       1       0
       8       1       1       0       8       1       1       0       8       1
       1       0       8       1       1       0       8       1       1       0
       8       1       1       0       8       1       1       0       8       1
       1       0       8       1       1       0       8       1       1       0
       8       1       1       0       8       1       1       0       8       1
       1       0       8       1       1       0       8       1       1       0
       8       1       1       0       8       1       1       0       8       1
       1       0       8       1       1       0       8       1       1       0
       8       1       1       0       8       1       1       0       8       1
       1       0       8       1       1       0       8       1       1       0
       8       1       1       0       8       1       1       0       8       1
       1       0       8       1       1       0       8       1       1       0
       8       1       1       0       8       1       1       0       8       1
       1       0       8       1       1       0       8       1       1       0
       8       1       1       0       8       1       1       0       8       1
       1       0       8       1       1       0       8       1       1       0
       8       1       1       0       8       1       1       0       8       1
       1       0       8       1       1       0       8       1       1       0
       8       1       1       0       8       1       1       0       8       1
       1       0       8       1       1       0       8       1       1       0
       8       1       1       0       8       1       1       0       8       1
       1       0       8       1       1       0       8       1       1       0
       8       1       1       0       8       1       1       0       8       1
       1       0       8       1       1       0       8       1       1       0
       8       1       1       0       8       1       1       0       8       1
       1       0       8       1       1       0       8       1       1       0
       8       1       1       0       8       1       1       0       8       1
       1       0       8       1       1       0       8       1       1       0
       8       1       1       0       8       1       1       0       8       1
       1       0       8       1       1       0       8       1       1       0
       8       1       1       0       8       1       1       0       8       1
       1       0       8       1       1       0       8       1       1       0
       8       1       1       0       8       1       1       0       8       1
       1       0       8       1       1       0       8       1       1       0
       8       1       1       0       8       1       1       0       8       1
       1       0       8       1       1       0       8       1       1       0
       8       1       1       0       8       1       1       0       8       1
       1       0       8       1       1       0       8       1       1       0
       8       1       1       0       8       1       1       0       8       1
       1       0       8       1       1       0       8       1       1       0
       8       1       1       0       8       1       1       0       8       1
       1       0       8       1       1       0       8       1       1       0
       8       1       1       0       8       1       1       0       8       1
       1       0       8       1       1       0       8       1       1       0
       8       1       1       0       8       1       1       0       8       1
       1       0       8       1       1       0       8       1       1       0
       8       1       1       0       8       1       1       0       8       1
       1       0       8       1       1       0       8       1       1       0
       8       1       1       0       8       1       1       0       8       1
       1       0       8       1       1       0       8       1       1       0
       8       1       1       0       8       1       1       0       8       1
       1       0       8       1       1       0       8       1       1       0
       8       1       1       0       8       1       1       0       8       1
       1       0       8       1       1       0       8       1       1       0
       8       1       1       0       8       1       1       0       8       1
       1       0       8       1       1       0       8       1       1       0
       8       1       1       0       8       1       1       0       8       1
       1       0       8       1       1       0       8       1       1       0
       8       1       1       0       8       1       1       0       8       1
       1       0       8       1       1       0       8       1       1       0
       8       1       1       0       8       1       1       0       8       1
       1       0       8       1       1       0       8       1       1       0
       8       1       1       0       8       1       1       0       8       1
       1       0       8       1       1       0       8       1       1       0
       8       1       1       0       8       1       1       0       8       1
       1       0       8       1       1       0       8       1       1       0
       8       1       1       0       8       1       1       0       8       1
       1       0       8       1       1       0       8       1       1       0
       8       1       1       0       8       1       1       0       8       1
       1       0       8       1       1       0       8       1       1       0
       8       1       1       0       8       1       1       0       8       1
       1       0       8       1       1       0       8       1       1       0
       8       1       1       0       8       1       1       0       8       1
       1       0       8       1       1       0       8       1       1       0
       8       1       1       0       8       1       1       0       8       1
       1       0       8       1       1       0       8       1       1       0
       8       1       1       0       8       1       1       0       8       1
       1       0       8       1       1       0       8       1       1       0
       8       1       1       0       8       1       1       0       8       1
       1       0       8       1       1       0       8       1       1       0
       8       1       1       0       8       1       1       0       8       1
       1       0       8       1       1       0       8       1       1       0
       8       1       1       0       8       1       1       0       8       1
       1       0       8       1       1       0       8       1       1       0
       8       1       1       0       8       1       1       0       8       1
       1       0       8       1       1       0       8       1       1       0
       8       1       1       0       8       1       1       0       8       1
       1       0       8       1       1       0       8       1       1       0
       8       1       1       0       8       1       1       0       8       1
       1       0       8       1       1       0       8       1       1       0
       8       1       1       0       8       1       1       0       8       1
       1       0       8       1       1       0       8       1       1       0
       8       1       1       0       8       1       1       0       8       1
       1       0       8       1       1       0       8       1       1       0
       8       1       1       0       8       1       1       0       8       1
       1       0       8       1       1       0       8       1       1       0
       8       1       1       0       8       1       1       0       8       1
       1       0       8       1       1       0       8       1       1       0
       8       1       1       0       8       1       1       0       8       1
       1       0       8       1       1       0       8       1       1       0
       8       1       1       0       8       1       1       0       8       1
       1       0       8       1       1       0       8       1       1       0
       8       1       1       0       8       1       1       0       8       1
       1       0       8       1       1       0       8       1       1       0
       8       1       1       0       8       1       1       0       8       1
       1       0       8       1       1       0       8       1       1       0
       8       1       1       0       8       1       1       0       8       1
       1       0       8       1       1       0       8       1       1       0
       8       1       1       0       8       1       1       0       8       1
       1       0       8       1       1       0       8       1       1       0
       8       1       1       0       8       1       1       0       8       1
       1       0       8       1       1       0       8       1       1       0
       8       1       1       0       8       1       1       0       8       1
       1       0       8       1       1       0       8       1       1       0
       8       1       1       0       8       1       1       0       8       1
       1       0       8       1       1       0       8       1       1       0
       8       1       1       0       8       1       1       0       8       1
       1       0       8       1       1       0       8       1       1       0
       8       1       1       0       8       1       1       0       8       1
       1       0       8       1       1       0       8       1       1       0
       8       1       1       0       8       1       1       0       8       1
       1       0       8       1       1       0       8       1       1       0
       8       1       1       0       8       1       1       0       8       1
       1       0       8       1       1       0       8       1       1       0
       8       1       1       0       8       1       1       0       8       1
       1       0       8       1       1       0       8       1       1       0
       8       1       1       0       8       1       1       0       8       1
       1       0       8       1       1       0       8       1       1       0
       8       1       1       0       8       1       1       0       8       1
       1       0       8       1       1       0       8       1       1       0
       8       1       1       0       8       1       1       0       8       1
       1       0       8       1       1       0       8       1       1       0
       8       1       1       0       8       1       1       0       8       1
       1       0       8       1       1       0       8       1       1       0
       8       1       1       0       8       1       1       0       8       1
       1       0       8       1       1       0       8       1       1       0
       8       1       1       0       8       1       1       0       8       1
       1       0       8       1       1       0       8       1       1       0
       8       1       1       0       8       1       1       0       8       1
       1       0       8       1       1       0       8       1       1       0
       8       1       1       0       8       1       1       0       8       1
       1       0       8       1       1       0       8       1       1       0
       8       1       1       0       8       1       1       0       8       1
       1       0       8       1       1       0       8       1       1       0
       8       1       1       0       8       1       1       0       8       1
       1       0       8       1       1       0       8       1       1       0
       8       1       1       0       8       1       1       0       8       1
       1       0       8       1       1       0       8       1       1       0
       8       1       1       0       8       1       1       0       8       1
       1       0       8       1       1       0       8       1       1       0
       8       1       1       0       8       1       1       0       8       1
       1       0       8       1       1       0       8       1       1       0
       8       1       1       0       8       1       1       0       8       1
       1       0       8       1       1       0       8       1       1       0
       8       1       1       0       8       1       1       0       8       1
       1       0       8       1       1       0       8       1       1       0
       8       1       1       0       8       1       1       0       8       1
       1       0       8       1       1       0       8       1       1       0
       8       1       1       0       8       1       1       0       8       1
       1       0       8       1       1       0       8       1       1       0
       8       1       1       0       8       1       1       0       8       1
       1       0       8       1       1       0       8       1       1       0
       8       1       1       0       8       1       1       0       8       1
       1       0       8       1       1       0       8       1       1       0
       8       1       1       0       8       1       1       0       8       1
       1       0       8       1       1       0       8       1       1       0
       8       1       1       0       8       1       1       0       8       1
       1       0       8       1       1       0       8       1       1       0
       8       1       1       0       8       1       1       0       8       1
       1       0       8       1       1       0       8       1       1       0
       8       1       1       0       8       1       1       0       8       1
       1       0       8       1       1       0       8       1       1       0
       8       1       1       0       8       1       1       0       8       1
       1       0       8       1       1       0       8       1       1       0
       8       1       1       0       8       1       1       0       8       1
       1       0       8       1       1       0       8       1       1       0
       8       1       1       0       8       1       1       0       8       1
       1       0       8       1       1       0       8       1       1       0
       8       1       1       0       8       1       1       0       8       1
       1       0       8       1       1       0       8       1       1       0
       8       1       1       0       8       1       1       0       8       1
       1       0       8       1       1       0       8       1       1       0
       8       1       1       0       8       1       1       0       8       1
       1       0       8       1       1       0       8       1       1       0
       8       1       1       0       8       1       1       0       8       1
       1       0       8       1       1       0       8       1       1       0
       8       1       1       0       8       1       1       0       8       1
       1       0       8       1       1       0       8       1       1       0
       8       1       1       0       8       1       1       0       8       1
       1       0       8       1       1       0       8       1       1       0
       8       1       1       0       8       1       1       0       8       1
       1       0       8       1       1       0       8       1       1       0
       8       1       1       0       8       1       1       0       8       1
       1       0       8       1       1       0       8       1       1       0
       8       1       1       0       8       1       1       0       8       1
       1       0       8       1       1       0       8       1       1       0
       8       1       1       0       8       1       1       0       8       1
       1       0       8       1       1       0       8       1       1       0
       8       1       1       0       8       1       1       0       8       1
       1       0       8       1       1       0       8       1       1       0
       8       1       1       0       8       1       1       0       8       1
       1       0       8       1       1       0       8       1       1       0
       8       1       1       0       8       1       1       0       8       1
       1       0       8       1       1       0       8       1       1       0
       8       1       1       0       8       1       1       0       8       1
       1       0       8       1       1       0       8       1       1       0
       8       1       1       0       8       1       1       0       8       1
       1       0       8       1       1       0       8       1       1       0
       8       1       1       0       8       1       1       0       8       1
       1       0       8       1       1       0       8       1       1       0
       8       1       1       0       8       1       1       0       8       1
       1       0       8       1       1       0       8       1       1       0
       8       1       1       0       8       1       1       0       8       1
       1       0       8       1       1       0       8       1       1       0
       8       1       1       0       8       1       1       0       8       1
       1       0       8       1       1       0       8       1       1       0
       8       1       1       0       8       1       1       0       8       1
       1       0       8       1       1       0       8       1       1       0
       8       1       1       0       8       1       1       0       8       1
       1       0       8       1       1       0       8       1       1       0
       8       1       1       0       8       1       1       0       8       1
       1       0       8       1       1       0       8       1       1       0
       8       1       1       0       8       1       1       0       8       1
       1       0       8       1       1       0       8       1       1       0
       8       1       1       0       8       1       1       0       8       1
       1       0       8       1       1       0       8       1       1       0
       8       1       1       0       8       1       1       0       8       1
       1       0       8       1       1       0       8       1       1       0
       8       1       1       0       8       1       1       0       8       1
       1       0       8       1       1       0       8       1       1       0
       8       1       1       0       8       1       1       0       8       1
       1       0       8       1       1       0       8       1       1       0
       8       1       1       0       8       1       1       0       8       1
       1       0       8       1       1       0       8       1       1       0
       8       1       1       0       8       1       1       0       8       1
       1       0       8       1       1       0       8       1       1       0
       8       1       1       0       8       1       1       0       8       1
       1       0       8       1       1       0       8       1       1       0
       8       1       1       0       8       1       1       0       8       1
       1       0       8       1       1       0       8       1       1       0
       8       1       1       0       8       1       1       0       8       1
       1       0       8       1       1       0       8       1       1       0
       8       1       1       0       8       1       1       0       8       1
       1       0       8       1       1       0       8       1       1       0
       8       1       1       0       8       1       1       0       8       1
       1       0       8       1       1       0       8       1       1       0
       8       1       1       0       8       1       1       0       8       1
       1       0       8       1       1       0       8       1       1       0
       8       1       1       0       8       1       1       0       8       1
       1       0       8       1       1       0       8       1       1       0
       8       1       1       0       8       1       1       0       8       1
       1       0       8       1       1       0       8       1       1       0
       8       1       1       0       8       1       1       0       8       1
       1       0       8       1       1       0       8       1       1       0
       8       1       1       0       8       1       1       0       8       1
       1       0       8       1       1       0       8       1       1       0
       8       1       1       0       8       1       1       0       8       1
       1       0       8       1       1       0       8       1       1       0
       8       1       1       0       8       1       1       0       8       1
       1       0       8       1       1       0       8       1       1       0
       8       1       1       0       8       1       1       0       8       1
       1       0       8       1       1       0       8       1       1       0
       8       1       1       0       8       1       1       0       8       1
       1       0       8       1       1       0       8       1       1       0
       8       1       1       0       8       1       1       0       8       1
       1       0       8       1       1       0       8       1       1       0
       8       1       1       0       8       1       1       0       8       1
       1       0       8       1       1       0       8       1       1       0
       8       1       1       0       8       1       1       0       8       1
       1       0       8       1       1       0       8       1       1       0
       8       1       1       0       8       1       1       0       8       1
       1       0       8       1       1       0       8       1       1       0
       8       1       1       0       8       1       1       0       8       1
       1       0       8       1       1       0       8       1       1       0
       8       1       1       0       8       1       1       0       8       1
       1       0       8       1       1       0       8       1       1       0
       8       1       1       0       8       1       1       0       8       1
       1       0       8       1       1       0       8       1       1       0
       8       1       1       0       8       1       1       0       8       1
       1       0       8       1       1       0       8       1       1       0
       8       1       1       0       8       1       1       0       8       1
       1       0       8       1       1       0       8       1       1       0
       8       1       1       0       8       1       1       0       8       1
       1       0       8       1       1       0       8       1       1       0
       8       1       1       0       8       1       1       0       8       1
       1       0       8       1       1       0       8       1       1       0
       8       1       1       0       8       1       1       0       8       1
       1       0       8       1       1       0       8       1       1       0
       8       1       1       0       8       1       1       0       8       1
       1       0       8       1       1       0       8       1       1       0
       8       1       1       0       8       1       1       0       8       1
       1       0       8       1       1       0       8       1       1       0
       8       1       1       0       8       1       1       0       8       1
       1       0       8       1       1       0       8       1       1       0
       8       1       1       0       8       1       1       0       8       1
       1       0       8       1       1       0       8       1       1       0
       8       1       1       0       8       1       1       0       8       1
       1       0       8       1       1       0       8       1       1       0
       8       1       1       0       8       1       1       0       8       1
       1       0       8       1       1       0       8       1       1       0
       8       1       1       0       8       1       1       0       8       1
       1       0       8       1       1       0       8       1       1       0
       8       1       1       0       8       1       1       0       8       1
       1       0       8       1       1       0       8       1       1       0
       8       1       1       0       8       1       1       0       8       1
       1       0       8       1       1       0       8       1       1       0
       8       1       1       0       8       1       1       0       8       1
       1       0       8       1       1       0       8       1       1       0
       8       1       1       0       8       1       1       0       8       1
       1       0       8       1       1       0       8       1       1       0
       8       1       1       0       8       1       1       0       8       1
       1       0       8       1       1       0       8       1       1       0
       8       1       1       0       8       1       1       0       8       1
       1       0       8       1       1       0       8       1       1       0
       8       1       1       0       8       1       1       0       8       1
       1       0       8       1       1       0       8       1       1       0
       8       1       1       0       8       1       1       0       8       1
       1       0       8       1       1       0       8       1       1       0
       8       1       1       0       8       1       1       0       8       1
       1       0       8       1       1       0       8       1       1       0
       8       1       1       0       8       1       1       0       8       1
       1       0       8       1       1       0       8       1       1       0
       8       1       1       0       8       1       1       0       8       1
       1       0       8       1       1       0       8       1       1       0
       8       1       1       0       8       1       1       0       8       1
       1       0       8       1       1       0       8       1       1       0
       8       1       1       0       8       1       1       0       8       1
       1       0       8       1       1       0       8       1       1       0
       8       1       1       0       8       1       1       0       8       1
       1       0       8       1       1       0       8       1       1       0
       8       1       1       0       8       1       1       0       8       1
       1       0       8       1       1       0       8       1       1       0
       8       1       1       0       8       1       1       0       8       1
       1       0       8       1       1       0       8       1       1       0
       8       1       1       0       8       1       1       0       8       1
       1       0       8       1       1       0       8       1       1       0
       8       1       1       0       8       1       1       0       8       1
       1       0       8       1       1       0       8       1       1       0
       8       1       1       0       8       1       1       0       8       1
       1       0       8       1       1       0       8       1       1       0
       8       1       1       0       8       1       1       0       8       1
       1       0       8       1       1       0       8       1       1       0
       8       1       1       0       8       1       1       0       8       1
       1       0       8       1       1       0       8       1       1       0
       8       1       1       0       8       1       1       0       8       1
       1       0       8       1       1       0       8       1       1       0
       8       1       1       0       8       1       1       0       8       1
       1       0       8       1       1       0       8       1       1       0
       8       1       1       0       8       1       1       0       8       1
       1       0       8       1       1       0       8       1       1       0
       8       1       1       0       8       1       1       0       8       1
       1       0       8       1       1       0       8       1       1       0
       8       1       1       0       8       1       1       0       8       1
       1       0       8       1       1       0       8       1       1       0
       8       1       1       0       8       1       1       0       8       1
       1       0       8       1       1       0       8       1       1       0
       8       1       1       0       8       1       1       0       8       1
       1       0       8       1       1       0       8       1       1       0
       8       1       1       0       8       1       1       0       8       1
       1       0       8       1       1       0       8       1       1       0
       8       1       1       0       8       1       1       0       8       1
       1       0       8       1       1       0       8       1       1       0
       8       1       1       0       8       1       1       0       8       1
       1       0       8       1       1       0       8       1       1       0
       8       1       1       0       8       1       1       0       8       1
       1       0       8       1       1       0       8       1       1       0
       8       1       1       0       8       1       1       0       8       1
       1       0       8       1       1       0       8       1       1       0
       8       1       1       0       8       1       1       0       8       1
       1       0       8       1       1       0       8       1       1       0
       8       1       1       0       8       1       1       0       8       1
       1       0       8       1       1       0       8       1       1       0
       8       1       1       0       8       1       1       0       8       1
       1       0       8       1       1       0       8       1       1       0
       8       1       1       0       8       1       1       0       8       1
       1       0       8       1       1       0       8       1       1       0
       8       1       1       0       8       1       1       0       8       1
       1       0       8       1       1       0       8       1       1       0
       8       1       1       0       8       1       1       0       8       1
       1       0       8       1       1       0       8       1       1       0
       8       1       1       0       8       1       1       0       8       1
       1       0       8       1       1       0       8       1       1       0
       8       1       1       0       8       1       1       0       8       1
       1       0       8       1       1       0       8       1       1       0
       8       1       1       0       8       1       1       0       8       1
       1       0       8       1       1       0       8       1       1       0
       8       1       1       0       8       1       1       0       8       1
       1       0       8       1       1       0       8       1       1       0
       8       1       1       0       8       1       1       0       8       1
       1       0       8       1       1       0       8       1       1       0
       8       1       1       0       8       1       1       0       8       1
       1       0       8       1       1       0       8       1       1       0
       8       1       1       0       8       1       1       0       8       1
       1       0       8       1       1       0       8       1       1       0
       8       1       1       0       8       1       1       0       8       1
       1       0       8       1       1       0       8       1       1       0
       8       1       1       0       8       1       1       0       8       1
       1       0       8       1       1       0       8       1       1       0
       8       1       1       0       8       1       1       0       8       1
       1       0       8       1       1       0       8       1       1       0
       8       1       1       0       8       1       1       0       8       1
       1       0       8       1       1       0       8       1       1       0
       8       1       1       0       8       1       1       0       8       1
       1       0       8       1       1       0       8       1       1       0
       8       1       1       0       8       1       1       0       8       1
       1       0       8       1       1       0       8       1       1       0
       8       1       1       0       8       1       1       0       8       1
       1       0       8       1       1       0       8       1       1       0
       8       1       1       0       8       1       1       0       8       1
       1       0       8       1       1       0       8       1       1       0
       8       1       1       0       8       1       1       0       8       1
       1       0       8       1       1       0       8       1       1       0
       8       1       1       0       8       1       1       0       8       1
       1       0       8       1       1       0       8       1       1       0
       8       1       1       0       8       1       1       0       8       1
       1       0       8       1       1       0       8       1       1       0
       8       1       1       0       8       1       1       0       8       1
       1       0       8       1       1       0       8       1       1       0
       8       1       1       0       8       1       1       0       8       1
       1       0       8       1       1       0       8       1       1       0
       8       1       1       0       8       1       1       0       8       1
       1       0       8       1       1       0       8       1       1       0
       8       1       1       0       8       1       1       0       8       1
       1       0       8       1       1       0       8       1       1       0
       8       1       1       0       8       1       1       0       8       1
       1       0       8       1       1       0       8       1       1       0
       8       1       1       0       8       1       1       0       8       1
       1       0       8       1       1       0       8       1       1       0
       8       1       1       0       8       1       1       0       8       1
       1       0       8       1       1       0       8       1       1       0
       8       1       1       0       8       1       1       0       8       1
       1       0       8       1       1       0       8       1       1       0
       8       1       1       0       8       1       1       0       8       1
       1       0       8       1       1       0       8       1       1       0
       8       1       1       0       8       1       1       0       8       1
       1       0       8       1       1       0       8       1       1       0
       8       1       1       0       8       1       1       0       8       1
       1       0       8       1       1       0       8       1       1       0
       8       1       1       0       8       1       1       0       8       1
       1       0       8       1       1       0       8       1       1       0
       8       1       1       0       8       1       1       0       8       1
       1       0       8       1       1       0       8       1       1       0
       8       1       1       0       8       1       1       0       8       1
       1       0       8       1       1       0       8       1       1       0
       8       1       1       0       8       1       1       0       8       1
       1       0       8       1       1       0       8       1       1       0
       8       1       1       0       8       1       1       0       8       1
       1       0       8       1       1       0       8       1       1       0
       8       1       1       0       8       1       1       0       8       1
       1       0       8       1       1       0       8       1       1       0
       8       1       1       0       8       1       1       0       8       1
       1       0       8       1       1       0       8       1       1       0
       8       1       1       0       8       1       1       0       8       1
       1       0       8       1       1       0       8       1       1       0
       8       1       1       0       8       1       1       0       8       1
       1       0       8       1       1       0       8       1       1       0
       8       1       1       0       8       1       1       0       8       1
       1       0       8       1       1       0       8       1       1       0
       8       1       1       0       8       1       1       0       8       1
       1       0       8       1       1       0       8       1       1       0
       8       1       1       0       8       1       1       0       8       1
       1       0       8       1       1       0       8       1       1       0
       8       1       1       0       8       1       1       0       8       1
       1       0       8       1       1       0       8       1       1       0
       8       1       1       0       8       1       1       0       8       1
       1       0       8       1       1       0       8       1       1       0
       8       1       1       0       8       1       1       0       8       1
       1       0       8       1       1       0       8       1       1       0
       8       1       1       0       8       1       1       0       8       1
       1       0       8       1       1       0       8       1       1       0
       8       1       1       0       8       1       1       0       8       1
       1       0       8       1       1       0       8       1       1       0
       8       1       1       0       8       1       1       0       8       1
       1       0       8       1       1       0       8       1       1       0
       8       1       1       0       8       1       1       0       8       1
       1       0       8       1       1       0       8       1       1       0
       8       1       1       0       8       1       1       0       8       1
       1       0       8       1       1       0       8       1       1       0
       8       1       1       0       8       1       1       0       8       1
       1       0       8       1       1       0       8       1       1       0
       8       1       1       0       8       1       1       0       8       1
       1       0       8       1       1       0       8       1       1       0
       8       1       1       0       8       1       1       0       8       1
       1       0       8       1       1       0       8       1       1       0
       8       1       1       0       8       1       1       0       8       1
       1       0       8       1       1       0       8       1       1       0
       8       1       1       0       8       1       1       0       8       1
       1       0       8       1       1       0       8       1       1       0
       8       1       1       0       8       1       1       0       8       1
       1       0       8       1       1       0       8       1       1       0
       8       1       1       0       8       1       1       0       8       1
       1       0       8       1       1       0       8       1       1       0
       8       1       1       0       8       1       1       0       8       1
       1       0       8       1       1       0       8       1       1       0
       8       1       1       0       8       1       1       0       8       1
       1       0       8       1       1       0       8       1       1       0
       8       1       1       0       8       1       1       0       8       1
       1       0       8       1       1       0       8       1       1       0
       8       1       1       0       8       1       1       0       8       1
       1       0       8       1       1       0       8       1       1       0
       8       1       1       0       8       1       1       0       8       1
       1       0       8       1       1       0       8       1       1       0
       8       1       1       0       8       1       1       0       8       1
       1       0       8       1       1       0       8       1       1       0
       8       1       1       0       8       1       1       0       8       1
       1       0       8       1       1       0       8       1       1       0
       8       1       1       0       8       1       1       0       8       1
       1       0       8       1       1       0       8       1       1       0
       8       1       1       0       8       1       1       0       8       1
       1       0       8       1       1       0       8       1       1       0
       8       1       1       0       8       1       1       0       8       1
       1       0       8       1       1       0       8       1       1       0
       8       1       1       0       8       1       1       0       8       1
       1       0       8       1       1       0       8       1       1       0
       8       1       1       0       8       1       1       0       8       1
       1       0       8       1       1       0       8       1       1       0
       8       1       1       0       8       1       1       0       8       1
       1       0       8       1       1       0       8       1       1       0
       8       1       1       0       8       1       1       0       8       1
       1       0       8       1       1       0       8       1       1       0
       8       1       1       0       8       1       1       0       8       1
       1       0       8       1       1       0       8       1       1       0
       8       1       1       0       8       1       1       0       8       1
       1       0       8       1       1       0       8       1       1       0
       8       1       1       0       8       1       1       0       8       1
       1       0       8       1       1       0       8       1       1       0
       8       1       1       0       8       1       1       0       8       1
       1       0       8       1       1       0       8       1       1       0
       8       1       1       0       8       1       1       0       8       1
       1       0       8       1       1       0       8       1       1       0
       8       1       1       0       8       1       1       0       8       1
       1       0       8       1       1       0       8       1       1       0
       8       1       1       0       8       1       1       0       8       1
       1       0       8       1       1       0       8       1       1       0
       8       1       1       0       8       1       1       0       8       1
       1       0       8       1       1       0       8       1       1       0
       8       1       1       0       8       1       1       0       8       1
       1       0       8       1       1       0       8       1       1       0
       8       1       1       0       8       1       1       0       8       1
       1       0       8       1       1       0       8       1       1       0
       8       1       1       0       8       1       1       0       8       1
       1       0       8       1       1       0       8       1       1       0
       8       1       1       0       8       1       1       0       8       1
       1       0       8       1       1       0       8       1       1       0
       8       1       1       0       8       1       1       0       8       1
       1       0       8       1       1       0       8       1       1       0
       8       1       1       0       8       1       1       0       8       1
       1       0       8       1       1       0       8       1       1       0
       8       1       1       0       8       1       1       0       8       1
       1       0       8       1       1       0       8       1       1       0
       8       1       1       0       8       1       1       0       8       1
       1       0       8       1       1       0       8       1       1       0
       8       1       1       0       8       1       1       0       8       1
       1       0       8       1       1       0       8       1       1       0
       8       1       1       0       8       1       1       0       8       1
       1       0       8       1       1       0       8       1       1       0
       8       1       1       0       8       1       1       0       8       1
       1       0       8       1       1       0       8       1       1       0
       8       1       1       0       8       1       1       0       8       1
       1       0       8       1       1       0       8       1       1       0
       8       1       1       0       8       1       1       0       8       1
       1       0       8       1       1       0       8       1       1       0
       8       1       1       0       8       1       1       0       8       1
       1       0       8       1       1       0       8       1       1       0
       8       1       1       0       8       1       1       0       8       1
       1       0       8       1       1       0       8       1       1       0
       8       1       1       0       8       1       1       0       8       1
       1       0       8       1       1       0       8       1       1       0
       8       1       1       0       8       1       1       0       8       1
       1       0       8       1       1       0       8       1       1       0
       8       1       1       0       8       1       1       0       8       1
       1       0       8       1       1       0       8       1       1       0
       8       1       1       0       8       1       1       0       8       1
       1       0       8       1       1       0       8       1       1       0
       8       1       1       0       8       1       1       0       8       1
       1       0       8       1       1       0       8       1       1       0
       8       1       1       0       8       1       1       0       8       1
       1       0       8       1       1       0       8       1       1       0
       8       1       1       0       8       1       1       0       8       1
       1       0       8       1       1       0       8       1       1       0
       8       1       1       0       8       1       1       0       8       1
       1       0       8       1       1       0       8       1       1       0
       8       1       1       0       8       1       1       0       8       1
       1       0       8       1       1       0       8       1       1       0
       8       1       1       0       8       1       1       0       8       1
       1       0       8       1       1       0       8       1       1       0
       8       1       1       0       8       1       1       0       8       1
       1       0       8       1       1       0       8       1       1       0
       8       1       1       0       8       1       1       0       8       1
       1       0       8       1       1       0       8       1       1       0
       8       1       1       0       8       1       1       0       8       1
       1       0       8       1       1       0       8       1       1       0
       8       1       1       0       8       1       1       0       8       1
       1       0       8       1       1       0       8       1       1       0
       8       1       1       0       8       1       1       0       8       1
       1       0       8       1       1       0       8       1       1       0
       8       1       1       0       8       1       1       0       8       1
       1       0       8       1       1       0       8       1       1       0
       8       1       1       0       8       1       1       0       8       1
       1       0       8       1       1       0       8       1       1       0
       8       1       1       0       8       1       1       0       8       1
       1       0       8       1       1       0       8       1       1       0
       8       1       1       0       8       1       1       0       8       1
       1       0       8       1       1       0       8       1       1       0
       8       1       1       0       8       1       1       0       8       1
       1       0       8       1       1       0       8       1       1       0
       8       1       1       0       8       1       1       0       8       1
       1       0       8       1       1       0       8       1       1       0
       8       1       1       0       8       1       1       0       8       1
       1       0       8       1       1       0       8       1       1       0
       8       1       1       0       8       1       1       0       8       1
       1       0       8       1       1       0       8       1       1       0
       8       1       1       0       8       1       1       0       8       1
       1       0       8       1       1       0       8       1       1       0
       8       1       1       0       8       1       1       0       8       1
       1       0       8       1       1       0       8       1       1       0
       8       1       1       0       8       1       1       0       8       1
       1       0       8       1       1       0       8       1       1       0
       8       1       1       0       8       1       1       0       8       1
       1       0       8       1       1       0       8       1       1       0
       8       1       1       0       8       1       1       0       8       1
       1       0       8       1       1       0       8       1       1       0
       8       1       1       0       8       1       1       0       8       1
       1       0       8       1       1       0       8       1       1       0
       8       1       1       0       8       1       1       0       8       1
       1       0       8       1       1       0       8       1       1       0
       8       1       1       0       8       1       1       0       8       1
       1       0       8       1       1       0       8       1       1       0
       8       1       1       0       8       1       1       0       8       1
       1       0       8       1       1       0       8       1       1       0
       8       1       1       0       8       1       1       0       8       1
       1       0       8       1       1       0       8       1       1       0
       8       1       1       0       8       1       1       0       8       1
       1       0       8       1       1       0       8       1       1       0
       8       1       1       0       8       1       1       0       8       1
       1       0       8       1       1       0       8       1       1       0
       8       1       1       0       8       1       1       0       8       1
       1       0       8       1       1       0       8       1       1       0
       8       1       1       0       8       1       1       0       8       1
       1       0       8       1       1       0       8       1       1       0
       8       1       1       0       8       1       1       0       8       1
       1       0       8       1       1       0       8       1       1       0
       8       1       1       0       8       1       1       0       8       1
       1       0       8       1       1       0       8       1       1       0
       8       1       1       0       8       1       1       0       8       1
       1       0       8       1       1       0       8       1       1       0
       8       1       1       0       8       1       1       0       8       1
       1       0       8       1       1       0       8       1       1       0
       8       1       1       0       8       1       1       0       8       1
       1       0       8       1       1       0       8       1       1       0
       8       1       1       0       8       1       1       0       8       1
       1       0       8       1       1       0       8       1       1       0
       8       1       1       0       8       1       1       0       8       1
       1       0       8       1       1       0       8       1       1       0
       8       1       1       0       8       1       1       0       8       1
       1       0       8       1       1       0       8       1       1       0
       8       1       1       0       8       1       1       0       8       1
       1       0       8       1       1       0       8       1       1       0
       8       1       1       0       8       1       1       0       8       1
       1       0       8       1       1       0       8       1       1       0
       8       1       1       0       8       1       1       0       8       1
       1       0       8       1       1       0       8       1       1       0
       8       1       1       0       8       1       1       0       8       1
       1       0       8       1       1       0       8       1       1       0
       8       1       1       0       8       1       1       0       8       1
       1       0       8       1       1       0       8       1       1       0
       8       1       1       0       8       1       1       0       8       1
       1       0       8       1       1       0       8       1       1       0
       8       1       1       0       8       1       1       0       8       1
       1       0       8       1       1       0       8       1       1       0
       8       1       1       0       8       1       1       0       8       1
       1       0       8       1       1       0       8       1       1       0
       8       1       1       0       8       1       1       0       8       1
       1       0       8       1       1       0       8       1       1       0
       8       1       1       0       8       1       1       0       8       1
       1       0       8       1       1       0       8       1       1       0
       8       1       1       0       8       1       1       0       8       1
       1       0       8       1       1       0       8       1       1       0
       8       1       1       0       8       1       1       0       8       1
       1       0       8       1       1       0       8       1       1       0
       8       1       1       0       8       1       1       0       8       1
       1       0       8       1       1       0       8       1       1       0
       8       1       1       0       8       1       1       0       8       1
       1       0       8       1       1       0       8       1       1       0
       8       1       1       0       8       1       1       0       8       1
       1       0       8       1       1       0       8       1       1       0
       8       1       1       0       8       1       1       0       8       1
       1       0       8       1       1       0       8       1       1       0
       8       1       1       0       8       1       1       0       8       1
       1       0       8       1       1       0       8       1       1       0
       8       1       1       0       8       1       1       0       8       1
       1       0       8       1       1       0       8       1       1       0
       8       1       1       0       8       1       1       0       8       1
       1       0       8       1       1       0       8       1       1       0
       8       1       1       0       8       1       1       0       8       1
       1       0       8       1       1       0       8       1       1       0
       8       1       1       0       8       1       1       0       8       1
       1       0       8       1       1       0       8       1       1       0
       8       1       1       0       8       1       1       0       8       1
       1       0       8       1       1       0       8       1       1       0
       8       1       1       0       8       1       1       0       8       1
       1       0       8       1       1       0       8       1       1       0
       8       1       1       0       8       1       1       0       8       1
       1       0       8       1       1       0       8       1       1       0
       8       1       1       0       8       1       1       0       8       1
       1       0       8       1       1       0       8       1       1       0
       8       1       1       0       8       1       1       0       8       1
       1       0       8       1       1       0       8       1       1       0
       8       1       1       0       8       1       1       0       8       1
       1       0       8       1       1       0       8       1       1       0
       8       1       1       0       8       1       1       0       8       1
       1       0       8       1       1       0       8       1       1       0
       8       1       1       0       8       1       1       0       8       1
       1       0       8       1       1       0       8       1       1       0
       8       1       1       0       8       1       1       0       8       1
       1       0       8       1       1       0       8       1       1       0
       8       1       1       0       8       1       1       0       8       1
       1       0       8       1       1       0       8       1       1       0
       8       1       1       0       8       1       1       0       8       1
       1       0       8       1       1       0       8       1       1       0
       8       1       1       0       8       1       1       0       8       1
       1       0       8       1       1       0       8       1       1       0
       8       1       1       0       8       1       1       0       8       1
       1       0       8       1       1       0       8       1       1       0
       8       1       1       0       8       1       1       0       8       1
       1       0       8       1       1       0       8       1       1       0
       8       1       1       0       8       1       1       0       8       1
       1       0       8       1       1       0       8       1       1       0
       8       1       1       0       8       1       1       0       8       1
       1       0       8       1       1       0       8       1       1       0
       8       1       1       0       8       1       1       0       8       1
       1       0       8       1       1       0       8       1       1       0
       8       1       1       0       8       1       1       0       8       1
       1       0       8       1       1       0       8       1       1       0
       8       1       1       0       8       1       1       0       8       1
       1       0       8       1       1       0       8       1       1       0
       8       1       1       0       8       1       1       0       8       1
       1       0       8       1       1       0       8       1       1       0
       8       1       1       0       8       1       1       0       8       1
       1       0       8       1       1       0       8       1       1       0
       8       1       1       0       8       1       1       0       8       1
       1       0       8       1       1       0       8       1       1       0
       8       1       1       0       8       1       1       0       8       1
       1       0       8       1       1       0       8       1       1       0
       8       1       1       0       8       1       1       0       8       1
       1       0       8       1       1       0       8       1       1       0
       8       1       1       0       8       1       1       0       8       1
       1       0       8       1       1       0       8       1       1       0
       8       1       1       0       8       1       1       0       8       1
       1       0       8       1       1       0       8       1       1       0
       8       1       1       0       8       1       1       0       8       1
       1       0       8       1       1       0       8       1       1       0
       8       1       1       0       8       1       1       0       8       1
       1       0       8       1       1       0       8       1       1       0
       8       1       1       0       8       1       1       0       8       1
       1       0       8       1       1       0       8       1       1       0
       8       1       1       0       8       1       1       0       8       1
       1       0       8       1       1       0       8       1       1       0
       8       1       1       0       8       1       1       0       8       1
       1       0       8       1       1       0       8       1       1       0
       8       1       1       0       8       1       1       0       8       1
       1       0       8       1       1       0       8       1       1       0
       8       1       1       0       8       1       1       0       8       1
       1       0       8       1       1       0       8       1       1       0
       8       1       1       0       8       1       1       0       8       1
       1       0       8       1       1       0       8       1       1       0
       8       1       1       0       8       1       1       0       8       1
       1       0       8       1       1       0       8       1       1       0
       8       1       1       0       8       1       1       0       8       1
       1       0       8       1       1       0       8       1       1       0
       8       1       1       0       8       1       1       0       8       1
       1       0       8       1       1       0       8       1       1       0
       8       1       1       0       8       1       1       0       8       1
       1       0       8       1       1       0       8       1       1       0
       8       1       1       0       8       1       1       0       8       1
       1       0       8       1       1       0       8       1       1       0
       8       1       1       0       8       1       1       0       8       1
       1       0       8       1       1       0       8       1       1       0
       8       1       1       0       8       1       1       0       8       1
       1       0       8       1       1       0       8       1       1       0
       8       1       1       0       8       1       1       0       8       1
       1       0       8       1       1       0       8       1       1       0
       8       1       1       0       8       1       1       0       8       1
       1       0       8       1       1       0       8       1       1       0
       8       1       1       0       8       1       1       0       8       1
       1       0       8       1       1       0       8       1       1       0
       8       1       1       0       8       1       1       0       8       1
       1       0       8       1       1       0       8       1       1       0
       8       1       1       0       8       1       1       0       8       1
       1       0       8       1       1       0       8       1       1       0
       8       1       1       0       8       1       1       0       8       1
       1       0       8       1       1       0       8       1       1       0
       8       1       1       0       8       1       1       0       8       1
       1       0       8       1       1       0       8       1       1       0
       8       1       1       0       8       1       1       0       8       1
       1       0       8       1       1       0       8       1       1       0
       8       1       1       0       8       1       1       0       8       1
       1       0       8       1       1       0       8       1       1       0
       8       1       1       0       8       1       1       0       8       1
       1       0       8       1       1       0       8       1       1       0
       8       1       1       0       8       1       1       0       8       1
       1       0       8       1       1       0       8       1       1       0
       8       1       1       0       8       1       1       0       8       1
       1       0       8       1       1       0       8       1       1       0
       8       1       1       0       8       1       1       0       8       1
       1       0       8       1       1       0       8       1       1       0
       8       1       1       0       8       1       1       0       8       1
       1       0       8       1       1       0       8       1       1       0
       8       1       1       0       8       1       1       0       8       1
       1       0       8       1       1       0       8       1       1       0
       8       1       1       0       8       1       1       0       8       1
       1       0       8       1       1       0       8       1       1       0
       8       1       1       0       8       1       1       0       8       1
       1       0       8       1       1       0       8       1       1       0
       8       1       1       0       8       1       1       0       8       1
       1       0       8       1       1       0       8       1       1       0
       8       1       1       0       8       1       1       0       8       1
       1       0       8       1       1       0       8       1       1       0
       8       1       1       0       8       1       1       0       8       1
       1       0       8       1       1       0       8       1       1       0
       8       1       1       0       8       1       1       0       8       1
       1       0       8       1       1       0       8       1       1       0
       8       1       1       0       8       1       1       0       8       1
       1       0       8       1       1       0       8       1       1       0
       8       1       1       0       8       1       1       0       8       1
       1       0       8       1       1       0       8       1       1       0
       8       1       1       0       8       1       1       0       8       1
       1       0       8       1       1       0       8       1       1       0
       8       1       1       0       8       1       1       0       8       1
       1       0       8       1       1       0       8       1       1       0
       8       1       1       0       8       1       1       0       8       1
       1       0       8       1       1       0       8       1       1       0
       8       1       1       0       8       1       1       0       8       1
       1       0       8       1       1       0       8       1       1       0
       8       1       1       0       8       1       1       0       8       1
       1       0       8       1       1       0       8       1       1       0
       8       1       1       0       8       1       1       0       8       1
       1       0       8       1       1       0       8       1       1       0
       8       1       1       0       8       1       1       0       8       1
       1       0       8       1       1       0       8       1       1       0
       8       1       1       0       8       1       1       0       8       1
       1       0       8       1       1       0       8       1       1       0
       8       1       1       0       8       1       1       0       8       1
       1       0       8       1       1       0       8       1       1       0
       8       1       1       0       8       1       1       0       8       1
       1       0       8       1       1       0       8       1       1       0
       8       1       1       0       8       1       1       0       8       1
       1       0       8       1       1       0       8       1       1       0
       8       1       1       0       8       1       1       0       8       1
       1       0       8       1       1       0       8       1       1       0
       8       1       1       0       8       1       1       0       8       1
       1       0       8       1       1       0       8       1       1       0
       8       1       1       0       8       1       1       0       8       1
       1       0       8       1       1       0       8       1       1       0
       8       1       1       0       8       1       1       0       8       1
       1       0       8       1       1       0       8       1       1       0
       8       1       1       0       8       1       1       0       8       1
       1       0       8       1       1       0       8       1       1       0
       8       1       1       0       8       1       1       0       8       1
       1       0       8       1       1       0       8       1       1       0
       8       1       1       0       8       1       1       0       8       1
       1       0       8       1       1       0       8       1       1       0
       8       1       1       0       8       1       1       0       8       1
       1       0       8       1       1       0       8       1       1       0
       8       1       1       0       8       1       1       0       8       1
       1       0       8       1       1       0       8       1       1       0
       8       1       1       0       8       1       1       0       8       1
       1       0       8       1       1       0       8       1       1       0
       8       1       1       0       8       1       1       0       8       1
       1       0       8       1       1       0       8       1       1       0
       8       1       1       0       8       1       1       0       8       1
       1       0       8       1       1       0       8       1       1       0
       8       1       1       0       8       1       1       0       8       1
       1       0       8       1       1       0       8       1       1       0
       8       1       1       0       8       1       1       0       8       1
       1       0       8       1       1       0       8       1       1       0
       8       1       1       0       8       1       1       0       8       1
       1       0       8       1       1       0       8       1       1       0
       8       1       1       0       8       1       1       0       8       1
       1       0       8       1       1       0       8       1       1       0
       8       1       1       0       8       1       1       0       8       1
       1       0       8       1       1       0       8       1       1       0
       8       1       1       0       8       1       1       0       8       1
       1       0       8       1       1       0       8       1       1       0
       8       1       1       0       8       1       1       0       8       1
       1       0       8       1       1       0       8       1       1       0
       8       1       1       0       8       1       1       0       8       1
       1       0       8       1       1       0       8       1       1       0
       8       1       1       0       8       1       1       0       8       1
       1       0       8       1       1       0       8       1       1       0
       8       1       1       0       8       1       1       0       8       1
       1       0       8       1       1       0       8       1       1       0
       8       1       1       0       8       1       1       0       8       1
       1       0       8       1       1       0       8       1       1       0
       8       1       1       0       8       1       1       0       8       1
       1       0       8       1       1       0       8       1       1       0
       8       1       1       0       8       1       1       0       8       1
       1       0       8       1       1       0       8       1       1       0
       8       1       1       0       8       1       1       0       8       1
       1       0       8       1       1       0       8       1       1       0
       8       1       1       0       8       1       1       0       8       1
       1       0       8       1       1       0       8       1       1       0
       8       1       1       0       8       1       1       0       8       1
       1       0       8       1       1       0       8       1       1       0
       8       1       1       0       8       1       1       0       8       1
       1       0       8       1       1       0       8       1       1       0
       8       1       1       0       8       1       1       0       8       1
       1       0       8       1       1       0       8       1       1       0
       8       1       1       0       8       1       1       0       8       1
       1       0       8       1       1       0       8       1       1       0
       8       1       1       0       8       1       1       0       8       1
       1       0       8       1       1       0       8       1       1       0
       8       1       1       0       8       1       1       0       8       1
       1       0       8       1       1       0       8       1       1       0
       8       1       1       0       8       1       1       0       8       1
       1       0       8       1       1       0       8       1       1       0
       8       1       1       0       8       1       1       0       8       1
       1       0       8       1       1       0       8       1       1       0
       8       1       1       0       8       1       1       0       8       1
       1       0       8       1       1       0       8       1       1       0
       8       1       1       0       8       1       1       0       8       1
       1       0       8       1       1       0       8       1       1       0
       8       1       1       0       8       1       1       0       8       1
       1       0       8       1       1       0       8       1       1       0
       8       1       1       0       8       1       1       0       8       1
       1       0       8       1       1       0       8       1       1       0
       8       1       1       0       8       1       1       0       8       1
       1       0       8       1       1       0       8       1       1       0
       8       1       1       0       8       1       1       0       8       1
       1       0       8       1       1       0       8       1       1       0
       8       1       1       0       8       1       1       0       8       1
       1       0       8       1       1       0       8       1       1       0
       8       1       1       0       8       1       1       0       8       1
       1       0       8       1       1       0       8       1       1       0
       8       1       1       0       8       1       1       0       8       1
       1       0       8       1       1       0       8       1       1       0
       8       1       1       0       8       1       1       0       8       1
       1       0       8       1       1       0       8       1       1       0
       8       1       1       0       8       1       1       0       8       1
       1       0       8       1       1       0       8       1       1       0
       8       1       1       0       8       1       1       0       8       1
       1       0       8       1       1       0       8       1       1       0
       8       1       1       0       8       1       1       0       8       1
       1       0       8       1       1       0       8       1       1       0
       8       1       1       0       8       1       1       0       8       1
       1       0       8       1       1       0       8       1       1       0
       8       1       1       0       8       1       1       0       8       1
       1       0       8       1       1       0       8       1       1       0
       8       1       1       0       8       1       1       0       8       1
       1       0       8       1       1       0       8       1       1       0
       8       1       1       0       8       1       1       0       8       1
       1       0       8       1       1       0       8       1       1       0
       8       1       1       0       8       1       1       0       8       1
       1       0       8       1       1       0       8       1       1       0
       8       1       1       0       8       1       1       0       8       1
       1       0       8       1       1       0       8       1       1       0
       8       1       1       0       8       1       1       0       8       1
       1       0       8       1       1       0       8       1       1       0
       8       1       1       0       8       1       1       0       8       1
       1       0       8       1       1       0       8       1       1       0
       8       1       1       0       8       1       1       0       8       1
       1       0       8       1       1       0       8       1       1       0
       8       1       1       0       8       1       1       0       8       1
       1       0       8       1       1       0       8       1       1       0
       8       1       1       0       8       1       1       0       8       1
       1       0       8       1       1       0       8       1       1       0
       8       1       1       0       8       1       1       0       8       1
       1       0       8       1       1       0       8       1       1       0
       8       1       1       0       8       1       1       0       8       1
       1       0       8       1       1       0       8       1       1       0
       8       1       1       0       8       1       1       0       8       1
       1       0       8       1       1       0       8       1       1       0
       8       1       1       0       8       1       1       0       8       1
       1       0       8       1       1       0       8       1       1       0
       8       1       1       0       8       1       1       0       8       1
       1       0       8       1       1       0       8       1       1       0
       8       1       1       0       8       1       1       0       8       1
       1       0       8       1       1       0       8       1       1       0
       8       1       1       0       8       1       1       0       8       1
       1       0       8       1       1       0       8       1       1       0
       8       1       1       0       8       1       1       0       8       1
       1       0       8       1       1       0       8       1       1       0
       8       1       1       0       8       1       1       0       8       1
       1       0       8       1       1       0       8       1       1       0
       8       1       1       0       8       1       1       0       8       1
       1       0       8       1       1       0       8       1       1       0
       8       1       1       0       8       1       1       0       8       1
       1       0       8       1       1       0       8       1       1       0
       8       1       1       0       8       1       1       0       8       1
       1       0       8       1       1       0       8       1       1       0
       8       1       1       0       8       1       1       0       8       1
       1       0       8       1       1       0       8       1       1       0
       8       1       1       0       8       1       1       0       8       1
       1       0       8       1       1       0       8       1       1       0
       8       1       1       0       8       1       1       0       8       1
       1       0       8       1       1       0       8       1       1       0
       8       1       1       0       8       1       1       0       8       1
       1       0       8       1       1       0       8       1       1       0
       8       1       1       0       8       1       1       0       8       1
       1       0       8       1       1       0       8       1       1       0
       8       1       1       0       8       1       1       0       8       1
       1       0       8       1       1       0       8       1       1       0
       8       1       1       0       8       1       1       0       8       1
       1       0       8       1       1       0       8       1       1       0
       8       1       1       0       8       1       1       0       8       1
       1       0       8       1       1       0       8       1       1       0
       8       1       1       0       8       1       1       0       8       1
       1       0       8       1       1       0       8       1       1       0
       8       1       1       0       8       1       1       0       8       1
       1       0       8       1       1       0       8       1       1       0
       8       1       1       0       8       1       1       0       8       1
       1       0       8       1       1       0       8       1       1       0
       8       1       1       0       8       1       1       0       8       1
       1       0       8       1       1       0       8       1       1       0
       8       1       1       0       8       1       1       0       8       1
       1       0       8       1       1       0       8       1       1       0
       8       1       1       0       8       1       1       0       8       1
       1       0       8       1       1       0       8       1       1       0
       8       1       1       0       8       1       1       0       8       1
       1       0       8       1       1       0       8       1       1       0
       8       1       1       0       8       1       1       0       8       1
       1       0       8       1       1       0       8       1       1       0
       8       1       1       0       8       1       1       0       8       1
       1       0       8       1       1       0       8       1       1       0
       8       1       1       0       8       1       1       0       8       1
       1       0       8       1       1       0       8       1       1       0
       8       1       1       0       8       1       1       0       8       1
       1       0       8       1       1       0       8       1       1       0
       8       1       1       0       8       1       1       0       8       1
       1       0       8       1       1       0       8       1       1       0
       8       1       1       0       8       1       1       0       8       1
       1       0       8       1       1       0       8       1       1       0
       8       1       1       0       8       1       1       0       8       1
       1       0       8       1       1       0       8       1       1       0
       8       1       1       0       8       1       1       0       8       1
       1       0       8       1       1       0       8       1       1       0
       8       1       1       0       8       1       1       0       8       1
       1       0       8       1       1       0       8       1       1       0
       8       1       1       0       8       1       1       0       8       1
       1       0       8       1       1       0       8       1       1       0
       8       1       1       0       8       1       1       0       8       1
       1       0       8       1       1       0       8       1       1       0
       8       1       1       0       8       1       1       0       8       1
       1       0       8       1       1       0       8       1       1       0
       8       1       1       0       8       1       1       0       8       1
       1       0       8       1       1       0       8       1       1       0
       8       1       1       0       8       1       1       0       8       1
       1       0       8       1       1       0       8       1       1       0
       8       1       1       0       8       1       1       0       8       1
       1       0       8       1       1       0       8       1       1       0
       8       1       1       0       8       1       1       0       8       1
       1       0       8       1       1       0       8       1       1       0
       8       1       1       0       8       1       1       0       8       1
       1       0       8       1       1       0       8       1       1       0
       8       1       1       0       8       1       1       0       8       1
       1       0       8       1       1       0       8       1       1       0
       8       1       1       0       8       1       1       0       8       1
       1       0       8       1       1       0       8       1       1       0
       8       1       1       0       8       1       1       0       8       1
       1       0       8       1       1       0       8       1       1       0
       8       1       1       0       8       1       1       0       8       1
       1       0       8       1       1       0       8       1       1       0
       8       1       1       0       8       1       1       0       8       1
       1       0       8       1       1       0       8       1       1       0
       8       1       1       0       8       1       1       0       8       1
       1       0       8       1       1       0       8       1       1       0
       8       1       1       0       8       1       1       0       8       1
       1       0       8       1       1       0       8       1       1       0
       8       1       1       0       8       1       1       0       8       1
       1       0       8       1       1       0       8       1       1       0
       8       1       1       0       8       1       1       0       8       1
       1       0       8       1       1       0       8       1       1       0
       8       1       1       0       8       1       1       0       8       1
       1       0       8       1       1       0       8       1       1       0
       8       1       1       0       8       1       1       0       8       1
       1       0       8       1       1       0       8       1       1       0
       8       1       1       0       8       1       1       0       8       1
       1       0       8       1       1       0       8       1       1       0
       8       1       1       0       8       1       1       0       8       1
       1       0       8       1       1       0       8       1       1       0
       8       1       1       0       8       1       1       0       8       1
       1       0       8       1       1       0       8       1       1       0
       8       1       1       0       8       1       1       0       8       1
       1       0       8       1       1       0       8       1       1       0
       8       1       1       0       8       1       1       0       8       1
       1       0       8       1       1       0       8       1       1       0
       8       1       1       0       8       1       1       0       8       1
       1       0       8       1       1       0       8       1       1       0
       8       1       1       0       8       1       1       0       8       1
       1       0       8       1       1       0       8       1       1       0
       8       1       1       0       8       1       1       0       8       1
       1       0       8       1       1       0       8       1       1       0
       8       1       1       0       8       1       1       0       8       1
       1       0       8       1       1       0       8       1       1       0
       8       1       1       0       8       1       1       0       8       1
       1       0       8       1       1       0       8       1       1       0
       8       1       1       0       8       1       1       0       8       1
       1       0       8       1       1       0       8       1       1       0
       8       1       1       0       8       1       1       0       8       1
       1       0       8       1       1       0       8       1       1       0
       8       1       1       0       8       1       1       0       8       1
       1       0       8       1       1       0       8       1       1       0
       8       1       1       0       8       1       1       0       8       1
       1       0       8       1       1       0       8       1       1       0
       8       1       1       0       8       1       1       0       8       1
       1       0       8       1       1       0       8       1       1       0
       8       1       1       0       8       1       1       0       8       1
       1       0       8       1       1       0       8       1       1       0
       8       1       1       0       8       1       1       0       8       1
       1       0       8       1       1       0       8       1       1       0
       8       1       1       0       8       1       1       0       8       1
       1       0       8       1       1       0       8       1       1       0
       8       1       1       0       8       1       1       0       8       1
       1       0       8       1       1       0       8       1       1       0
       8       1       1       0       8       1       1       0       8       1
       1       0       8       1       1       0       8       1       1       0
       8       1       1       0       8       1       1       0       8       1
       1       0       8       1       1       0       8       1       1       0
       8       1       1       0       8       1       1       0       8       1
       1       0       8       1       1       0       8       1       1       0
       8       1       1       0       8       1       1       0       8       1
       1       0       8       1       1       0       8       1       1       0
       8       1       1       0       8       1       1       0       8       1
       1       0       8       1       1       0       8       1       1       0
       8       1       1       0       8       1       1       0       8       1
       1       0       8       1       1       0       8       1       1       0
       8       1       1       0       8       1       1       0       8       1
       1       0       8       1       1       0       8       1       1       0
       8       1       1       0       8       1       1       0       8       1
       1       0       8       1       1       0       8       1       1       0
       8       1       1       0       8       1       1       0       8       1
       1       0       8       1       1       0       8       1       1       0
       8       1       1       0       8       1       1       0       8       1
       1       0       8       1       1       0       8       1       1       0
       8       1       1       0       8       1       1       0       8       1
       1       0       8       1       1       0       8       1       1       0
       8       1       1       0       8       1       1       0       8       1
       1       0       8       1       1       0       8       1       1       0
       8       1       1       0       8       1       1       0       8       1
       1       0       8       1       1       0       8       1       1       0
       8       1       1       0       8       1       1       0       8       1
       1       0       8       1       1       0       8       1       1       0
       8       1       1       0       8       1       1       0       8       1
       1       0       8       1       1       0       8       1       1       0
       8       1       1       0       8       1       1       0       8       1
       1       0       8       1       1       0       8       1       1       0
       8       1       1       0       8       1       1       0       8       1
       1       0       8       1       1       0       8       1       1       0
       8       1       1       0       8       1       1       0       8       1
       1       0       8       1       1       0       8       1       1       0
       8       1       1       0       8       1       1       0       8       1
       1       0       8       1       1       0       8       1       1       0
       8       1       1       0       8       1       1       0       8       1
       1       0       8       1       1       0       8       1       1       0
       8       1       1       0       8       1       1       0       8       1
       1       0       8       1       1       0       8       1       1       0
       8       1       1       0       8       1       1       0       8       1
       1       0       8       1       1       0       8       1       1       0
       8       1       1       0       8       1       1       0       8       1
       1       0       8       1       1       0       8       1       1       0
       8       1       1       0       8       1       1       0       8       1
       1       0       8       1       1       0       8       1       1       0
       8       1       1       0       8       1       1       0       8       1
       1       0       8       1       1       0       8       1       1       0
       8       1       1       0       8       1       1       0       8       1
       1       0       8       1       1       0       8       1       1       0
       8       1       1       0       8       1       1       0       8       1
       1       0       8       1       1       0       8       1       1       0
       8       1       1       0       8       1       1       0       8       1
       1       0       8       1       1       0       8       1       1       0
       8       1       1       0       8       1       1       0       8       1
       1       0       8       1       1       0       8       1       1       0
       8       1       1       0       8       1       1       0       8       1
       1       0       8       1       1       0       8       1       1       0
       8       1       1       0       8       1       1       0       8       1
       1       0       8       1       1       0       8       1       1       0
       8       1       1       0       8       1       1       0       8       1
       1       0       8       1       1       0       8       1       1       0
       8       1       1       0       8       1       1       0       8       1
       1       0       8       1       1       0       8       1       1       0
       8       1       1       0       8       1       1       0       8       1
       1       0       8       1       1       0       8       1       1       0
       8       1       1       0       8       1       1       0       8       1
       1       0       8       1       1       0       8       1       1       0
       8       1       1       0       8       1       1       0       8       1
       1       0       8       1       1       0       8       1       1       0
       8       1       1       0       8       1       1       0       8       1
       1       0       8       1       1       0       8       1       1       0
       8       1       1       0       8       1       1       0       8       1
       1       0       8       1       1       0       8       1       1       0
       8       1       1       0       8       1       1       0       8       1
       1       0       8       1       1       0       8       1       1       0
       8       1       1       0       8       1       1       0       8       1
       1       0       8       1       1       0       8       1       1       0
       8       1       1       0       8       1       1       0       8       1
       1       0       8       1       1       0       8       1       1       0
       8       1       1       0       8       1       1       0       8       1
       1       0       8       1       1       0       8       1       1       0
       8       1       1       0       8       1       1       0       8       1
       1       0       8       1       1       0       8       1       1       0
       8       1       1       0       8       1       1       0       8       1
       1       0       8       1       1       0       8       1       1       0
       8       1       1       0       8       1       1       0       8       1
       1       0       8       1       1       0       8       1       1       0
       8       1       1       0       8       1       1       0       8       1
       1       0       8       1       1       0       8       1       1       0
       8       1       1       0       8       1       1       0       8       1
       1       0       8       1       1       0       8       1       1       0
       8       1       1       0       8       1       1       0       8       1
       1       0       8       1       1       0       8       1       1       0
       8       1       1       0       8       1       1       0       8       1
       1       0       8       1       1       0       8       1       1       0
       8       1       1       0       8       1       1       0       8       1
       1       0       8       1       1       0       8       1       1       0
       8       1       1       0       8       1       1       0       8       1
       1       0       8       1       1       0       8       1       1       0
       8       1       1       0       8       1       1       0       8       1
       1       0       8       1       1       0       8       1       1       0
       8       1       1       0       8       1       1       0       8       1
       1       0       8       1       1       0       8       1       1       0
       8       1       1       0       8       1       1       0       8       1
       1       0       8       1       1       0       8       1       1       0
       8       1       1       0       8       1       1       0       8       1
       1       0       8       1       1       0       8       1       1       0
       8       1       1       0       8       1       1       0       8       1
       1       0       8       1       1       0       8       1       1       0
       8       1       1       0       8       1       1       0       8       1
       1       0       8       1       1       0       8       1       1       0
       8       1       1       0       8       1       1       0       8       1
       1       0       8       1       1       0       8       1       1       0
       8       1       1       0       8       1       1       0       8       1
       1       0       8       1       1       0       8       1       1       0
       8       1       1       0       8       1       1       0       8       1
       1       0       8       1       1       0       8       1       1       0
       8       1       1       0       8       1       1       0       8       1
       1       0       8       1       1       0       8       1       1       0
       8       1       1       0       8       1       1       0       8       1
       1       0       8       1       1       0       8       1       1       0
       8       1       1       0       8       1       1       0       8       1
       1       0       8       1       1       0       8       1       1       0
       8       1       1       0       8       1       1       0       8       1
       1       0       8       1       1       0       8       1       1       0
       8       1       1       0       8       1       1       0       8       1
       1       0       8       1       1       0       8       1       1       0
       8       1       1       0       8       1       1       0       8       1
       1       0       8       1       1       0       8       1       1       0
       8       1       1       0       8       1       1       0       8       1
       1       0       8       1       1       0       8       1       1       0
       8       1       1       0       8       1       1       0       8       1
       1       0       8       1       1       0       8       1       1       0
       8       1       1       0       8       1       1       0       8       1
       1       0       8       1       1       0       8       1       1       0
       8       1       1       0       8       1       1       0       8       1
       1       0       8       1       1       0       8       1       1       0
       8       1       1       0       8       1       1       0       8       1
       1       0       8       1       1       0       8       1       1       0
       8       1       1       0       8       1       1       0       8       1
       1       0       8       1       1       0       8       1       1       0
       8       1       1       0       8       1       1       0       8       1
       1       0       8       1       1       0       8       1       1       0
       8       1       1       0       8       1       1       0       8       1
       1       0       8       1       1       0       8       1       1       0
       8       1       1       0       8       1       1       0       8       1
       1       0       8       1       1       0       8       1       1       0
       8       1       1       0       8       1       1       0       8       1
       1       0       8       1       1       0       8       1       1       0
       8       1       1       0       8       1       1       0       8       1
       1       0       8       1       1       0       8       1       1       0
       8       1       1       0       8       1       1       0       8       1
       1       0       8       1       1       0       8       1       1       0
       8       1       1       0       8       1       1       0       8       1
       1       0       8       1       1       0       8       1       1       0
       8       1       1       0       8       1       1       0       8       1
       1       0       8       1       1       0       8       1       1       0
       8       1       1       0       8       1       1       0       8       1
       1       0       8       1       1       0       8       1       1       0
       8       1       1       0       8       1       1       0       8       1
       1       0       8       1       1       0       8       1       1       0
       8       1       1       0       8       1       1       0       8       1
       1       0       8       1       1       0       8       1       1       0
       8       1       1       0       8       1       1       0       8       1
       1       0       8       1       1       0       8       1       1       0
       8       1       1       0       8       1       1       0       8       1
       1       0       8       1       1       0       8       1       1       0
       8       1       1       0       8       1       1       0       8       1
       1       0       8       1       1       0       8       1       1       0
       8       1       1       0       8       1       1       0       8       1
       1       0       8       1       1       0       8       1       1       0
       8       1       1       0       8       1       1       0       8       1
       1       0       8       1       1       0       8       1       1       0
       8       1       1       0       8       1       1       0       8       1
       1       0       8       1       1       0       8       1       1       0
       8       1       1       0       8       1       1       0       8       1
       1       0       8       1       1       0       8       1       1       0
       8       1       1       0       8       1       1       0       8       1
       1       0       8       1       1       0       8       1       1       0
       8       1       1       0       8       1       1       0       8       1
       1       0       8       1       1       0       8       1       1       0
       8       1       1       0       8       1       1       0       8       1
       1       0       8       1       1       0       8       1       1       0
       8       1       1       0       8       1       1       0       8       1
       1       0       8       1       1       0       8       1       1       0
       8       1       1       0       8       1       1       0       8       1
       1       0       8       1       1       0       8       1       1       0
       8       1       1       0       8       1       1       0       8       1
       1       0       8       1       1       0       8       1       1       0
       8       1       1       0       8       1       1       0       8       1
       1       0       8       1       1       0       8       1       1       0
       8       1       1       0       8       1       1       0       8       1
       1       0       8       1       1       0       8       1       1       0
       8       1       1       0       8       1       1       0       8       1
       1       0       8       1       1       0       8       1       1       0
       8       1       1       0       8       1       1       0       8       1
       1       0       8       1       1       0       8       1       1       0
       8       1       1       0       8       1       1       0       8       1
       1       0       8       1       1       0       8       1       1       0
       8       1       1       0       8       1       1       0       8       1
       1       0       8       1       1       0       8       1       1       0
       8       1       1       0       8       1       1       0       8       1
       1       0       8       1       1       0       8       1       1       0
       8       1       1       0       8       1       1       0       8       1
       1       0       8       1       1       0       8       1       1       0
       8       1       1       0       8       1       1       0       8       1
       1       0       8       1       1       0       8       1       1       0
       8       1       1       0       8       1       1       0       8       1
       1       0       8       1       1       0       8       1       1       0
       8       1       1       0       8       1       1       0       8       1
       1       0       8       1       1       0       8       1       1       0
       8       1       1       0       8       1       1       0       8       1
       1       0       8       1       1       0       8       1       1       0
       8       1       1       0       8       1       1       0       8       1
       1       0       8       1       1       0       8       1       1       0
       8       1       1       0       8       1       1       0       8       1
       1       0       8       1       1       0       8       1       1       0
       8       1       1       0       8       1       1       0       8       1
       1       0       8       1       1       0       8       1       1       0
       8       1       1       0       8       1       1       0       8       1
       1       0       8       1       1       0       8       1       1       0
       8       1       1       0       8       1       1       0       8       1
       1       0       8       1       1       0       8       1       1       0
       8       1       1       0       8       1       1       0       8       1
       1       0       8       1       1       0       8       1       1       0
       8       1       1       0       8       1       1       0       8       1
       1       0       8       1       1       0       8       1       1       0
       8       1       1       0       8       1       1       0       8       1
       1       0       8       1       1       0       8       1       1       0
       8       1       1       0       8       1       1       0       8       1
       1       0       8       1       1       0       8       1       1       0
       8       1       1       0       8       1       1       0       8       1
       1       0       8       1       1       0       8       1       1       0
       8       1       1       0       8       1       1       0       8       1
       1       0       8       1       1       0       8       1       1       0
       8       1       1       0       8       1       1       0       8       1
       1       0       8       1       1       0       8       1       1       0
       8       1       1       0       8       1       1       0       8       1
       1       0       8       1       1       0       8       1       1       0
       8       1       1       0       8       1       1       0       8       1
       1       0       8       1       1       0       8       1       1       0
       8       1       1       0       8       1       1       0       8       1
       1       0       8       1       1       0       8       1       1       0
       8       1       1       0       8       1       1       0       8       1
       1       0       8       1       1       0       8       1       1       0
       8       1       1       0       8       1       1       0       8       1
       1       0       8       1       1       0       8       1       1       0
       8       1       1       0       8       1       1       0       8       1
       1       0       8       1       1       0       8       1       1       0
       8       1       1       0       8       1       1       0       8       1
       1       0       8       1       1       0       8       1       1       0
       8       1       1       0       8       1       1       0       8       1
       1       0       8       1       1       0       8       1       1       0
       8       1       1       0       8       1       1       0       8       1
       1       0       8       1       1       0       8       1       1       0
       8       1       1       0       8       1       1       0       8       1
       1       0       8       1       1       0       8       1       1       0
       8       1       1       0       8       1       1       0       8       1
       1       0       8       1       1       0       8       1       1       0
       8       1       1       0       8       1       1       0       8       1
       1       0       8       1       1       0       8       1       1       0
       8       1       1       0       8       1       1       0       8       1
       1       0       8       1       1       0       8       1       1       0
       8       1       1       0       8       1       1       0       8       1
       1       0       8       1       1       0       8       1       1       0
       8       1       1       0       8       1       1       0       8       1
       1       0       8       1       1       0       8       1       1       0
       8       1       1       0       8       1       1       0       8       1
       1       0       8       1       1       0       8       1       1       0
       8       1       1       0       8       1       1       0       8       1
       1       0       8       1       1       0       8       1       1       0
       8       1       1       0       8       1       1       0       8       1
       1       0       8       1       1       0       8       1       1       0
       8       1       1       0       8       1       1       0       8       1
       1       0       8       1       1       0       8       1       1       0
       8       1       1       0       8       1       1       0       8       1
       1       0       8       1       1       0       8       1       1       0
       8       1       1       0       8       1       1       0       8       1
       1       0       8       1       1       0       8       1       1       0
       8       1       1       0       8       1       1       0       8       1
       1       0       8       1       1       0       8       1       1       0
       8       1       1       0       8       1       1       0       8       1
       1       0       8       1       1       0       8       1       1       0
       8       1       1       0       8       1       1       0       8       1
       1       0       8       1       1       0       8       1       1       0
       8       1       1       0       8       1       1       0       8       1
       1       0       8       1       1       0       8       1       1       0
       8       1       1       0       8       1       1       0       8       1
       1       0       8       1       1       0       8       1       1       0
       8       1       1       0       8       1       1       0       8       1
       1       0       8       1       1       0       8       1       1       0
       8       1       1       0       8       1       1       0       8       1
       1       0       8       1       1       0       8       1       1       0
       8       1       1       0       8       1       1       0       8       1
       1       0       8       1       1       0       8       1       1       0
       8       1       1       0       8       1       1       0       8       1
       1       0       8       1       1       0       8       1       1       0
       8       1       1       0       8       1       1       0       8       1
       1       0       8       1       1       0       8       1       1       0
       8       1       1       0       8       1       1       0       8       1
       1       0       8       1       1       0       8       1       1       0
       8       1       1       0       8       1       1       0       8       1
       1       0       8       1       1       0       8       1       1       0
       8       1       1       0       8       1       1       0       8       1
       1       0       8       1       1       0       8       1       1       0
       8       1       1       0       8       1       1       0       8       1
       1       0       8       1       1       0       8       1       1       0
       8       1       1       0       8       1       1       0       8       1
       1       0       8       1       1       0       8       1       1       0
       8       1       1       0       8       1       1       0       8       1
       1       0       8       1       1       0       8       1       1       0
       8       1       1       0       8       1       1       0       8       1
       1       0       8       1       1       0       8       1       1       0
       8       1       1       0       8       1       1       0       8       1
       1       0       8       1       1       0       8       1       1       0
       8       1       1       0       8       1       1       0       8       1
       1       0       8       1       1       0       8       1       1       0
       8       1       1       0       8       1       1       0       8       1
       1       0       8       1       1       0       8       1       1       0
       8       1       1       0       8       1       1       0       8       1
       1       0       8       1       1       0       8       1       1       0
       8       1       1       0       8       1       1       0       8       1
       1       0       8       1       1       0       8       1       1       0
       8       1       1       0       8       1       1       0       8       1
       1       0       8       1       1       0       8       1       1       0
       8       1       1       0       8       1       1       0       8       1
       1       0       8       1       1       0       8       1       1       0
       8       1       1       0       8       1       1       0       8       1
       1       0       8       1       1       0       8       1       1       0
       8       1       1       0       8       1       1       0       8       1
       1       0       8       1       1       0       8       1       1       0
       8       1       1       0       8       1       1       0       8       1
       1       0       8       1       1       0       8       1       1       0
       8       1       1       0       8       1       1       0       8       1
       1       0       8       1       1       0       8       1       1       0
       8       1       1       0       8       1       1       0       8       1
       1       0       8       1       1       0       8       1       1       0
       8       1       1       0       8       1       1       0       8       1
       1       0       8       1       1       0       8       1       1       0
       8       1       1       0       8       1       1       0       8       1
       1       0       8       1       1       0       8       1       1       0
       8       1       1       0       8       1       1       0       8       1
       1       0       8       1       1       0       8       1       1       0
       8       1       1       0       8       1       1       0       8       1
       1       0       8       1       1       0       8       1       1       0
       8       1       1       0       8       1       1       0       8       1
       1       0       8       1       1       0       8       1       1       0
       8       1       1       0       8       1       1       0       8       1
       1       0       8       1       1       0       8       1       1       0
       8       1       1       0       8       1       1       0       8       1
       1       0       8       1       1       0       8       1       1       0
       8       1       1       0       8       1       1       0       8       1
       1       0       8       1       1       0       8       1       1       0
       8       1       1       0       8       1       1       0       8       1
       1       0       8       1       1       0       8       1       1       0
       8       1       1       0       8       1       1       0       8       1
       1       0       8       1       1       0       8       1       1       0
       8       1       1       0       8       1       1       0       8       1
       1       0       8       1       1       0       8       1       1       0
       8       1       1       0       8       1       1       0       8       1
       1       0       8       1       1       0       8       1       1       0
       8       1       1       0       8       1       1       0       8       1
       1       0       8       1       1       0       8       1       1       0
       8       1       1       0       8       1       1       0       8       1
       1       0       8       1       1       0       8       1       1       0
       8       1       1       0       8       1       1       0       8       1
       1       0       8       1       1       0       8       1       1       0
       8       1       1       0       8       1       1       0       8       1
       1       0       8       1       1       0       8       1       1       0
       8       1       1       0       8       1       1       0       8       1
       1       0       8       1       1       0       8       1       1       0
       8       1       1       0       8       1       1       0       8       1
       1       0       8       1       1       0       8       1       1       0
       8       1       1       0       8       1       1       0       8       1
       1       0       8       1       1       0       8       1       1       0
       8       1       1       0       8       1       1       0       8       1
       1       0       8       1       1       0       8       1       1       0
       8       1       1       0       8       1       1       0       8       1
       1       0       8       1       1       0       8       1       1       0
       8       1       1       0       8       1       1       0       8       1
       1       0       8       1       1       0       8       1       1       0
       8       1       1       0       8       1       1       0       8       1
       1       0       8       1       1       0       8       1       1       0
       8       1       1       0       8       1       1       0       8       1
       1       0       8       1       1       0       8       1       1       0
       8       1       1       0       8       1       1       0       8       1
       1       0       8       1       1       0       8       1       1       0
       8       1       1       0       8       1       1       0       8       1
       1       0       8       1       1       0       8       1       1       0
       8       1       1       0       8       1       1       0       8       1
       1       0       8       1       1       0       8       1       1       0
       8       1       1       0       8       1       1       0       8       1
       1       0       8       1       1       0       8       1       1       0
       8       1       1       0       8       1       1       0       8       1
       1       0       8       1       1       0       8       1       1       0
       8       1       1       0       8       1       1       0       8       1
       1       0       8       1       1       0       8       1       1       0
       8       1       1       0       8       1       1       0       8       1
       1       0       8       1       1       0       8       1       1       0
       8       1       1       0       8       1       1       0       8       1
       1       0       8       1       1       0       8       1       1       0
       8       1       1       0       8       1       1       0       8       1
       1       0       8       1       1       0       8       1       1       0
       8       1       1       0       8       1       1       0       8       1
       1       0       8       1       1       0       8       1       1       0
       8       1       1       0       8       1       1       0       8       1
       1       0       8       1       1       0       8       1       1       0
       8       1       1       0       8       1       1       0       8       1
       1       0       8       1       1       0       8       1       1       0
       8       1       1       0       8       1       1       0       8       1
       1       0       8       1       1       0       8       1       1       0
       8       1       1       0       8       1       1       0       8       1
       1       0       8       1       1       0       8       1       1       0
       8       1       1       0       8       1       1       0       8       1
       1       0       8       1       1       0       8       1       1       0
       8       1       1       0       8       1       1       0       8       1
       1       0       8       1       1       0       8       1       1       0
       8       1       1       0       8       1       1       0       8       1
       1       0       8       1       1       0       8       1       1       0
       8       1       1       0       8       1       1       0       8       1
       1       0       8       1       1       0       8       1       1       0
       8       1       1       0       8       1       1       0       8       1
       1       0       8       1       1       0       8       1       1       0
       8       1       1       0       8       1       1       0       8       1
       1       0       8       1       1       0       8       1       1       0
       8       1       1       0       8       1       1       0       8       1
       1       0       8       1       1       0       8       1       1       0
       8       1       1       0       8       1       1       0       8       1
       1       0       8       1       1       0       8       1       1       0
       8       1       1       0       8       1       1       0       8       1
       1       0       8       1       1       0       8       1       1       0
       8       1       1       0       8       1       1       0       8       1
       1       0       8       1       1       0       8       1       1       0
       8       1       1       0       8       1       1       0       8       1
       1       0       8       1       1       0       8       1       1       0
       8       1       1       0       8       1       1       0       8       1
       1       0       8       1       1       0       8       1       1       0
       8       1       1       0       8       1       1       0       8       1
       1       0       8       1       1       0       8       1       1       0
       8       1       1       0       8       1       1       0       8       1
       1       0       8       1       1       0       8       1       1       0
       8       1       1       0       8       1       1       0       8       1
       1       0       8       1       1       0       8       1       1       0
       8       1       1       0       8       1       1       0       8       1
       1       0       8       1       1       0       8       1       1       0
       8       1       1       0       8       1       1       0       8       1
       1       0       8       1       1       0       8       1       1       0
       8       1       1       0       8       1       1       0       8       1
       1       0       8       1       1       0       8       1       1       0
       8       1       1       0       8       1       1       0       8       1
       1       0       8       1       1       0       8       1       1       0
       8       1       1       0       8       1       1       0       8       1
       1       0       8       1       1       0       8       1       1       0
       8       1       1       0       8       1       1       0       8       1
       1       0       8       1       1       0       8       1       1       0
       8       1       1       0       8       1       1       0       8       1
       1       0       8       1       1       0       8       1       1       0
       8       1       1       0       8       1       1       0       8       1
       1       0       8       1       1       0       8       1       1       0
       8       1       1       0       8       1       1       0       8       1
       1       0       8       1       1       0       8       1       1       0
       8       1       1       0       8       1       1       0       8       1
       1       0       8       1       1       0       8       1       1       0
       8       1       1       0       8       1       1       0       8       1
       1       0       8       1       1       0       8       1       1       0
       8       1       1       0       8       1       1       0       8       1
       1       0       8       1       1       0       8       1       1       0
       8       1       1       0       8       1       1       0       8       1
       1       0       8       1       1       0       8       1       1       0
       8       1       1       0       8       1       1       0       8       1
       1       0       8       1       1       0       8       1       1       0
       8       1       1       0       8       1       1       0       8       1
       1       0       8       1       1       0       8       1       1       0
       8       1       1       0       8       1       1       0       8       1
       1       0       8       1       1       0       8       1       1       0
       8       1       1       0       8       1       1       0       8       1
       1       0       8       1       1       0       8       1       1       0
       8       1       1       0       8       1       1       0       8       1
       1       0       8       1       1       0       8       1       1       0
       8       1       1       0       8       1       1       0       8       1
       1       0       8       1       1       0       8       1       1       0
       8       1       1       0       8       1       1       0       8       1
       1       0       8       1       1       0       8       1       1       0
       8       1       1       0       8       1       1       0       8       1
       1       0       8       1       1       0       8       1       1       0
       8       1       1       0       8       1       1       0       8       1
       1       0       8       1       1       0       8       1       1       0
       8       1       1       0       8       1       1       0       8       1
       1       0       8       1       1       0       8       1       1       0
       8       1       1       0       8       1       1       0       8       1
       1       0       8       1       1       0       8       1       1       0
       8       1       1       0       8       1       1       0       8       1
       1       0       8       1       1       0       8       1       1       0
       8       1       1       0       8       1       1       0       8       1
       1       0       8       1       1       0       8       1       1       0
       8       1       1       0       8       1       1       0       8       1
       1       0       8       1       1       0       8       1       1       0
       8       1       1       0       8       1       1       0       8       1
       1       0       8       1       1       0       8       1       1       0
       8       1       1       0       8       1       1       0       8       1
       1       0       8       1       1       0       8       1       1       0
       8       1       1       0       8       1       1       0       8       1
       1       0       8       1       1       0       8       1       1       0
       8       1       1       0       8       1       1       0       8       1
       1       0       8       1       1       0       8       1       1       0
       8       1       1       0       8       1       1       0       8       1
       1       0       8       1       1       0       8       1       1       0
       8       1       1       0       8       1       1       0       8       1
       1       0       8       1       1       0       8       1       1       0
       8       1       1       0       8       1       1       0       8       1
       1       0       8       1       1       0       8       1       1       0
       8       1       1       0       8       1       1       0       8       1
       1       0       8       1       1       0       8       1       1       0
       8       1       1       0       8       1       1       0       8       1
       1       0       8       1       1       0       8       1       1       0
       8       1       1       0       8       1       1       0       8       1
       1       0       8       1       1       0       8       1       1       0
       8       1       1       0       8       1       1       0       8       1
       1       0       8       1       1       0       8       1       1       0
       8       1       1       0       8       1       1       0       8       1
       1       0       8       1       1       0       8       1       1       0
       8       1       1       0       8       1       1       0       8       1
       1       0       8       1       1       0       8       1       1       0
       8       1       1       0       8       1       1       0       8       1
       1       0       8       1       1       0       8       1       1       0
       8       1       1       0       8       1       1       0       8       1
       1       0       8       1       1       0       8       1       1       0
       8       1       1       0       8       1       1       0       8       1
       1       0       8       1       1       0       8       1       1       0
       8       1       1       0       8       1       1       0       8       1
       1       0       8       1       1       0       8       1       1       0
       8       1       1       0       8       1       1       0       8       1
       1       0       8       1       1       0       8       1       1       0
       8       1       1       0       8       1       1       0       8       1
       1       0       8       1       1       0       8       1       1       0
       8       1       1       0       8       1       1       0       8       1
       1       0       8       1       1       0       8       1       1       0
       8       1       1       0       8       1       1       0       8       1
       1       0       8       1       1       0       8       1       1       0
       8       1       1       0       8       1       1       0       8       1
       1       0       8       1       1       0       8       1       1       0
       8       1       1       0       8       1       1       0       8       1
       1       0       8       1       1       0       8       1       1       0
       8       1       1       0       8       1       1       0       8       1
       1       0       8       1       1       0       8       1       1       0
       8       1       1       0       8       1       1       0       8       1
       1       0       8       1       1       0       8       1       1       0
       8       1       1       0       8       1       1       0       8       1
       1       0       8       1       1       0       8       1       1       0
       8       1       1       0       8       1       1       0       8       1
       1       0       8       1       1       0       8       1       1       0
       8       1       1       0       8       1       1       0       8       1
       1       0       8       1       1       0       8       1       1       0
       8       1       1       0       8       1       1       0       8       1
       1       0       8       1       1       0       8       1       1       0
       8       1       1       0       8       1       1       0       8       1
       1       0       8       1       1       0       8       1       1       0
       8       1       1       0       8       1       1       0       8       1
       1       0       8       1       1       0       8       1       1       0
       8       1       1       0       8       1       1       0       8       1
       1       0       8       1       1       0       8       1       1       0
       8       1       1       0       8       1       1       0       8       1
       1       0       8       1       1       0       8       1       1       0
       8       1       1       0       8       1       1       0       8       1
       1       0       8       1       1       0       8       1       1       0
       8       1       1       0       8       1       1       0       8       1
       1       0       8       1       1       0       8       1       1       0
       8       1       1       0       8       1       1       0       8       1
       1       0       8       1       1       0       8       1       1       0
       8       1       1       0       8       1       1       0       8       1
       1       0       8       1       1       0       8       1       1       0
       8       1       1       0       8       1       1       0       8       1
       1       0       8       1       1       0       8       1       1       0
       8       1       1       0       8       1       1       0       8       1
       1       0       8       1       1       0       8       1       1       0
       8       1       1       0       8       1       1       0       8       1
       1       0       8       1       1       0       8       1       1       0
       8       1       1       0       8       1       1       0       8       1
       1       0       8       1       1       0       8       1       1       0
       8       1       1       0       8       1       1       0       8       1
       1       0       8       1       1       0       8       1       1       0
       8       1       1       0       8       1       1       0       8       1
       1       0       8       1       1       0       8       1       1       0
       8       1       1       0       8       1       1       0       8       1
       1       0       8       1       1       0       8       1       1       0
       8       1       1       0       8       1       1       0       8       1
       1       0       8       1       1       0       8       1       1       0
       8       1       1       0       8       1       1       0       8       1
       1       0       8       1       1       0       8       1       1       0
       8       1       1       0       8       1       1       0       8       1
       1       0       8       1       1       0       8       1       1       0
       8       1       1       0       8       1       1       0       8       1
       1       0       8       1       1       0       8       1       1       0
       8       1       1       0       8       1       1       0       8       1
       1       0       8       1       1       0       8       1       1       0
       8       1       1       0       8       1       1       0       8       1
       1       0       8       1       1       0       8       1       1       0
       8       1       1       0       8       1       1       0       8       1
       1       0       8       1       1       0       8       1       1       0
       8       1       1       0       8       1       1       0       8       1
       1       0       8       1       1       0       8       1       1       0
       8       1       1       0       8       1       1       0       8       1
       1       0       8       1       1       0       8       1       1       0
       8       1       1       0       8       1       1       0       8       1
       1       0       8       1       1       0       8       1       1       0
       8       1       1       0       8       1       1       0       8       1
       1       0       8       1       1       0       8       1       1       0
       8       1       1       0       8       1       1       0       8       1
       1       0       8       1       1       0       8       1       1       0
       8       1       1       0       8       1       1       0       8       1
       1       0       8       1       1       0       8       1       1       0
       8       1       1       0       8       1       1       0       8       1
       1       0       8       1       1       0       8       1       1       0
       8       1       1       0       8       1       1       0       8       1
       1       0       8       1       1       0       8       1       1       0
       8       1       1       0       8       1       1       0       8       1
       1       0       8       1       1       0       8       1       1       0
       8       1       1       0       8       1       1       0       8       1
       1       0       8       1       1       0       8       1       1       0
       8       1       1       0       8       1       1       0       8       1
       1       0       8       1       1       0       8       1       1       0
       8       1       1       0       8       1       1       0       8       1
       1       0       8       1       1       0       8       1       1       0
       8       1       1       0       8       1       1       0       8       1
       1       0       8       1       1       0       8       1       1       0
       8       1       1       0       8       1       1       0       8       1
       1       0       8       1       1       0       8       1       1       0
       8       1       1       0       8       1       1       0       8       1
       1       0       8       1       1       0       8       1       1       0
       8       1       1       0       8       1       1       0       8       1
       1       0       8       1       1       0       8       1       1       0
       8       1       1       0       8       1       1       0       8       1
       1       0       8       1       1       0       8       1       1       0
       8       1       1       0       8       1       1       0       8       1
       1       0       8       1       1       0       8       1       1       0
       8       1       1       0       8       1       1       0       8       1
       1       0       8       1       1       0       8       1       1       0
       8       1       1       0       8       1       1       0       8       1
       1       0       8       1       1       0       8       1       1       0
       8       1       1       0       8       1       1       0       8       1
       1       0       8       1       1       0       8       1       1       0
       8       1       1       0       8       1       1       0       8       1
       1       0       8       1       1       0       8       1       1       0
       8       1       1       0       8       1       1       0       8       1
       1       0       8       1       1       0       8       1       1       0
       8       1       1       0       8       1       1       0       8       1
       1       0       8       1       1       0       8       1       1       0
       8       1       1       0       8       1       1       0       8       1
       1       0       8       1       1       0       8       1       1       0
       8       1       1       0       8       1       1       0       8       1
       1       0       8       1       1       0       8       1       1       0
       8       1       1       0       8       1       1       0       8       1
       1       0       8       1       1       0       8       1       1       0
       8       1       1       0       8       1       1       0       8       1
       1       0       8       1       1       0       8       1       1       0
       8       1       1       0       8       1       1       0       8       1
       1       0       8       1       1       0       8       1       1       0
       8       1       1       0       8       1       1       0       8       1
       1       0       8       1       1       0       8       1       1       0
       8       1       1       0       8       1       1       0       8       1
       1       0       8       1       1       0       8       1       1       0
       8       1       1       0       8       1       1       0       8       1
       1       0       8       1       1       0       8       1       1       0
       8       1       1       0       8       1       1       0       8       1
       1       0       8       1       1       0       8       1       1       0
       8       1       1       0       8       1       1       0       8       1
       1       0       8       1       1       0       8       1       1       0
       8       1       1       0       8       1       1       0       8       1
       1       0       8       1       1       0       8       1       1       0
       8       1       1       0       8       1       1       0       8       1
       1       0       8       1       1       0       8       1       1       0
       8       1       1       0       8       1       1       0       8       1
       1       0       8       1       1       0       8       1       1       0
       8       1       1       0       8       1       1       0       8       1
       1       0       8       1       1       0       8       1       1       0
       8       1       1       0       8       1       1       0       8       1
       1       0       8       1       1       0       8       1       1       0
       8       1       1       0       8       1       1       0       8       1
       1       0       8       1       1       0       8       1       1       0
       8       1       1       0       8       1       1       0       8       1
       1       0       8       1       1       0       8       1       1       0
       8       1       1       0       8       1       1       0       8       1
       1       0       8       1       1       0       8       1       1       0
       8       1       1       0       8       1       1       0       8       1
       1       0       8       1       1       0       8       1       1       0
       8       1       1       0       8       1       1       0       8       1
       1       0       8       1       1       0       8       1       1       0
       8       1       1       0       8       1       1       0       8       1
       1       0       8       1       1       0       8       1       1       0
       8       1       1       0       8       1       1       0       8       1
       1       0       8       1       1       0       8       1       1       0
       8       1       1       0       8       1       1       0       8       1
       1       0       8       1       1       0       8       1       1       0
       8       1       1       0       8       1       1       0       8       1
       1       0       8       1       1       0       8       1       1       0
       8       1       1       0       8       1       1       0       8       1
       1       0       8       1       1       0       8       1       1       0
       8       1       1       0       8       1       1       0       8       1
       1       0       8       1       1       0       8       1       1       0
       8       1       1       0       8       1       1       0       8       1
       1       0       8       1       1       0       8       1       1       0
       8       1       1       0       8       1       1       0       8       1
       1       0       8       1       1       0       8       1       1       0
       8       1       1       0       8       1       1       0       8       1
       1       0       8       1       1       0       8       1       1       0
       8       1       1       0       8       1       1       0       8       1
       1       0       8       1       1       0       8       1       1       0
       8       1       1       0       8       1       1       0       8       1
       1       0       8       1       1       0       8       1       1       0
       8       1       1       0       8       1       1       0       8       1
       1       0       8       1       1       0       8       1       1       0
       8       1       1       0       8       1       1       0       8       1
       1       0       8       1       1       0       8       1       1       0
       8       1       1       0       8       1       1       0       8       1
       1       0       8       1       1       0       8       1       1       0
       8       1       1       0       8       1       1       0       8       1
       1       0       8       1       1       0       8       1       1       0
       8       1       1       0       8       1       1       0       8       1
       1       0       8       1       1       0       8       1       1       0
       8       1       1       0       8       1       1       0       8       1
       1       0       8       1       1       0       8       1       1       0
       8       1       1       0       8       1       1       0       8       1
       1       0       8       1       1       0       8       1       1       0
       8       1       1       0       8       1       1       0       8       1
       1       0       8       1       1       0       8       1       1       0
       8       1       1       0       8       1       1       0       8       1
       1       0       8       1       1       0       8       1       1       0
       8       1       1       0       8       1       1       0       8       1
       1       0       8       1       1       0       8       1       1       0
       8       1       1       0       8       1       1       0       8       1
       1       0       8       1       1       0       8       1       1       0
       8       1       1       0       8       1       1       0       8       1
       1       0       8       1       1       0       8       1       1       0
       8       1       1       0       8       1       1       0       8       1
       1       0       8       1       1       0       8       1       1       0
       8       1       1       0       8       1       1       0       8       1
       1       0       8       1       1       0       8       1       1       0
       8       1       1       0       8       1       1       0       8       1
       1       0       8       1       1       0       8       1       1       0
       8       1       1       0       8       1       1       0       8       1
       1       0       8       1       1       0       8       1       1       0
       8       1       1       0       8       1       1       0       8       1
       1       0       8       1       1       0       8       1       1       0
       8       1       1       0       8       1       1       0       8       1
       1       0       8       1       1       0       8       1       1       0
       8       1       1       0       8       1       1       0       8       1
       1       0       8       1       1       0       8       1       1       0
       8       1       1       0       8       1       1       0       8       1
       1       0       8       1       1       0       8       1       1       0
       8       1       1       0       8       1       1       0       8       1
       1       0       8       1       1       0       8       1       1       0
       8       1       1       0       8       1       1       0       8       1
       1       0       8       1       1       0       8       1       1       0
       8       1       1       0       8       1       1       0       8       1
       1       0       8       1       1       0       8       1       1       0
       8       1       1       0       8       1       1       0       8       1
       1       0       8       1       1       0       8       1       1       0
       8       1       1       0       8       1       1       0       8       1
       1       0       8       1       1       0       8       1       1       0
       8       1       1       0       8       1       1       0       8       1
       1       0       8       1       1       0       8       1       1       0
       8       1       1       0       8       1       1       0       8       1
       1       0       8       1       1       0       8       1       1       0
       8       1       1       0       8       1       1       0       8       1
       1       0       8       1       1       0       8       1       1       0
       8       1       1       0       8       1       1       0       8       1
       1       0       8       1       1       0       8       1       1       0
       8       1       1       0       8       1       1       0       8       1
       1       0       8       1       1       0       8       1       1       0
       8       1       1       0       8       1       1       0       8       1
       1       0       8       1       1       0       8       1       1       0
       8       1       1       0       8       1       1       0       8       1
       1       0       8       1       1       0       8       1       1       0
       8       1       1       0       8       1       1       0       8       1
       1       0       8       1       1       0       8       1       1       0
       8       1       1       0       8       1       1       0       8       1
       1       0       8       1       1       0       8       1       1       0
       8       1       1       0       8       1       1       0       8       1
       1       0       8       1       1       0       8       1       1       0
       8       1       1       0       8       1       1       0       8       1
       1       0       8       1       1       0       8       1       1       0
       8       1       1       0       8       1       1       0       8       1
       1       0       8       1       1       0       8       1       1       0
       8       1       1       0       8       1       1       0       8       1
       1       0       8       1       1       0       8       1       1       0
       8       1       1       0       8       1       1       0       8       1
       1       0       8       1       1       0       8       1       1       0
       8       1       1       0       8       1       1       0       8       1
       1       0       8       1       1       0       8       1       1       0
       8       1       1       0       8       1       1       0       8       1
       1       0       8       1       1       0       8       1       1       0
       8       1       1       0       8       1       1       0       8       1
       1       0       8       1       1       0       8       1       1       0
       8       1       1       0       8       1       1       0       8       1
       1       0       8       1       1       0       8       1       1       0
       8       1       1       0       8       1       1       0       8       1
       1       0       8       1       1       0       8       1       1       0
       8       1       1       0       8       1       1       0       8       1
       1       0       8       1       1       0       8       1       1       0
       8       1       1       0       8       1       1       0       8       1
       1       0       8       1       1       0       8       1       1       0
       8       1       1       0       8       1       1       0       8       1
       1       0       8       1       1       0       8       1       1       0
       8       1       1       0       8       1       1       0       8       1
       1       0       8       1       1       0       8       1       1       0
       8       1       1       0       8       1       1       0       8       1
       1       0       8       1       1       0       8       1       1       0
       8       1       1       0       8       1       1       0       8       1
       1       0       8       1       1       0       8       1       1       0
       8       1       1       0       8       1       1       0       8       1
       1       0       8       1       1       0       8       1       1       0
       8       1       1       0       8       1       1       0       8       1
       1       0       8       1       1       0       8       1       1       0
       8       1       1       0       8       1       1       0       8       1
       1       0       8       1       1       0       8       1       1       0
       8       1       1       0       8       1       1       0       8       1
       1       0       8       1       1       0       8       1       1       0
       8       1       1       0       8       1       1       0       8       1
       1       0       8       1       1       0       8       1       1       0
       8       1       1       0       8       1       1       0       8       1
       1       0       8       1       1       0       8       1       1       0
       8       1       1       0       8       1       1       0       8       1
       1       0       8       1       1       0       8       1       1       0
       8       1       1       0       8       1       1       0       8       1
       1       0       8       1       1       0       8       1       1       0
       8       1       1       0       8       1       1       0       8       1
       1       0       8       1       1       0       8       1       1       0
       8       1       1       0       8       1       1       0       8       1
       1       0       8       1       1       0       8       1       1       0
       8       1       1       0       8       1       1       0       8       1
       1       0       8       1       1       0       8       1       1       0
       8       1       1       0       8       1       1       0       8       1
       1       0       8       1       1       0       8       1       1       0
       8       1       1       0       8       1       1       0       8       1
       1       0       8       1       1       0       8       1       1       0
       8       1       1       0       8       1       1       0       8       1
       1       0       8       1       1       0       8       1       1       0
       8       1       1       0       8       1       1       0       8       1
       1       0       8       1       1       0       8       1       1       0
       8       1       1       0       8       1       1       0       8       1
       1       0       8       1       1       0       8       1       1       0
       8       1       1       0       8       1       1       0       8       1
       1       0       8       1       1       0       8       1       1       0
       8       1       1       0       8       1       1       0       8       1
       1       0       8       1       1       0       8       1       1       0
       8       1       1       0       8       1       1       0       8       1
       1       0       8       1       1       0       8       1       1       0
       8       1       1       0       8       1       1       0       8       1
       1       0       8       1       1       0       8       1       1       0
       8       1       1       0       8       1       1       0       8       1
       1       0       8       1       1       0       8       1       1       0
       8       1       1       0       8       1       1       0       8       1
       1       0       8       1       1       0       8       1       1       0
       8       1       1       0       8       1       1       0       8       1
       1       0       8       1       1       0       8       1       1       0
       8       1       1       0       8       1       1       0       8       1
       1       0       8       1       1       0       8       1       1       0
       8       1       1       0       8       1       1       0       8       1
       1       0       8       1       1       0       8       1       1       0
       8       1       1       0       8       1       1       0       8       1
       1       0       8       1       1       0       8       1       1       0
       8       1       1       0       8       1       1       0       8       1
       1       0       8       1       1       0       8       1       1       0
       8       1       1       0       8       1       1       0       8       1
       1       0       8       1       1       0       8       1       1       0
       8       1       1       0       8       1       1       0       8       1
       1       0       8       1       1       0       8       1       1       0
       8       1       1       0       8       1       1       0       8       1
       1       0       8       1       1       0       8       1       1       0
       8       1       1       0       8       1       1       0       8       1
       1       0       8       1       1       0       8       1       1       0
       8       1       1       0       8       1       1       0       8       1
       1       0       8       1       1       0       8       1       1       0
       8       1       1       0       8       1       1       0       8       1
       1       0       8       1       1       0       8       1       1       0
       8       1       1       0       8       1       1       0       8       1
       1       0       8       1       1       0       8       1       1       0
       8       1       1       0       8       1       1       0       8       1
       1       0       8       1       1       0       8       1       1       0
       8       1       1       0       8       1       1       0       8       1
       1       0       8       1       1       0       8       1       1       0
       8       1       1       0       8       1       1       0       8       1
       1       0       8       1       1       0       8       1       1       0
       8       1       1       0       8       1       1       0       8       1
       1       0       8       1       1       0       8       1       1       0
       8       1       1       0       8       1       1       0       8       1
       1       0       8       1       1       0       8       1       1       0
       8       1       1       0       8       1       1       0       8       1
       1       0       8       1       1       0       8       1       1       0
       8       1       1       0       8       1       1       0       8       1
       1       0       8       1       1       0       8       1       1       0
       8       1       1       0       8       1       1       0       8       1
       1       0       8       1       1       0       8       1       1       0
       8       1       1       0       8       1       1       0       8       1
       1       0       8       1       1       0       8       1       1       0
       8       1       1       0       8       1       1       0       8       1
       1       0       8       1       1       0       8       1       1       0
       8       1       1       0       8       1       1       0       8       1
       1       0       8       1       1       0       8       1       1       0
       8       1       1       0       8       1       1       0       8       1
       1       0       8       1       1       0       8       1       1       0
       8       1       1       0       8       1       1       0       8       1
       1       0       8       1       1       0       8       1       1       0
       8       1       1       0       8       1       1       0       8       1
       1       0       8       1       1       0       8       1       1       0
       8       1       1       0       8       1       1       0       8       1
       1       0       8       1       1       0       8       1       1       0
       8       1       1       0       8       1       1       0       8       1
       1       0       8       1       1       0       8       1       1       0
       8       1       1       0       8       1       1       0       8       1
       1       0       8       1       1       0       8       1       1       0
       8       1       1       0       8       1       1       0       8       1
       1       0       8       1       1       0       8       1       1       0
       8       1       1       0       8       1       1       0       8       1
       1       0       8       1       1       0       8       1       1       0
       8       1       1       0       8       1       1       0       8       1
       1       0       8       1       1       0       8       1       1       0
       8       1       1       0       8       1       1       0       8       1
       1       0       8       1       1       0       8       1       1       0
       8       1       1       0       8       1       1       0       8       1
       1       0       8       1       1       0       8       1       1       0
       8       1       1       0       8       1       1       0       8       1
       1       0       8       1       1       0       8       1       1       0
       8       1       1       0       8       1       1       0       8       1
       1       0       8       1       1       0       8       1       1       0
       8       1       1       0       8       1       1       0       8       1
       1       0       8       1       1       0       8       1       1       0
       8       1       1       0       8       1       1       0       8       1
       1       0       8       1       1       0       8       1       1       0
       8       1       1       0       8       1       1       0       8       1
       1       0       8       1       1       0       8       1       1       0
       8       1       1       0       8       1       1       0       8       1
       1       0       8       1       1       0       8       1       1       0
       8       1       1       0       8       1       1       0       8       1
       1       0       8       1       1       0       8       1       1       0
       8       1       1       0       8       1       1       0       8       1
       1       0       8       1       1       0       8       1       1       0
       8       1       1       0       8       1       1       0       8       1
       1       0       8       1       1       0       8       1       1       0
       8       1       1       0       8       1       1       0       8       1
       1       0       8       1       1       0       8       1       1       0
       8       1       1       0       8       1       1       0       8       1
       1       0       8       1       1       0       8       1       1       0
       8       1       1       0       8       1       1       0       8       1
       1       0       8       1       1       0       8       1       1       0
       8       1       1       0       8       1       1       0       8       1
       1       0       8       1       1       0       8       1       1       0
       8       1       1       0       8       1       1       0       8       1
       1       0       8       1       1       0       8       1       1       0
       8       1       1       0       8       1       1       0       8       1
       1       0       8       1       1       0       8       1       1       0
       8       1       1       0       8       1       1       0       8       1
       1       0       8       1       1       0       8       1       1       0
       8       1       1       0       8       1       1       0       8       1
       1       0       8       1       1       0       8       1       1       0
       8       1       1       0       8       1       1       0       8       1
       1       0       8       1       1       0       8       1       1       0
       8       1       1       0       8       1       1       0       8       1
       1       0       8       1       1       0       8       1       1       0
       8       1       1       0       8       1       1       0       8       1
       1       0       8       1       1       0       8       1       1       0
       8       1       1       0       8       1       1       0       8       1
       1       0       8       1       1       0       8       1       1       0
       8       1       1       0       8       1       1       0       8       1
       1       0       8       1       1       0       8       1       1       0
       8       1       1       0       8       1       1       0       8       1
       1       0       8       1       1       0       8       1       1       0
       8       1       1       0       8       1       1       0       8       1
       1       0       8       1       1       0       8       1       1       0
       8       1       1       0       8       1       1       0       8       1
       1       0       8       1       1       0       8       1       1       0
       8       1       1       0       8       1       1       0       8       1
       1       0       8       1       1       0       8       1       1       0
       8       1       1       0       8       1       1       0       8       1
       1       0       8       1       1       0       8       1       1       0
       8       1       1       0       8       1       1       0       8       1
       1       0       8       1       1       0       8       1       1       0
       8       1       1       0       8       1       1       0       8       1
       1       0       8       1       1       0       8       1       1       0
       8       1       1       0       8       1       1       0       8       1
       1       0       8       1       1       0       8       1       1       0
       8       1       1       0       8       1       1       0       8       1
       1       0       8       1       1       0       8       1       1       0
       8       1       1       0       8       1       1       0       8       1
       1       0       8       1       1       0       8       1       1       0
       8       1       1       0       8       1       1       0       8       1
       1       0       8       1       1       0       8       1       1       0
       8       1       1       0       8       1       1       0       8       1
       1       0       8       1       1       0       8       1       1       0
       8       1       1       0       8       1       1       0       8       1
       1       0       8       1       1       0       8       1       1       0
       8       1       1       0       8       1       1       0       8       1
       1       0       8       1       1       0       8       1       1       0
       8       1       1       0       8       1       1       0       8       1
       1       0       8       1       1       0       8       1       1       0
       8       1       1       0       8       1       1       0       8       1
       1       0       8       1       1       0       8       1       1       0
       8       1       1       0       8       1       1       0       8       1
       1       0       8       1       1       0       8       1       1       0
       8       1       1       0       8       1       1       0       8       1
       1       0       8       1       1       0       8       1       1       0
       8       1       1       0       8       1       1       0       8       1
       1       0       8       1       1       0       8       1       1       0
       8       1       1       0       8       1       1       0       8       1
       1       0       8       1       1       0       8       1       1       0
       8       1       1       0       8       1       1       0       8       1
       1       0       8       1       1       0       8       1       1       0
       8       1       1       0       8       1       1       0       8       1
       1       0       8       1       1       0       8       1       1       0
       8       1       1       0       8       1       1       0       8       1
       1       0       8       1       1       0       8       1       1       0
       8       1       1       0       8       1       1       0       8       1
       1       0       8       1       1       0       8       1       1       0
       8       1       1       0       8       1       1       0       8       1
       1       0       8       1       1       0       8       1       1       0
       8       1       1       0       8       1       1       0       8       1
       1       0       8       1       1       0       8       1       1       0
       8       1       1       0       8       1       1       0       8       1
       1       0       8       1       1       0       8       1       1       0
       8       1       1       0       8       1       1       0       8       1
       1       0       8       1       1       0       8       1       1       0
       8       1       1       0       8       1       1       0       8       1
       1       0       8       1       1       0       8       1       1       0
       8       1       1       0       8       1       1       0       8       1
       1       0       8       1       1       0       8       1       1       0
       8       1       1       0       8       1       1       0       8       1
       1       0       8       1       1       0       8       1       1       0
       8       1       1       0       8       1       1       0       8       1
       1       0       8       1       1       0       8       1       1       0
       8       1       1       0       8       1       1       0       8       1
       1       0       8       1       1       0       8       1       1       0
       8       1       1       0       8       1       1       0       8       1
       1       0       8       1       1       0       8       1       1       0
       8       1       1       0       8       1       1       0       8       1
       1       0       8       1       1       0       8       1       1       0
       8       1       1       0       8       1       1       0       8       1
       1       0       8       1       1       0       8       1       1       0
       8       1       1       0       8       1       1       0       8       1
       1       0       8       1       1       0       8       1       1       0
       8       1       1       0       8       1       1       0       8       1
       1       0       8       1       1       0       8       1       1       0
       8       1       1       0       8       1       1       0       8       1
       1       0       8       1       1       0       8       1       1       0
       8       1       1       0       8       1       1       0       8       1
       1       0       8       1       1       0       8       1       1       0
       8       1       1       0       8       1       1       0       8       1
       1       0       8       1       1       0       8       1       1       0
       8       1       1       0       8       1       1       0       8       1
       1       0       8       1       1       0       8       1       1       0
       8       1       1       0       8       1       1       0       8       1
       1       0       8       1       1       0       8       1       1       0
       8       1       1       0       8       1       1       0       8       1
       1       0       8       1       1       0       8       1       1       0
       8       1       1       0       8       1       1       0       8       1
       1       0       8       1       1       0       8       1       1       0
       8       1       1       0       8       1       1       0       8       1
       1       0       8       1       1       0       8       1       1       0
       8       1       1       0       8       1       1       0       8       1
       1       0       8       1       1       0       8       1       1       0
       8       1       1       0       8       1       1       0       8       1
       1       0       8       1       1       0       8       1       1       0
       8       1       1       0       8       1       1       0       8       1
       1       0       8       1       1       0       8       1       1       0
       8       1       1       0       8       1       1       0       8       1
       1       0       8       1       1       0       8       1       1       0
       8       1       1       0       8       1       1       0       8       1
       1       0       8       1       1       0       8       1       1       0
       8       1       1       0       8       1       1       0       8       1
       1       0       8       1       1       0       8       1       1       0
       8       1       1       0       8       1       1       0       8       1
       1       0       8       1       1       0       8       1       1       0
       8       1       1       0       8       1       1       0       8       1
       1       0       8       1       1       0       8       1       1       0
       8       1       1       0       8       1       1       0       8       1
       1       0       8       1       1       0       8       1       1       0
       8       1       1       0       8       1       1       0       8       1
       1       0       8       1       1       0       8       1       1       0
       8       1       1       0       8       1       1       0       8       1
       1       0       8       1       1       0       8       1       1       0
       8       1       1       0       8       1       1       0       8       1
       1       0       8       1       1       0       8       1       1       0
       8       1       1       0       8       1       1       0       8       1
       1       0       8       1       1       0       8       1       1       0
       8       1       1       0       8       1       1       0       8       1
       1       0       8       1       1       0       8       1       1       0
       8       1       1       0       8       1       1       0       8       1
       1       0       8       1       1       0       8       1       1       0
       8       1       1       0       8       1       1       0       8       1
       1       0       8       1       1       0       8       1       1       0
       8       1       1       0       8       1       1       0       8       1
       1       0       8       1       1       0       8       1       1       0
       8       1       1       0       8       1       1       0       8       1
       1       0       8       1       1       0       8       1       1       0
       8       1       1       0       8       1       1       0       8       1
       1       0       8       1       1       0       8       1       1       0
       8       1       1       0       8       1       1       0       8       1
       1       0       8       1       1       0       8       1       1       0
       8       1       1       0       8       1       1       0       8       1
       1       0       8       1       1       0       8       1       1       0
       8       1       1       0       8       1       1       0       8       1
       1       0       8       1       1       0       8       1       1       0
       8       1       1       0       8       1       1       0       8       1
       1       0       8       1       1       0       8       1       1       0
       8       1       1       0       8       1       1       0       8       1
       1       0       8       1       1       0       8       1       1       0
       8       1       1       0       8       1       1       0       8       1
       1       0       8       1       1       0       8       1       1       0
       8       1       1       0       8       1       1       0       8       1
       1       0       8       1       1       0       8       1       1       0
       8       1       1       0       8       1       1       0       8       1
       1       0       8       1       1       0       8       1       1       0
       8       1       1       0       8       1       1       0       8       1
       1       0       8       1       1       0       8       1       1       0
       8       1       1       0       8       1       1       0       8       1
       1       0       8       1       1       0       8       1       1       0
       8       1       1       0       8       1       1       0       8       1
       1       0       8       1       1       0       8       1       1       0
       8       1       1       0       8       1       1       0       8       1
       1       0       8       1       1       0       8       1       1       0
       8       1       1       0       8       1       1       0       8       1
       1       0       8       1       1       0       8       1       1       0
       8       1       1       0       8       1       1       0       8       1
       1       0       8       1       1       0       8       1       1       0
       8       1       1       0       8       1       1       0       8       1
       1       0       8       1       1       0       8       1       1       0
       8       1       1       0       8       1       1       0       8       1
       1       0       8       1       1       0       8       1       1       0
       8       1       1       0       8       1       1       0       8       1
       1       0       8       1       1       0       8       1       1       0
       8       1       1       0       8       1       1       0       8       1
       1       0       8       1       1       0       8       1       1       0
       8       1       1       0       8       1       1       0       8       1
       1       0       8       1       1       0       8       1       1       0
       8       1       1       0       8       1       1       0       8       1
       1       0       8       1       1       0       8       1       1       0
       8       1       1       0       8       1       1       0       8       1
       1       0       8       1       1       0       8       1       1       0
       8       1       1       0       8       1       1       0       8       1
       1       0       8       1       1       0       8       1       1       0
       8       1       1       0       8       1       1       0       8       1
       1       0       8       1       1       0       8       1       1       0
       8       1       1       0       8       1       1       0       8       1
       1       0       8       1       1       0       8       1       1       0
       8       1       1       0       8       1       1       0       8       1
       1       0       8       1       1       0       8       1       1       0
       8       1       1       0       8       1       1       0       8       1
       1       0       8       1       1       0       8       1       1       0
       8       1       1       0       8       1       1       0       8       1
       1       0       8       1       1       0       8       1       1       0
       8       1       1       0       8       1       1       0       8       1
       1       0       8       1       1       0       8       1       1       0
       8       1       1       0       8       1       1       0       8       1
       1       0       8       1       1       0       8       1       1       0
       8       1       1       0       8       1       1       0       8       1
       1       0       8       1       1       0       8       1       1       0
       8       1       1       0       8       1       1       0       8       1
       1       0       8       1       1       0       8       1       1       0
       8       1       1       0       8       1       1       0       8       1
       1       0       8       1       1       0       8       1       1       0
       8       1       1       0       8       1       1       0       8       1
       1       0       8       1       1       0       8       1       1       0
       8       1       1       0       8       1       1       0       8       1
       1       0       8       1       1       0       8       1       1       0
       8       1       1       0       8       1       1       0       8       1
       1       0       8       1       1       0       8       1       1       0
       8       1       1       0       8       1       1       0       8       1
       1       0       8       1       1       0       8       1       1       0
       8       1       1       0       8       1       1       0       8       1
       1       0       8       1       1       0       8       1       1       0
       8       1       1       0       8       1       1       0       8       1
       1       0       8       1       1       0       8       1       1       0
       8       1       1       0       8       1       1       0       8       1
       1       0       8       1       1       0       8       1       1       0
       8       1       1       0       8       1       1       0       8       1
       1       0       8       1       1       0       8       1       1       0
       8       1       1       0       8       1       1       0       8       1
       1       0       8       1       1       0       8       1       1       0
       8       1       1       0       8       1       1       0       8       1
       1       0       8       1       1       0       8       1       1       0
       8       1       1       0       8       1       1       0       8       1
       1       0       8       1       1       0       8       1       1       0
       8       1       1       0       8       1       1       0       8       1
       1       0       8       1       1       0       8       1       1       0
       8       1       1       0       8       1       1       0       8       1
       1       0       8       1       1       0       8       1       1       0
       8       1       1       0       8       1       1       0       8       1
       1       0       8       1       1       0       8       1       1       0
       8       1       1       0       8       1       1       0       8       1
       1       0       8       1       1       0       8       1       1       0
       8       1       1       0       8       1       1       0       8       1
       1       0       8       1       1       0       8       1       1       0
       8       1       1       0       8       1       1       0       8       1
       1       0       8       1       1       0       8       1       1       0
       8       1       1       0       8       1       1       0       8       1
       1       0       8       1       1       0       8       1       1       0
       8       1       1       0       8       1       1       0       8       1
       1       0       8       1       1       0       8       1       1       0
       8       1       1       0       8       1       1       0       8       1
       1       0       8       1       1       0       8       1       1       0
       8       1       1       0       8       1       1       0       8       1
       1       0       8       1       1       0       8       1       1       0
       8       1       1       0       8       1       1       0       8       1
       1       0       8       1       1       0       8       1       1       0
       8       1       1       0       8       1       1       0       8       1
       1       0       8       1       1       0       8       1       1       0
       8       1       1       0       8       1       1       0       8       1
       1       0       8       1       1       0       8       1       1       0
       8       1       1       0       8       1       1       0       8       1
       1       0       8       1       1       0       8       1       1       0
       8       1       1       0       8       1       1       0       8       1
       1       0       8       1       1       0       8       1       1       0
       8       1       1       0       8       1       1       0       8       1
       1       0       8       1       1       0       8       1       1       0
       8       1       1       0       8       1       1       0       8       1
       1       0       8       1       1       0       8       1       1       0
       8       1       1       0       8       1       1       0       8       1
       1       0       8       1       1       0       8       1       1       0
       8       1       1       0       8       1       1       0       8       1
       1       0       8       1       1       0       8       1       1       0
       8       1       1       0       8       1       1       0       8       1
       1       0       8       1       1       0       8       1       1       0
       8       1       1       0       8       1       1       0       8       1
       1       0       8       1       1       0       8       1       1       0
       8       1       1       0       8       1       1       0       8       1
       1       0       8       1       1       0       8       1       1       0
       8       1       1       0       8       1       1       0       8       1
       1       0       8       1       1       0       8       1       1       0
       8       1       1       0       8       1       1       0       8       1
       1       0       8       1       1       0       8       1       1       0
       8       1       1       0       8       1       1       0       8       1
       1       0       8       1       1       0       8       1       1       0
       8       1       1       0       8       1       1       0       8       1
       1       0       8       1       1       0       8       1       1       0
       8       1       1       0       8       1       1       0       8       1
       1       0       8       1       1       0       8       1       1       0
       8       1       1       0       8       1       1       0       8       1
       1       0       8       1       1       0       8       1       1       0
       8       1       1       0       8       1       1       0       8       1
       1       0       8       1       1       0       8       1       1       0
       8       1       1       0       8       1       1       0       8       1
       1       0       8       1       1       0       8       1       1       0
       8       1       1       0       8       1       1       0       8       1
       1       0       8       1       1       0       8       1       1       0
       8       1       1       0       8       1       1       0       8       1
       1       0       8       1       1       0       8       1       1       0
       8       1       1       0       8       1       1       0       8       1
       1       0       8       1       1       0       8       1       1       0
       8       1       1       0       8       1       1       0       8       1
       1       0       8       1       1       0       8       1       1       0
       8       1       1       0       8       1       1       0       8       1
       1       0       8       1       1       0       8       1       1       0
       8       1       1       0       8       1       1       0       8       1
       1       0       8       1       1       0       8       1       1       0
       8       1       1       0       8       1       1       0       8       1
       1       0       8       1       1       0       8       1       1       0
       8       1       1       0       8       1       1       0       8       1
       1       0       8       1       1       0       8       1       1       0
       8       1       1       0       8       1       1       0       8       1
       1       0       8       1       1       0       8       1       1       0
       8       1       1       0       8       1       1       0       8       1
       1       0       8       1       1       0       8       1       1       0
       8       1       1       0       8       1       1       0       8       1
       1       0       8       1       1       0       8       1       1       0
       8       1       1       0       8       1       1       0       8       1
       1       0       8       1       1       0       8       1       1       0
       8       1       1       0       8       1       1       0       8       1
       1       0       8       1       1       0       8       1       1       0
       8       1       1       0       8       1       1       0       8       1
       1       0       8       1       1       0       8       1       1       0
       8       1       1       0       8       1       1       0       8       1
       1       0       8       1       1       0       8       1       1       0
       8       1       1       0       8       1       1       0       8       1
       1       0       8       1       1       0       8       1       1       0
       8       1       1       0       8       1       1       0       8       1
       1       0       8       1       1       0       8       1       1       0
       8       1       1       0       8       1       1       0       8       1
       1       0       8       1       1       0       8       1       1       0
       8       1       1       0       8       1       1       0       8       1
       1       0       8       1       1       0       8       1       1       0
       8       1       1       0       8       1       1       0       8       1
       1       0       8       1       1       0       8       1       1       0
       8       1       1       0       8       1       1       0       8       1
       1       0       8       1       1       0       8       1       1       0
       8       1       1       0       8       1       1       0       8       1
       1       0       8       1       1       0       8       1       1       0
       8       1       1       0       8       1       1       0       8       1
       1       0       8       1       1       0       8       1       1       0
       8       1       1       0       8       1       1       0       8       1
       1       0       8       1       1       0       8       1       1       0
       8       1       1       0       8       1       1       0       8       1
       1       0       8       1       1       0       8       1       1       0
       8       1       1       0       8       1       1       0       8       1
       1       0       8       1       1       0       8       1       1       0
       8       1       1       0       8       1       1       0       8       1
       1       0       8       1       1       0       8       1       1       0
       8       1       1       0       8       1       1       0       8       1
       1       0       8       1       1       0       8       1       1       0
       8       1       1       0       8       1       1       0       8       1
       1       0       8       1       1       0       8       1       1       0
       8       1       1       0       8       1       1       0       8       1
       1       0       8       1       1       0       8       1       1       0
       8       1       1       0       8       1       1       0       8       1
       1       0       8       1       1       0       8       1       1       0
       8       1       1       0       8       1       1       0       8       1
       1       0       8       1       1       0       8       1       1       0
       8       1       1       0       8       1       1       0       8       1
       1       0       8       1       1       0       8       1       1       0
       8       1       1       0       8       1       1       0       8       1
       1       0       8       1       1       0       8       1       1       0
       8       1       1       0       8       1       1       0       8       1
       1       0       8       1       1       0       8       1       1       0
       8       1       1       0       8       1       1       0       8       1
       1       0       8       1       1       0       8       1       1       0
       8       1       1       0       8       1       1       0       8       1
       1       0       8       1       1       0       8       1       1       0
       8       1       1       0       8       1       1       0       8       1
       1       0       8       1       1       0       8       1       1       0
       8       1       1       0       8       1       1       0       8       1
       1       0       8       1       1       0       8       1       1       0
       8       1       1       0       8       1       1       0       8       1
       1       0       8       1       1       0       8       1       1       0
       8       1       1       0       8       1       1       0       8       1
       1       0       8       1       1       0       8       1       1       0
       8       1       1       0       8       1       1       0       8       1
       1       0       8       1       1       0       8       1       1       0
       8       1       1       0       8       1       1       0       8       1
       1       0       8       1       1       0       8       1       1       0
       8       1       1       0       8       1       1       0       8       1
       1       0       8       1       1       0       8       1       1       0
       8       1       1       0       8       1       1       0       8       1
       1       0       8       1       1       0       8       1       1       0
       8       1       1       0       8       1       1       0       8       1
       1       0       8       1       1       0       8       1       1       0
       8       1       1       0       8       1       1       0       8       1
       1       0       8       1       1       0       8       1       1       0
       8       1       1       0       8       1       1       0       8       1
       1       0       8       1       1       0       8       1       1       0
       8       1       1       0       8       1       1       0       8       1
       1       0       8       1       1       0       8       1       1       0
       8       1       1       0       8       1       1       0       8       1
       1       0       8       1       1       0       8       1       1       0
       8       1       1       0       8       1       1       0       8       1
       1       0       8       1       1       0       8       1       1       0
       8       1       1       0       8       1       1       0       8       1
       1       0       8       1       1       0       8       1       1       0
       8       1       1       0       8       1       1       0       8       1
       1       0       8       1       1       0       8       1       1       0
       8       1       1       0       8       1       1       0       8       1
       1       0       8       1       1       0       8       1       1       0
       8       1       1       0       8       1       1       0       8       1
       1       0       8       1       1       0       8       1       1       0
       8       1       1       0       8       1       1       0       8       1
       1       0       8       1       1       0       8       1       1       0
       8       1       1       0       8       1       1       0       8       1
       1       0       8       1       1       0       8       1       1       0
       8       1       1       0       8       1       1       0       8       1
       1       0       8       1       1       0       8       1       1       0
       8       1       1       0       8       1       1       0       8       1
       1       0       8       1       1       0       8       1       1       0
       8       1       1       0       8       1       1       0       8       1
       1       0       8       1       1       0       8       1       1       0
       8       1       1       0       8       1       1       0       8       1
       1       0       8       1       1       0       8       1       1       0
       8       1       1       0       8       1       1       0       8       1
       1       0       8       1       1       0       8       1       1       0
       8       1       1       0       8       1       1       0       8       1
       1       0       8       1       1       0       8       1       1       0
       8       1       1       0       8       1       1       0       8       1
       1       0       8       1       1       0       8       1       1       0
       8       1       1       0       8       1       1       0       8       1
       1       0       8       1       1       0       8       1       1       0
       8       1       1       0       8       1       1       0       8       1
       1       0       8       1       1       0       8       1       1       0
       8       1       1       0       8       1       1       0       8       1
       1       0       8       1       1       0       8       1       1       0
       8       1       1       0       8       1       1       0       8       1
       1       0       8       1       1       0       8       1       1       0
       8       1       1       0       8       1       1       0       8       1
       1       0       8       1       1       0       8       1       1       0
       8       1       1       0       8       1       1       0       8       1
       1       0       8       1       1       0       8       1       1       0
       8       1       1       0       8       1       1       0       8       1
       1       0       8       1       1       0       8       1       1       0
       8       1       1       0       8       1       1       0       8       1
       1       0       8       1       1       0       8       1       1       0
       8       1       1       0       8       1       1       0       8       1
       1       0       8       1       1       0       8       1       1       0
       8       1       1       0       8       1       1       0       8       1
       1       0       8       1       1       0       8       1       1       0
       8       1       1       0       8       1       1       0       8       1
       1       0       8       1       1       0       8       1       1       0
       8       1       1       0       8       1       1       0       8       1
       1       0       8       1       1       0       8       1       1       0
       8       1       1       0       8       1       1       0       8       1
       1       0       8       1       1       0       8       1       1       0
       8       1       1       0       8       1       1       0       8       1
       1       0       8       1       1       0       8       1       1       0
       8       1       1       0       8       1       1       0       8       1
       1       0       8       1       1       0       8       1       1       0
       8       1       1       0       8       1       1       0       8       1
       1       0       8       1       1       0       8       1       1       0
       8       1       1       0       8       1       1       0       8       1
       1       0       8       1       1       0       8       1       1       0
       8       1       1       0       8       1       1       0       8       1
       1       0       8       1       1       0       8       1       1       0
       8       1       1       0       8       1       1       0       8       1
       1       0       8       1       1       0       8       1       1       0
       8       1       1       0       8       1       1       0       8       1
       1       0       8       1       1       0       8       1       1       0
       8       1       1       0       8       1       1       0       8       1
       1       0       8       1       1       0       8       1       1       0
       8       1       1       0       8       1       1       0       8       1
       1       0       8       1       1       0       8       1       1       0
       8       1       1       0       8       1       1       0       8       1
       1       0       8       1       1       0       8       1       1       0
       8       1       1       0       8       1       1       0       8       1
       1       0       8       1       1       0       8       1       1       0
       8       1       1       0       8       1       1       0       8       1
       1       0       8       1       1       0       8       1       1       0
       8       1       1       0       8       1       1       0       8       1
       1       0       8       1       1       0       8       1       1       0
       8       1       1       0       8       1       1       0       8       1
       1       0       8       1       1       0       8       1       1       0
       8       1       1       0       8       1       1       0       8       1
       1       0       8       1       1       0       8       1       1       0
       8       1       1       0       8       1       1       0       8       1
       1       0       8       1       1       0       8       1       1       0
       8       1       1       0       8       1       1       0       8       1
       1       0       8       1       1       0       8       1       1       0
       8       1       1       0       8       1       1       0       8       1
       1       0       8       1       1       0       8       1       1       0
       8       1       1       0       8       1       1       0       8       1
       1       0       8       1       1       0       8       1       1       0
       8       1       1       0       8       1       1       0       8       1
       1       0       8       1       1       0       8       1       1       0
       8       1       1       0       8       1       1       0       8       1
       1       0       8       1       1       0       8       1       1       0
       8       1       1       0       8       1       1       0       8       1
       1       0       8       1       1       0       8       1       1       0
       8       1       1       0       8       1       1       0       8       1
       1       0       8       1       1       0       8       1       1       0
       8       1       1       0       8       1       1       0       8       1
       1       0       8       1       1       0       8       1       1       0
       8       1       1       0       8       1       1       0       8       1
       1       0       8       1       1       0       8       1       1       0
       8       1       1       0       8       1       1       0       8       1
       1       0       8       1       1       0       8       1       1       0
       8       1       1       0       8       1       1       0       8       1
       1       0       8       1       1       0       8       1       1       0
       8       1       1       0       8       1       1       0       8       1
       1       0       8       1       1       0       8       1       1       0
       8       1       1       0       8       1       1       0       8       1
       1       0       8       1       1       0       8       1       1       0
       8       1       1       0       8       1       1       0       8       1
       1       0       8       1       1       0       8       1       1       0
       8       1       1       0       8       1       1       0       8       1
       1       0       8       1       1       0       8       1       1       0
       8       1       1       0       8       1       1       0       8       1
       1       0       8       1       1       0       8       1       1       0
       8       1       1       0       8       1       1       0       8       1
       1       0       8       1       1       0       8       1       1       0
       8       1       1       0       8       1       1       0       8       1
       1       0       8       1       1       0       8       1       1       0
       8       1       1       0       8       1       1       0       8       1
       1       0       8       1       1       0       8       1       1       0
       8       1       1       0       8       1       1       0       8       1
       1       0       8       1       1       0       8       1       1       0
       8       1       1       0       8       1       1       0       8       1
       1       0       8       1       1       0       8       1       1       0
       8       1       1       0       8       1       1       0       8       1
       1       0       8       1       1       0       8       1       1       0
       8       1       1       0       8       1       1       0       8       1
       1       0       8       1       1       0       8       1       1       0
       8       1       1       0       8       1       1       0       8       1
       1       0       8       1       1       0       8       1       1       0
       8       1       1       0       8       1       1       0       8       1
       1       0       8       1       1       0       8       1       1       0
       8       1       1       0       8       1       1       0       8       1
       1       0       8       1       1       0       8       1       1       0
       8       1       1       0       8       1       1       0       8       1
       1       0       8       1       1       0       8       1       1       0
       8       1       1       0       8       1       1       0       8       1
       1       0       8       1       1       0       8       1       1       0
       8       1       1       0       8       1       1       0       8       1
       1       0       8       1       1       0       8       1       1       0
       8       1       1       0       8       1       1       0       8       1
       1       0       8       1       1       0       8       1       1       0
       8       1       1       0       8       1       1       0       8       1
       1       0       8       1       1       0       8       1       1       0
       8       1       1       0       8       1       1       0       8       1
       1       0       8       1       1       0       8       1       1       0
       8       1       1       0       8       1       1       0       8       1
       1       0       8       1       1       0       8       1       1       0
       8       1       1       0       8       1       1       0       8       1
       1       0       8       1       1       0       8       1       1       0
       8       1       1       0       8       1       1       0       8       1
       1       0       8       1       1       0       8       1       1       0
       8       1       1       0       8       1       1       0       8       1
       1       0       8       1       1       0       8       1       1       0
       8       1       1       0       8       1       1       0       8       1
       1       0       8       1       1       0       8       1       1       0
       8       1       1       0       8       1       1       0       8       1
       1       0       8       1       1       0       8       1       1       0
       8       1       1       0       8       1       1       0       8       1
       1       0       8       1       1       0       8       1       1       0
       8       1       1       0       8       1       1       0       8       1
       1       0       8       1       1       0       8       1       1       0
       8       1       1       0       8       1       1       0       8       1
       1       0       8       1       1       0       8       1       1       0
       8       1       1       0       8       1       1       0       8       1
       1       0       8       1       1       0       8       1       1       0
       8       1       1       0       8       1       1       0       8       1
       1       0       8       1       1       0       8       1       1       0
       8       1       1       0       8       1       1       0       8       1
       1       0       8       1       1       0       8       1       1       0
       8       1       1       0       8       1       1       0       8       1
       1       0       8       1       1       0       8       1       1       0
       8       1       1       0       8       1       1       0       8       1
       1       0       8       1       1       0       8       1       1       0
       8       1       1       0       8       1       1       0       8       1
       1       0       8       1       1       0       8       1       1       0
       8       1       1       0       8       1       1       0       8       1
       1       0       8       1       1       0       8       1       1       0
       8       1       1       0       8       1       1       0       8       1
       1       0       8       1       1       0       8       1       1       0
       8       1       1       0       8       1       1       0       8       1
       1       0       8       1       1       0       8       1       1       0
       8       1       1       0       8       1       1       0       8       1
       1       0       8       1       1       0       8       1       1       0
       8       1       1       0       8       1       1       0       8       1
       1       0       8       1       1       0       8       1       1       0
       8       1       1       0       8       1       1       0       8       1
       1       0       8       1       1       0       8       1       1       0
       8       1       1       0       8       1       1       0       8       1
       1       0       8       1       1       0       8       1       1       0
       8       1       1       0       8       1       1       0       8       1
       1       0       8       1       1       0       8       1       1       0
       8       1       1       0       8       1       1       0       8       1
       1       0       8       1       1       0       8       1       1       0
       8       1       1       0       8       1       1       0       8       1
       1       0       8       1       1       0       8       1       1       0
       8       1       1       0       8       1       1       0       8       1
       1       0       8       1       1       0       8       1       1       0
       8       1       1       0       8       1       1       0       8       1
       1       0       8       1       1       0       8       1       1       0
       8       1       1       0       8       1       1       0       8       1
       1       0       8       1       1       0       8       1       1       0
       8       1       1       0       8       1       1       0       8       1
       1       0       8       1       1       0       8       1       1       0
       8       1       1       0       8       1       1       0       8       1
       1       0       8       1       1       0       8       1       1       0
       8       1       1       0       8       1       1       0       8       1
       1       0       8       1       1       0       8       1       1       0
       8       1       1       0       8       1       1       0       8       1
       1       0       8       1       1       0       8       1       1       0
       8       1       1       0       8       1       1       0       8       1
       1       0       8       1       1       0       8       1       1       0
       8       1       1       0       8       1       1       0       8       1
       1       0       8       1       1       0       8       1       1       0
       8       1       1       0       8       1       1       0       8       1
       1       0       8       1       1       0       8       1       1       0
       8       1       1       0       8       1       1       0       8       1
       1       0       8       1       1       0       8       1       1       0
       8       1       1       0       8       1       1       0       8       1
       1       0       8       1       1       0       8       1       1       0
       8       1       1       0       8       1       1       0       8       1
       1       0       8       1       1       0       8       1       1       0
       8       1       1       0       8       1       1       0       8       1
       1       0       8       1       1       0       8       1       1       0
       8       1       1       0       8       1       1       0       8       1
       1       0       8       1       1       0       8       1       1       0
       8       1       1       0       8       1       1       0       8       1
       1       0       8       1       1       0       8       1       1       0
       8       1       1       0       8       1       1       0       8       1
       1       0       8       1       1       0       8       1       1       0
       8       1       1       0       8       1       1       0       8       1
       1       0       8       1       1       0       8       1       1       0
       8       1       1       0       8       1       1       0       8       1
       1       0       8       1       1       0       8       1       1       0
       8       1       1       0       8       1       1       0       8       1
       1       0       8       1       1       0       8       1       1       0
       8       1       1       0       8       1       1       0       8       1
       1       0       8       1       1       0       8       1       1       0
       8       1       1       0       8       1       1       0       8       1
       1       0       8       1       1       0       8       1       1       0
       8       1       1       0       8       1       1       0       8       1
       1       0       8       1       1       0       8       1       1       0
       8       1       1       0       8       1       1       0       8       1
       1       0       8       1       1       0       8       1       1       0
       8       1       1       0       8       1       1       0       8       1
       1       0       8       1       1       0       8       1       1       0
       8       1       1       0       8       1       1       0       8       1
       1       0       8       1       1       0       8       1       1       0
       8       1       1       0       8       1       1       0       8       1
       1       0       8       1       1       0       8       1       1       0
       8       1       1       0       8       1       1       0       8       1
       1       0       8       1       1       0       8       1       1       0
       8       1       1       0       8       1       1       0       8       1
       1       0       8       1       1       0       8       1       1       0
       8       1       1       0       8       1       1       0       8       1
       1       0       8       1       1       0       8       1       1       0
       8       1       1       0       8       1       1       0       8       1
       1       0       8       1       1       0       8       1       1       0
       8       1       1       0       8       1       1       0       8       1
       1       0       8       1       1       0       8       1       1       0
       8       1       1       0       8       1       1       0       8       1
       1       0       8       1       1       0       8       1       1       0
       8       1       1       0       8       1       1       0       8       1
       1       0       8       1       1       0       8       1       1       0
       8       1       1       0       8       1       1       0       8       1
       1       0       8       1       1       0       8       1       1       0
       8       1       1       0       8       1       1       0       8       1
       1       0       8       1       1       0       8       1       1       0
       8       1       1       0       8       1       1       0       8       1
       1       0       8       1       1       0       8       1       1       0
       8       1       1       0       8       1       1       0       8       1
       1       0       8       1       1       0       8       1       1       0
       8       1       1       0       8       1       1       0       8       1
       1       0       8       1       1       0       8       1       1       0
       8       1       1       0       8       1       1       0       8       1
       1       0       8       1       1       0       8       1       1       0
       8       1       1       0       8       1       1       0       8       1
       1       0       8       1       1       0       8       1       1       0
       8       1       1       0       8       1       1       0       8       1
       1       0       8       1       1       0       8       1       1       0
       8       1       1       0       8       1       1       0       8       1
       1       0       8       1       1       0       8       1       1       0
       8       1       1       0       8       1       1       0       8       1
       1       0       8       1       1       0       8       1       1       0
       8       1       1       0       8       1       1       0       8       1
       1       0       8       1       1       0       8       1       1       0
       8       1       1       0       8       1       1       0       8       1
       1       0       8       1       1       0       8       1       1       0
       8       1       1       0       8       1       1       0       8       1
       1       0       8       1       1       0       8       1       1       0
       8       1       1       0       8       1       1       0       8       1
       1       0       8       1       1       0       8       1       1       0
       8       1       1       0       8       1       1       0       8       1
       1       0       8       1       1       0       8       1       1       0
       8       1       1       0       8       1       1       0       8       1
       1       0       8       1       1       0       8       1       1       0
       8       1       1       0       8       1       1       0       8       1
       1       0       8       1       1       0       8       1       1       0
       8       1       1       0       8       1       1       0       8       1
       1       0       8       1       1       0       8       1       1       0
       8       1       1       0       8       1       1       0       8       1
       1       0       8       1       1       0       8       1       1       0
       8       1       1       0       8       1       1       0       8       1
       1       0       8       1       1       0       8       1       1       0
       8       1       1       0       8       1       1       0       8       1
       1       0       8       1       1       0       8       1       1       0
       8       1       1       0       8       1       1       0       8       1
       1       0       8       1       1       0       8       1       1       0
       8       1       1       0       8       1       1       0       8       1
       1       0       8       1       1       0       8       1       1       0
       8       1       1       0       8       1       1       0       8       1
       1       0       8       1       1       0       8       1       1       0
       8       1       1       0       8       1       1       0       8       1
       1       0       8       1       1       0       8       1       1       0
       8       1       1       0       8       1       1       0       8       1
       1       0       8       1       1       0       8       1       1       0
       8       1       1       0       8       1       1       0       8       1
       1       0       8       1       1       0       8       1       1       0
       8       1       1       0       8       1       1       0       8       1
       1       0       8       1       1       0       8       1       1       0
       8       1       1       0       8       1       1       0       8       1
       1       0       8       1       1       0       8       1       1       0
       8       1       1       0       8       1       1       0       8       1
       1       0       8       1       1       0       8       1       1       0
       8       1       1       0       8       1       1       0       8       1
       1       0       8       1       1       0       8       1       1       0
       8       1       1       0       8       1       1       0       8       1
       1       0       8       1       1       0       8       1       1       0
       8       1       1       0       8       1       1       0       8       1
       1       0       8       1       1       0       8       1       1       0
       8       1       1       0       8       1       1       0       8       1
       1       0       8       1       1       0       8       1       1       0
       8       1       1       0       8       1       1       0       8       1
       1       0       8       1       1       0       8       1       1       0
       8       1       1       0       8       1       1       0       8       1
       1       0       8       1       1       0       8       1       1       0
       8       1       1       0       8       1       1       0       8       1
       1       0       8       1       1       0       8       1       1       0
       8       1       1       0       8       1       1       0       8       1
       1       0       8       1       1       0       8       1       1       0
       8       1       1       0       8       1       1       0       8       1
       1       0       8       1       1       0       8       1       1       0
       8       1       1       0       8       1       1       0       8       1
       1       0       8       1       1       0       8       1       1       0
       8       1       1       0       8       1       1       0       8       1
       1       0       8       1       1       0       8       1       1       0
       8       1       1       0       8       1       1       0       8       1
       1       0       8       1       1       0       8       1       1       0
       8       1       1       0       8       1       1       0       8       1
       1       0       8       1       1       0       8       1       1       0
       8       1       1       0       8       1       1       0       8       1
       1       0       8       1       1       0       8       1       1       0
       8       1       1       0       8       1       1       0       8       1
       1       0       8       1       1       0       8       1       1       0
       8       1       1       0       8       1       1       0       8       1
       1       0       8       1       1       0       8       1       1       0
       8       1       1       0       8       1       1       0       8       1
       1       0       8       1       1       0       8       1       1       0
       8       1       1       0       8       1       1       0       8       1
       1       0       8       1       1       0       8       1       1       0
       8       1       1       0       8       1       1       0       8       1
       1       0       8       1       1       0       8       1       1       0
       8       1       1       0       8       1       1       0       8       1
       1       0       8       1       1       0       8       1       1       0
       8       1       1       0       8       1       1       0       8       1
       1       0       8       1       1       0       8       1       1       0
       8       1       1       0       8       1       1       0       8       1
       1       0       8       1       1       0       8       1       1       0
       8       1       1       0       8       1       1       0       8       1
       1       0       8       1       1       0       8       1       1       0
       8       1       1       0       8       1       1       0       8       1
       1       0       8       1       1       0       8       1       1       0
       8       1       1       0       8       1       1       0       8       1
       1       0       8       1       1       0       8       1       1       0
       8       1       1       0       8       1       1       0       8       1
       1       0       8       1       1       0       8       1       1       0
       8       1       1       0       8       1       1       0       8       1
       1       0       8       1       1       0       8       1       1       0
       8       1       1       0       8       1       1       0       8       1
       1       0       8       1       1       0       8       1       1       0
       8       1       1       0       8       1       1       0       8       1
       1       0       8       1       1       0       8       1       1       0
       8       1       1       0       8       1       1       0       8       1
       1       0       8       1       1       0       8       1       1       0
       8       1       1       0       8       1       1       0       8       1
       1       0       8       1       1       0       8       1       1       0
       8       1       1       0       8       1       1       0       8       1
       1       0       8       1       1       0       8       1       1       0
       8       1       1       0       8       1       1       0       8       1
       1       0       8       1       1       0       8       1       1       0
       8       1       1       0       8       1       1       0       8       1
       1       0       8       1       1       0       8       1       1       0
       8       1       1       0       8       1       1       0       8       1
       1       0       8       1       1       0       8       1       1       0
       8       1       1       0       8       1       1       0       8       1
       1       0       8       1       1       0       8       1       1       0
       8       1       1       0       8       1       1       0       8       1
       1       0       8       1       1       0       8       1       1       0
       8       1       1       0       8       1       1       0       8       1
       1       0       8       1       1       0       8       1       1       0
       8       1       1       0       8       1       1       0       8       1
       1       0       8       1       1       0       8       1       1       0
       8       1       1       0       8       1       1       0       8       1
       1       0       8       1       1       0       8       1       1       0
       8       1       1       0       8       1       1       0       8       1
       1       0       8       1       1       0       8       1       1       0
       8       1       1       0       8       1       1       0       8       1
       1       0       8       1       1       0       8       1       1       0
       8       1       1       0       8       1       1       0       8       1
       1       0       8       1       1       0       8       1       1       0
       8       1       1       0       8       1       1       0       8       1
       1       0       8       1       1       0       8       1       1       0
       8       1       1       0       8       1       1       0       8       1
       1       0       8       1       1       0       8       1       1       0
       8       1       1       0       8       1       1       0       8       1
       1       0       8       1       1       0       8       1       1       0
       8       1       1       0       8       1       1       0       8       1
       1       0       8       1       1       0       8       1       1       0
       8       1       1       0       8       1       1       0       8       1
       1       0       8       1       1       0       8       1       1       0
       8       1       1       0       8       1       1       0       8       1
       1       0       8       1       1       0       8       1       1       0
       8       1       1       0       8       1       1       0       8       1
       1       0       8       1       1       0       8       1       1       0
       8       1       1       0       8       1       1       0       8       1
       1       0       8       1       1       0       8       1       1       0
       8       1       1       0       8       1       1       0       8       1
       1       0       8       1       1       0       8       1       1       0
       8       1       1       0       8       1       1       0       8       1
       1       0       8       1       1       0       8       1       1       0
       8       1       1       0       8       1       1       0       8       1
       1       0       8       1       1       0       8       1       1       0
       8       1       1       0       8       1       1       0       8       1
       1       0       8       1       1       0       8       1       1       0
       8       1       1       0       8       1       1       0       8       1
       1       0       8       1       1       0       8       1       1       0
       8       1       1       0       8       1       1       0       8       1
       1       0       8       1       1       0       8       1       1       0
       8       1       1       0       8       1       1       0       8       1
       1       0       8       1       1       0       8       1       1       0
       8       1       1       0       8       1       1       0       8       1
       1       0       8       1       1       0       8       1       1       0
       8       1       1       0       8       1       1       0       8       1
       1       0       8       1       1       0       8       1       1       0
       8       1       1       0       8       1       1       0       8       1
       1       0       8       1       1       0       8       1       1       0
       8       1       1       0       8       1       1       0       8       1
       1       0       8       1       1       0       8       1       1       0
       8       1       1       0       8       1       1       0       8       1
       1       0       8       1       1       0       8       1       1       0
       8       1       1       0       8       1       1       0       8       1
       1       0       8       1       1       0       8       1       1       0
       8       1       1       0       8       1       1       0       8       1
       1       0       8       1       1       0       8       1       1       0
       8       1       1       0       8       1       1       0       8       1
       1       0       8       1       1       0       8       1       1       0
       8       1       1       0       8       1       1       0       8       1
       1       0       8       1       1       0       8       1       1       0
       8       1       1       0       8       1       1       0       8       1
       1       0       8       1       1       0       8       1       1       0
       8       1       1       0       8       1       1       0       8       1
       1       0       8       1       1       0       8       1       1       0
       8       1       1       0       8       1       1       0       8       1
       1       0       8       1       1       0       8       1       1       0
       8       1       1       0       8       1       1       0       8       1
       1       0       8       1       1       0       8       1       1       0
       8       1       1       0       8       1       1       0       8       1
       1       0       8       1       1       0       8       1       1       0
       8       1       1       0       8       1       1       0       8       1
       1       0       8       1       1       0       8       1       1       0
       8       1       1       0       8       1       1       0       8       1
       1       0       8       1       1       0       8       1       1       0
       8       1       1       0       8       1       1       0       8       1
       1       0       8       1       1       0       8       1       1       0
       8       1       1       0       8       1       1       0       8       1
       1       0       8       1       1       0       8       1       1       0
       8       1       1       0       8       1       1       0       8       1
       1       0       8       1       1       0       8       1       1       0
       8       1       1       0       8       1       1       0       8       1
       1       0       8       1       1       0       8       1       1       0
       8       1       1       0       8       1       1       0       8       1
       1       0       8       1       1       0       8       1       1       0
       8       1       1       0       8       1       1       0       8       1
       1       0       8       1       1       0       8       1       1       0
       8       1       1       0       8       1       1       0       8       1
       1       0       8       1       1       0       8       1       1       0
       8       1       1       0       8       1       1       0       8       1
       1       0       8       1       1       0       8       1       1       0
       8       1       1       0       8       1       1       0       8       1
       1       0       8       1       1       0       8       1       1       0
       8       1       1       0       8       1       1       0       8       1
       1       0       8       1       1       0       8       1       1       0
       8       1       1       0       8       1       1       0       8       1
       1       0       8       1       1       0       8       1       1       0
       8       1       1       0       8       1       1       0       8       1
       1       0       8       1       1       0       8       1       1       0
       8       1       1       0       8       1       1       0       8       1
       1       0       8       1       1       0       8       1       1       0
       8       1       1       0       8       1       1       0       8       1
       1       0       8       1       1       0       8       1       1       0
       8       1       1       0       8       1       1       0       8       1
       1       0       8       1       1       0       8       1       1       0
       8       1       1       0       8       1       1       0       8       1
       1       0       8       1       1       0       8       1       1       0
       8       1       1       0       8       1       1       0       8       1
       1       0       8       1       1       0       8       1       1       0
       8       1       1       0       8       1       1       0       8       1
       1       0       8       1       1       0       8       1       1       0
       8       1       1       0       8       1       1       0       8       1
       1       0       8       1       1       0       8       1       1       0
       8       1       1       0       8       1       1       0       8       1
       1       0       8       1       1       0       8       1       1       0
       8       1       1       0       8       1       1       0       8       1
       1       0       8       1       1       0       8       1       1       0
       8       1       1       0       8       1       1       0       8       1
       1       0       8       1       1       0       8       1       1       0
       8       1       1       0       8       1       1       0       8       1
       1       0       8       1       1       0       8       1       1       0
       8       1       1       0       8       1       1       0       8       1
       1       0       8       1       1       0       8       1       1       0
       8       1       1       0       8       1       1       0       8       1
       1       0       8       1       1       0       8       1       1       0
       8       1       1       0       8       1       1       0       8       1
       1       0       8       1       1       0       8       1       1       0
       8       1       1       0       8       1       1       0       8       1
       1       0       8       1       1       0       8       1       1       0
       8       1       1       0       8       1       1       0       8       1
       1       0       8       1       1       0       8       1       1       0
       8       1       1       0       8       1       1       0       8       1
       1       0       8       1       1       0       8       1       1       0
       8       1       1       0       8       1       1       0       8       1
       1       0       8       1       1       0       8       1       1       0
       8       1       1       0       8       1       1       0       8       1
       1       0       8       1       1       0       8       1       1       0
       8       1       1       0       8       1       1       0       8       1
       1       0       8       1       1       0       8       1       1       0
       8       1       1       0       8       1       1       0       8       1
       1       0       8       1       1       0       8       1       1       0
       8       1       1       0       8       1       1       0       8       1
       1       0       8       1       1       0       8       1       1       0
       8       1       1       0       8       1       1       0       8       1
       1       0       8       1       1       0       8       1       1       0
       8       1       1       0       8       1       1       0       8       1
       1       0       8       1       1       0       8       1       1       0
       8       1       1       0       8       1       1       0       8       1
       1       0       8       1       1       0       8       1       1       0
       8       1       1       0       8       1       1       0       8       1
       1       0       8       1       1       0       8       1       1       0
       8       1       1       0       8       1       1       0       8       1
       1       0       8       1       1       0       8       1       1       0
       8       1       1       0       8       1       1       0       8       1
       1       0       8       1       1       0       8       1       1       0
       8       1       1       0       8       1       1       0       8       1
       1       0       8       1       1       0       8       1       1       0
       8       1       1       0       8       1       1       0       8       1
       1       0       8       1       1       0       8       1       1       0
       8       1       1       0       8       1       1       0       8       1
       1       0       8       1       1       0       8       1       1       0
       8       1       1       0       8       1       1       0       8       1
       1       0       8       1       1       0       8       1       1       0
       8       1       1       0       8       1       1       0       8       1
       1       0       8       1       1       0       8       1       1       0
       8       1       1       0       8       1       1       0       8       1
       1       0       8       1       1       0       8       1       1       0
       8       1       1       0       8       1       1       0       8       1
       1       0       8       1       1       0       8       1       1       0
       8       1       1       0       8       1       1       0       8       1
       1       0       8       1       1       0       8       1       1       0
       8       1       1       0       8       1       1       0       8       1
       1       0       8       1       1       0       8       1       1       0
       8       1       1       0       8       1       1       0       8       1
       1       0       8       1       1       0       8       1       1       0
       8       1       1       0       8       1       1       0       8       1
       1       0       8       1       1       0       8       1       1       0
       8       1       1       0       8       1       1       0       8       1
       1       0       8       1       1       0       8       1       1       0
       8       1       1       0       8       1       1       0       8       1
       1       0       8       1       1       0       8       1       1       0
       8       1       1       0       8       1       1       0       8       1
       1       0       8       1       1       0       8       1       1       0
       8       1       1       0       8       1       1       0       8       1
       1       0       8       1       1       0       8       1       1       0
       8       1       1       0       8       1       1       0       8       1
       1       0       8       1       1       0       8       1       1       0
       8       1       1       0       8       1       1       0       8       1
       1       0       8       1       1       0       8       1       1       0
       8       1       1       0       8       1       1       0       8       1
       1       0       8       1       1       0       8       1       1       0
       8       1       1       0       8       1       1       0       8       1
       1       0       8       1       1       0       8       1       1       0
       8       1       1       0       8       1       1       0       8       1
       1       0       8       1       1       0       8       1       1       0
       8       1       1       0       8       1       1       0       8       1
       1       0       8       1       1       0       8       1       1       0
       8       1       1       0       8       1       1       0       8       1
       1       0       8       1       1       0       8       1       1       0
       8       1       1       0       8       1       1       0       8       1
       1       0       8       1       1       0       8       1       1       0
       8       1       1       0       8       1       1       0       8       1
       1       0       8       1       1       0       8       1       1       0
       8       1       1       0       8       1       1       0       8       1
       1       0       8       1       1       0       8       1       1       0
       8       1       1       0       8       1       1       0       8       1
       1       0       8       1       1       0       8       1       1       0
       8       1       1       0       8       1       1       0       8       1
       1       0       8       1       1       0       8       1       1       0
       8       1       1       0       8       1       1       0       8       1
       1       0       8       1       1       0       8       1       1       0
       8       1       1       0       8       1       1       0       8       1
       1       0       8       1       1       0       8       1       1       0
       8       1       1       0       8       1       1       0       8       1
       1       0       8       1       1       0       8       1       1       0
       8       1       1       0       8       1       1       0       8       1
       1       0       8       1       1       0       8       1       1       0
       8       1       1       0       8       1       1       0       8       1
       1       0       8       1       1       0       8       1       1       0
       8       1       1       0       8       1       1       0       8       1
       1       0       8       1       1       0       8       1       1       0
       8       1       1       0       8       1       1       0       8       1
       1       0       8       1       1       0       8       1       1       0
       8       1       1       0       8       1       1       0       8       1
       1       0       8       1       1       0       8       1       1       0
       8       1       1       0       8       1       1       0       8       1
       1       0       8       1       1       0       8       1       1       0
       8       1       1       0       8       1       1       0       8       1
       1       0       8       1       1       0       8       1       1       0
       8       1       1       0       8       1       1       0       8       1
       1       0       8       1       1       0       8       1       1       0
       8       1       1       0       8       1       1       0       8       1
       1       0       8       1       1       0       8       1       1       0
       8       1       1       0       8       1       1       0       8       1
       1       0       8       1       1       0       8       1       1       0
       8       1       1       0       8       1       1       0       8       1
       1       0       8       1       1       0       8       1       1       0
       8       1       1       0       8       1       1       0       8       1
       1       0       8       1       1       0       8       1       1       0
       8       1       1       0       8       1       1       0       8       1
       1       0       8       1       1       0       8       1       1       0
       8       1       1       0       8       1       1       0       8       1
       1       0       8       1       1       0       8       1       1       0
       8       1       1       0       8       1       1       0       8       1
       1       0       8       1       1       0       8       1       1       0
       8       1       1       0       8       1       1       0       8       1
       1       0       8       1       1       0       8       1       1       0
       8       1       1       0       8       1       1       0       8       1
       1       0       8       1       1       0       8       1       1       0
       8       1       1       0       8       1       1       0       8       1
       1       0       8       1       1       0       8       1       1       0
       8       1       1       0       8       1       1       0       8       1
       1       0       8       1       1       0       8       1       1       0
       8       1       1       0       8       1       1       0       8       1
       1       0       8       1       1       0       8       1       1       0
       8       1       1       0       8       1       1       0       8       1
       1       0       8       1       1       0       8       1       1       0
       8       1       1       0       8       1       1       0       8       1
       1       0       8       1       1       0       8       1       1       0
       8       1       1       0       8       1       1       0       8       1
       1       0       8       1       1       0       8       1       1       0
       8       1       1       0       8       1       1       0       8       1
       1       0       8       1       1       0       8       1       1       0
       8       1       1       0       8       1       1       0       8       1
       1       0       8       1       1       0       8       1       1       0
       8       1       1       0       8       1       1       0       8       1
       1       0       8       1       1       0       8       1       1       0
       8       1       1       0       8       1       1       0       8       1
       1       0       8       1       1       0       8       1       1       0
       8       1       1       0       8       1       1       0       8       1
       1       0       8       1       1       0       8       1       1       0
       8       1       1       0       8       1       1       0       8       1
       1       0       8       1       1       0       8       1       1       0
       8       1       1       0       8       1       1       0       8       1
       1       0       8       1       1       0       8       1       1       0
       8       1       1       0       8       1       1       0       8       1
       1       0       8       1       1       0       8       1       1       0
       8       1       1       0       8       1       1       0       8       1
       1       0       8       1       1       0       8       1       1       0
       8       1       1       0       8       1       1       0       8       1
       1       0       8       1       1       0       8       1       1       0
       8       1       1       0       8       1       1       0       8       1
       1       0       8       1       1       0       8       1       1       0
       8       1       1       0       8       1       1       0       8       1
       1       0       8       1       1       0       8       1       1       0
       8       1       1       0       8       1       1       0       8       1
       1       0       8       1       1       0       8       1       1       0
       8       1       1       0       8       1       1       0       8       1
       1       0       8       1       1       0       8       1       1       0
       8       1       1       0       8       1       1       0       8       1
       1       0       8       1       1       0       8       1       1       0
       8       1       1       0       8       1       1       0       8       1
       1       0       8       1       1       0       8       1       1       0
       8       1       1       0       8       1       1       0       8       1
       1       0       8       1       1       0       8       1       1       0
       8       1       1       0       8       1       1       0       8       1
       1       0       8       1       1       0       8       1       1       0
       8       1       1       0       8       1       1       0       8       1
       1       0       8       1       1       0       8       1       1       0
       8       1       1       0       8       1       1       0       8       1
       1       0       8       1       1       0       8       1       1       0
       8       1       1       0       8       1       1       0       8       1
       1       0       8       1       1       0       8       1       1       0
       8       1       1       0       8       1       1       0       8       1
       1       0       8       1       1       0       8       1       1       0
       8       1       1       0       8       1       1       0       8       1
       1       0       8       1       1       0       8       1       1       0
       8       1       1       0       8       1       1       0       8       1
       1       0       8       1       1       0       8       1       1       0
       8       1       1       0       8       1       1       0       8       1
       1       0       8       1       1       0       8       1       1       0
       8       1       1       0       8       1       1       0       8       1
       1       0       8       1       1       0       8       1       1       0
       8       1       1       0       8       1       1       0       8       1
       1       0       8       1       1       0       8       1       1       0
       8       1       1       0       8       1       1       0       8       1
       1       0       8       1       1       0       8       1       1       0
       8       1       1       0       8       1       1       0       8       1
       1       0       8       1       1       0       8       1       1       0
       8       1       1       0       8       1       1       0       8       1
       1       0       8       1       1       0       8       1       1       0
       8       1       1       0       8       1       1       0       8       1
       1       0       8       1       1       0       8       1       1       0
       8       1       1       0       8       1       1       0       8       1
       1       0       8       1       1       0       8       1       1       0
       8       1       1       0       8       1       1       0       8       1
       1       0       8       1       1       0       8       1       1       0
       8       1       1       0       8       1       1       0       8       1
       1       0       8       1       1       0       8       1       1       0
       8       1       1       0       8       1       1       0       8       1
       1       0       8       1       1       0       8       1       1       0
       8       1       1       0       8       1       1       0       8       1
       1       0       8       1       1       0       8       1       1       0
       8       1       1       0       8       1       1       0       8       1
       1       0       8       1       1       0       8       1       1       0
       8       1       1       0       8       1       1       0       8       1
       1       0       8       1       1       0       8       1       1       0
       8       1       1       0       8       1       1       0       8       1
       1       0       8       1       1       0       8       1       1       0
       8       1       1       0       8       1       1       0       8       1
       1       0       8       1       1       0       8       1       1       0
       8       1       1       0       8       1       1       0       8       1
       1       0       8       1       1       0       8       1       1       0
       8       1       1       0       8       1       1       0       8       1
       1       0       8       1       1       0       8       1       1       0
       8       1       1       0       8       1       1       0       8       1
       1       0       8       1       1       0       8       1       1       0
       8       1       1       0       8       1       1       0       8       1
       1       0       8       1       1       0       8       1       1       0
       8       1       1       0       8       1       1       0       8       1
       1       0       8       1       1       0       8       1       1       0
       8       1       1       0       8       1       1       0       8       1
       1       0       8       1       1       0       8       1       1       0
       8       1       1       0       8       1       1       0       8       1
       1       0       8       1       1       0       8       1       1       0
       8       1       1       0       8       1       1       0       8       1
       1       0       8       1       1       0       8       1       1       0
       8       1       1       0       8       1       1       0       8       1
       1       0       8       1       1       0       8       1       1       0
       8       1       1       0       8       1       1       0       8       1
       1       0       8       1       1       0       8       1       1       0
       8       1       1       0       8       1       1       0       8       1
       1       0       8       1       1       0       8       1       1       0
       8       1       1       0       8       1       1       0       8       1
       1       0       8       1       1       0       8       1       1       0
       8       1       1       0       8       1       1       0       8       1
       1       0       8       1       1       0       8       1       1       0
       8       1       1       0       8       1       1       0       8       1
       1       0       8       1       1       0       8       1       1       0
       8       1       1       0       8       1       1       0       8       1
       1       0       8       1       1       0       8       1       1       0
       8       1       1       0       8       1       1       0       8       1
       1       0       8       1       1       0       8       1       1       0
       8       1       1       0       8       1       1       0       8       1
       1       0       8       1       1       0       8       1       1       0
       8       1       1       0       8       1       1       0       8       1
       1       0       8       1       1       0       8       1       1       0
       8       1       1       0       8       1       1       0       8       1
       1       0       8       1       1       0       8       1       1       0
       8       1       1       0       8       1       1       0       8       1
       1       0       8       1       1       0       8       1       1       0
       8       1       1       0       8       1       1       0       8       1
       1       0       8       1       1       0       8       1       1       0
       8       1       1       0       8       1       1       0       8       1
       1       0       8       1       1       0       8       1       1       0
       8       1       1       0       8       1       1       0       8       1
       1       0       8       1       1       0       8       1       1       0
       8       1       1       0       8       1       1       0       8       1
       1       0       8       1       1       0       8       1       1       0
       8       1       1       0       8       1       1       0       8       1
       1       0       8       1       1       0       8       1       1       0
       8       1       1       0       8       1       1       0       8       1
       1       0       8       1       1       0       8       1       1       0
       8       1       1       0       8       1       1       0       8       1
       1       0       8       1       1       0       8       1       1       0
       8       1       1       0       8       1       1       0       8       1
       1       0       8       1       1       0       8       1       1       0
       8       1       1       0       8       1       1       0       8       1
       1       0       8       1       1       0       8       1       1       0
       8       1       1       0       8       1       1       0       8       1
       1       0       8       1       1       0       8       1       1       0
       8       1       1       0       8       1       1       0       8       1
       1       0       8       1       1       0       8       1       1       0
       8       1       1       0       8       1       1       0       8       1
       1       0       8       1       1       0       8       1       1       0
       8       1       1       0       8       1       1       0       8       1
       1       0       8       1       1       0       8       1       1       0
       8       1       1       0       8       1       1       0       8       1
       1       0       8       1       1       0       8       1       1       0
       8       1       1       0       8       1       1       0       8       1
       1       0       8       1       1       0       8       1       1       0
       8       1       1       0       8       1       1       0       8       1
       1       0       8       1       1       0       8       1       1       0
       8       1       1       0       8       1       1       0       8       1
       1       0       8       1       1       0       8       1       1       0
       8       1       1       0       8       1       1       0       8       1
       1       0       8       1       1       0       8       1       1       0
       8       1       1       0       8       1       1       0       8       1
       1       0       8       1       1       0       8       1       1       0
       8       1       1       0       8       1       1       0       8       1
       1       0       8       1       1       0       8       1       1       0
       8       1       1       0       8       1       1       0       8       1
       1       0       8       1       1       0       8       1       1       0
       8       1       1       0       8       1       1       0       8       1
       1       0       8       1       1       0       8       1       1       0
       8       1       1       0       8       1       1       0       8       1
       1       0       8       1       1       0       8       1       1       0
       8       1       1       0       8       1       1       0       8       1
       1       0       8       1       1       0       8       1       1       0
       8       1       1       0       8       1       1       0       8       1
       1       0       8       1       1       0       8       1       1       0
       8       1       1       0       8       1       1       0       8       1
       1       0       8       1       1       0       8       1       1       0
       8       1       1       0       8       1       1       0       8       1
       1       0       8       1       1       0       8       1       1       0
       8       1       1       0       8       1       1       0       8       1
       1       0       8       1       1       0       8       1       1       0
       8       1       1       0       8       1       1       0       8       1
       1       0       8       1       1       0       8       1       1       0
       8       1       1       0       8       1       1       0       8       1
       1       0       8       1       1       0       8       1       1       0
       8       1       1       0       8       1       1       0       8       1
       1       0       8       1       1       0
%FLAG MASS                                                                      
%FORMAT(5E16.8)                                                                 
  1.00800000E+00  1.60000000E+01  1.20100000E+01  1.00800000E+00  1.00800000E+00
  1.20100000E+01  1.00800000E+00  1.60000000E+01  1.20100000E+01  1.00800000E+00
  1.40100000E+01  1.20100000E+01  1.00800000E+00  1.40100000E+01  1.20100000E+01
  1.20100000E+01  1.60000000E+01  1.40100000E+01  1.00800000E+00  1.20100000E+01
  1.40100000E+01  1.00800000E+00  1.00800000E+00  1.40100000E+01  1.20100000E+01
  1.20100000E+01  1.00800000E+00  1.20100000E+01  1.00800000E+00  1.60000000E+01
  1.00800000E+00  1.60000000E+01  3.09700000E+01  1.60000000E+01  1.60000000E+01
  1.60000000E+01  1.20100000E+01  1.00800000E+00  1.00800000E+00  1.20100000E+01
  1.00800000E+00  1.60000000E+01  1.20100000E+01  1.00800000E+00  1.40100000E+01
  1.20100000E+01  1.00800000E+00  1.40100000E+01  1.20100000E+01  1.20100000E+01
  1.60000000E+01  1.40100000E+01  1.00800000E+00  1.20100000E+01  1.40100000E+01
  1.00800000E+00  1.00800000E+00  1.40100000E+01  1.20100000E+01  1.20100000E+01
  1.00800000E+00  1.20100000E+01  1.00800000E+00  1.60000000E+01  1.00800000E+00
  1.60000000E+01  3.09700000E+01  1.60000000E+01  1.60000000E+01  1.60000000E+01
  1.20100000E+01  1.00800000E+00  1.00800000E+00  1.20100000E+01  1.00800000E+00
  1.60000000E+01  1.20100000E+01  1.00800000E+00  1.40100000E+01  1.20100000E+01
  1.00800000E+00  1.40100000E+01  1.20100000E+01  1.20100000E+01  1.40100000E+01
  1.00800000E+00  1.00800000E+00  1.40100000E+01  1.20100000E+01  1.00800000E+00
  1.40100000E+01  1.20100000E+01  1.20100000E+01  1.00800000E+00  1.20100000E+01
  1.00800000E+00  1.60000000E+01  1.00800000E+00  1.60000000E+01  3.09700000E+01
  1.60000000E+01  1.60000000E+01  1.60000000E+01  1.20100000E+01  1.00800000E+00
  1.00800000E+00  1.20100000E+01  1.00800000E+00  1.60000000E+01  1.20100000E+01
  1.00800000E+00  1.40100000E+01  1.20100000E+01  1.00800000E+00  1.20100000E+01
  1.00800000E+00  1.20100000E+01  1.60000000E+01  1.40100000E+01  1.00800000E+00
  1.20100000E+01  1.60000000E+01  1.20100000E+01  1.00800000E+00  1.20100000E+01
  1.00800000E+00  1.60000000E+01  1.00800000E+00  1.60000000E+01  3.09700000E+01
  1.60000000E+01  1.60000000E+01  1.60000000E+01  1.20100000E+01  1.00800000E+00
  1.00800000E+00  1.20100000E+01  1.00800000E+00  1.60000000E+01  1.20100000E+01
  1.00800000E+00  1.40100000E+01  1.20100000E+01  1.00800000E+00  1.20100000E+01
  1.00800000E+00  1.20100000E+01  1.40100000E+01  1.00800000E+00  1.00800000E+00
  1.40100000E+01  1.20100000E+01  1.60000000E+01  1.20100000E+01  1.00800000E+00
  1.20100000E+01  1.00800000E+00  1.60000000E+01  1.00800000E+00  1.60000000E+01
  3.09700000E+01  1.60000000E+01  1.60000000E+01  1.60000000E+01  1.20100000E+01
  1.00800000E+00  1.00800000E+00  1.20100000E+01  1.00800000E+00  1.60000000E+01
  1.20100000E+01  1.00800000E+00  1.40100000E+01  1.20100000E+01  1.00800000E+00
  1.40100000E+01  1.20100000E+01  1.20100000E+01  1.40100000E+01  1.00800000E+00
  1.00800000E+00  1.40100000E+01  1.20100000E+01  1.00800000E+00  1.40100000E+01
  1.20100000E+01  1.20100000E+01  1.00800000E+00  1.20100000E+01  1.00800000E+00
  1.60000000E+01  1.00800000E+00  1.60000000E+01  3.09700000E+01  1.60000000E+01
  1.60000000E+01  1.60000000E+01  1.20100000E+01  1.00800000E+00  1.00800000E+00
  1.20100000E+01  1.00800000E+00  1.60000000E+01  1.20100000E+01  1.00800000E+00
  1.40100000E+01  1.20100000E+01  1.00800000E+00  1.20100000E+01  1.00800000E+00
  1.20100000E+01  1.60000000E+01  1.40100000E+01  1.00800000E+00  1.20100000E+01
  1.60000000E+01  1.20100000E+01  1.00800000E+00  1.20100000E+01  1.00800000E+00
  1.60000000E+01  1.00800000E+00  1.60000000E+01  3.09700000E+01  1.60000000E+01
  1.60000000E+01  1.60000000E+01  1.20100000E+01  1.00800000E+00  1.00800000E+00
  1.20100000E+01  1.00800000E+00  1.60000000E+01  1.20100000E+01  1.00800000E+00
  1.40100000E+01  1.20100000E+01  1.00800000E+00  1.40100000E+01  1.20100000E+01
  1.20100000E+01  1.40100000E+01  1.00800000E+00  1.00800000E+00  1.40100000E+01
  1.20100000E+01  1.00800000E+00  1.40100000E+01  1.20100000E+01  1.20100000E+01
  1.00800000E+00  1.20100000E+01  1.00800000E+00  1.60000000E+01  1.00800000E+00
  1.60000000E+01  3.09700000E+01  1.60000000E+01  1.60000000E+01  1.60000000E+01
  1.20100000E+01  1.00800000E+00  1.00800000E+00  1.20100000E+01  1.00800000E+00
  1.60000000E+01  1.20100000E+01  1.00800000E+00  1.40100000E+01  1.20100000E+01
  1.00800000E+00  1.20100000E+01  1.00800000E+00  1.20100000E+01  1.60000000E+01
  1.40100000E+01  1.00800000E+00  1.20100000E+01  1.60000000E+01  1.20100000E+01
  1.00800000E+00  1.20100000E+01  1.00800000E+00  1.60000000E+01  1.00800000E+00
  1.60000000E+01  3.09700000E+01  1.60000000E+01  1.60000000E+01  1.60000000E+01
  1.20100000E+01  1.00800000E+00  1.00800000E+00  1.20100000E+01  1.00800000E+00
  1.60000000E+01  1.20100000E+01  1.00800000E+00  1.40100000E+01  1.20100000E+01
  1.00800000E+00  1.40100000E+01  1.20100000E+01  1.20100000E+01  1.40100000E+01
  1.00800000E+00  1.00800000E+00  1.40100000E+01  1.20100000E+01  1.00800000E+00
  1.40100000E+01  1.20100000E+01  1.20100000E+01  1.00800000E+00  1.20100000E+01
  1.00800000E+00  1.60000000E+01  1.00800000E+00  1.60000000E+01  3.09700000E+01
  1.60000000E+01  1.60000000E+01  1.60000000E+01  1.20100000E+01  1.00800000E+00
  1.00800000E+00  1.20100000E+01  1.00800000E+00  1.60000000E+01  1.20100000E+01
  1.00800000E+00  1.40100000E+01  1.20100000E+01  1.00800000E+00  1.40100000E+01
  1.20100000E+01  1.20100000E+01  1.40100000E+01  1.00800000E+00  1.00800000E+00
  1.40100000E+01  1.20100000E+01  1.00800000E+00  1.40100000E+01  1.20100000E+01
  1.20100000E+01  1.00800000E+00  1.20100000E+01  1.00800000E+00  1.60000000E+01
  1.00800000E+00  1.60000000E+01  3.09700000E+01  1.60000000E+01  1.60000000E+01
  1.60000000E+01  1.20100000E+01  1.00800000E+00  1.00800000E+00  1.20100000E+01
  1.00800000E+00  1.60000000E+01  1.20100000E+01  1.00800000E+00  1.40100000E+01
  1.20100000E+01  1.00800000E+00  1.20100000E+01  1.00800000E+00  1.20100000E+01
  1.60000000E+01  1.40100000E+01  1.00800000E+00  1.20100000E+01  1.60000000E+01
  1.20100000E+01  1.00800000E+00  1.20100000E+01  1.00800000E+00  1.60000000E+01
  1.00800000E+00  1.60000000E+01  3.09700000E+01  1.60000000E+01  1.60000000E+01
  1.60000000E+01  1.20100000E+01  1.00800000E+00  1.00800000E+00  1.20100000E+01
  1.00800000E+00  1.60000000E+01  1.20100000E+01  1.00800000E+00  1.40100000E+01
  1.20100000E+01  1.00800000E+00  1.20100000E+01  1.00800000E+00  1.20100000E+01
  1.40100000E+01  1.00800000E+00  1.00800000E+00  1.40100000E+01  1.20100000E+01
  1.60000000E+01  1.20100000E+01  1.00800000E+00  1.20100000E+01  1.00800000E+00
  1.60000000E+01  1.00800000E+00  1.60000000E+01  3.09700000E+01  1.60000000E+01
  1.60000000E+01  1.60000000E+01  1.20100000E+01  1.00800000E+00  1.00800000E+00
  1.20100000E+01  1.00800000E+00  1.60000000E+01  1.20100000E+01  1.00800000E+00
  1.40100000E+01  1.20100000E+01  1.00800000E+00  1.40100000E+01  1.20100000E+01
  1.20100000E+01  1.60000000E+01  1.40100000E+01  1.00800000E+00  1.20100000E+01
  1.40100000E+01  1.00800000E+00  1.00800000E+00  1.40100000E+01  1.20100000E+01
  1.20100000E+01  1.00800000E+00  1.20100000E+01  1.00800000E+00  1.60000000E+01
  1.00800000E+00  1.60000000E+01  3.09700000E+01  1.60000000E+01  1.60000000E+01
  1.60000000E+01  1.20100000E+01  1.00800000E+00  1.00800000E+00  1.20100000E+01
  1.00800000E+00  1.60000000E+01  1.20100000E+01  1.00800000E+00  1.40100000E+01
  1.20100000E+01  1.00800000E+00  1.20100000E+01  1.00800000E+00  1.20100000E+01
  1.40100000E+01  1.00800000E+00  1.00800000E+00  1.40100000E+01  1.20100000E+01
  1.60000000E+01  1.20100000E+01  1.00800000E+00  1.20100000E+01  1.00800000E+00
  1.60000000E+01  1.00800000E+00  1.60000000E+01  3.09700000E+01  1.60000000E+01
  1.60000000E+01  1.60000000E+01  1.20100000E+01  1.00800000E+00  1.00800000E+00
  1.20100000E+01  1.00800000E+00  1.60000000E+01  1.20100000E+01  1.00800000E+00
  1.40100000E+01  1.20100000E+01  1.00800000E+00  1.40100000E+01  1.20100000E+01
  1.20100000E+01  1.60000000E+01  1.40100000E+01  1.00800000E+00  1.20100000E+01
  1.40100000E+01  1.00800000E+00  1.00800000E+00  1.40100000E+01  1.20100000E+01
  1.20100000E+01  1.00800000E+00  1.20100000E+01  1.00800000E+00  1.60000000E+01
  1.00800000E+00  1.60000000E+01  3.09700000E+01  1.60000000E+01  1.60000000E+01
  1.60000000E+01  1.20100000E+01  1.00800000E+00  1.00800000E+00  1.20100000E+01
  1.00800000E+00  1.60000000E+01  1.20100000E+01  1.00800000E+00  1.40100000E+01
  1.20100000E+01  1.00800000E+00  1.20100000E+01  1.00800000E+00  1.20100000E+01
  1.60000000E+01  1.40100000E+01  1.00800000E+00  1.20100000E+01  1.60000000E+01
  1.20100000E+01  1.00800000E+00  1.20100000E+01  1.00800000E+00  1.60000000E+01
  1.00800000E+00  1.60000000E+01  3.09700000E+01  1.60000000E+01  1.60000000E+01
  1.60000000E+01  1.20100000E+01  1.00800000E+00  1.00800000E+00  1.20100000E+01
  1.00800000E+00  1.60000000E+01  1.20100000E+01  1.00800000E+00  1.40100000E+01
  1.20100000E+01  1.00800000E+00  1.40100000E+01  1.20100000E+01  1.20100000E+01
  1.60000000E+01  1.40100000E+01  1.00800000E+00  1.20100000E+01  1.40100000E+01
  1.00800000E+00  1.00800000E+00  1.40100000E+01  1.20100000E+01  1.20100000E+01
  1.00800000E+00  1.20100000E+01  1.00800000E+00  1.60000000E+01  1.00800000E+00
  1.60000000E+01  3.09700000E+01  1.60000000E+01  1.60000000E+01  1.60000000E+01
  1.20100000E+01  1.00800000E+00  1.00800000E+00  1.20100000E+01  1.00800000E+00
  1.60000000E+01  1.20100000E+01  1.00800000E+00  1.40100000E+01  1.20100000E+01
  1.00800000E+00  1.40100000E+01  1.20100000E+01  1.20100000E+01  1.60000000E+01
  1.40100000E+01  1.00800000E+00  1.20100000E+01  1.40100000E+01  1.00800000E+00
  1.00800000E+00  1.40100000E+01  1.20100000E+01  1.20100000E+01  1.00800000E+00
  1.20100000E+01  1.00800000E+00  1.60000000E+01  1.00800000E+00  1.60000000E+01
  3.09700000E+01  1.60000000E+01  1.60000000E+01  1.60000000E+01  1.20100000E+01
  1.00800000E+00  1.00800000E+00  1.20100000E+01  1.00800000E+00  1.60000000E+01
  1.20100000E+01  1.00800000E+00  1.40100000E+01  1.20100000E+01  1.00800000E+00
  1.40100000E+01  1.20100000E+01  1.20100000E+01  1.40100000E+01  1.00800000E+00
  1.00800000E+00  1.40100000E+01  1.20100000E+01  1.00800000E+00  1.40100000E+01
  1.20100000E+01  1.20100000E+01  1.00800000E+00  1.20100000E+01  1.00800000E+00
  1.60000000E+01  1.00800000E+00  1.60000000E+01  3.09700000E+01  1.60000000E+01
  1.60000000E+01  1.60000000E+01  1.20100000E+01  1.00800000E+00  1.00800000E+00
  1.20100000E+01  1.00800000E+00  1.60000000E+01  1.20100000E+01  1.00800000E+00
  1.40100000E+01  1.20100000E+01  1.00800000E+00  1.20100000E+01  1.00800000E+00
  1.20100000E+01  1.60000000E+01  1.40100000E+01  1.00800000E+00  1.20100000E+01
  1.60000000E+01  1.20100000E+01  1.00800000E+00  1.20100000E+01  1.00800000E+00
  1.60000000E+01  1.00800000E+00  1.60000000E+01  3.09700000E+01  1.60000000E+01
  1.60000000E+01  1.60000000E+01  1.20100000E+01  1.00800000E+00  1.00800000E+00
  1.20100000E+01  1.00800000E+00  1.60000000E+01  1.20100000E+01  1.00800000E+00
  1.40100000E+01  1.20100000E+01  1.00800000E+00  1.40100000E+01  1.20100000E+01
  1.20100000E+01  1.40100000E+01  1.00800000E+00  1.00800000E+00  1.40100000E+01
  1.20100000E+01  1.00800000E+00  1.40100000E+01  1.20100000E+01  1.20100000E+01
  1.00800000E+00  1.20100000E+01  1.00800000E+00  1.60000000E+01  1.00800000E+00
  1.60000000E+01  3.09700000E+01  1.60000000E+01  1.60000000E+01  1.60000000E+01
  1.20100000E+01  1.00800000E+00  1.00800000E+00  1.20100000E+01  1.00800000E+00
  1.60000000E+01  1.20100000E+01  1.00800000E+00  1.40100000E+01  1.20100000E+01
  1.00800000E+00  1.20100000E+01  1.00800000E+00  1.20100000E+01  1.60000000E+01
  1.40100000E+01  1.00800000E+00  1.20100000E+01  1.60000000E+01  1.20100000E+01
  1.00800000E+00  1.20100000E+01  1.00800000E+00  1.60000000E+01  1.00800000E+00
  1.60000000E+01  3.09700000E+01  1.60000000E+01  1.60000000E+01  1.60000000E+01
  1.20100000E+01  1.00800000E+00  1.00800000E+00  1.20100000E+01  1.00800000E+00
  1.60000000E+01  1.20100000E+01  1.00800000E+00  1.40100000E+01  1.20100000E+01
  1.00800000E+00  1.40100000E+01  1.20100000E+01  1.20100000E+01  1.60000000E+01
  1.40100000E+01  1.00800000E+00  1.20100000E+01  1.40100000E+01  1.00800000E+00
  1.00800000E+00  1.40100000E+01  1.20100000E+01  1.20100000E+01  1.00800000E+00
  1.20100000E+01  1.00800000E+00  1.60000000E+01  1.00800000E+00  1.60000000E+01
  3.09700000E+01  1.60000000E+01  1.60000000E+01  1.60000000E+01  1.20100000E+01
  1.00800000E+00  1.00800000E+00  1.20100000E+01  1.00800000E+00  1.60000000E+01
  1.20100000E+01  1.00800000E+00  1.40100000E+01  1.20100000E+01  1.00800000E+00
  1.40100000E+01  1.20100000E+01  1.20100000E+01  1.60000000E+01  1.40100000E+01
  1.00800000E+00  1.20100000E+01  1.40100000E+01  1.00800000E+00  1.00800000E+00
  1.40100000E+01  1.20100000E+01  1.20100000E+01  1.00800000E+00  1.20100000E+01
  1.00800000E+00  1.60000000E+01  1.00800000E+00  1.60000000E+01  3.09700000E+01
  1.60000000E+01  1.60000000E+01  1.60000000E+01  1.20100000E+01  1.00800000E+00
  1.00800000E+00  1.20100000E+01  1.00800000E+00  1.60000000E+01  1.20100000E+01
  1.00800000E+00  1.40100000E+01  1.20100000E+01  1.00800000E+00  1.20100000E+01
  1.00800000E+00  1.20100000E+01  1.40100000E+01  1.00800000E+00  1.00800000E+00
  1.40100000E+01  1.20100000E+01  1.60000000E+01  1.20100000E+01  1.00800000E+00
  1.20100000E+01  1.00800000E+00  1.60000000E+01  1.00800000E+00  1.60000000E+01
  3.09700000E+01  1.60000000E+01  1.60000000E+01  1.60000000E+01  1.20100000E+01
  1.00800000E+00  1.00800000E+00  1.20100000E+01  1.00800000E+00  1.60000000E+01
  1.20100000E+01  1.00800000E+00  1.40100000E+01  1.20100000E+01  1.00800000E+00
  1.40100000E+01  1.20100000E+01  1.20100000E+01  1.40100000E+01  1.00800000E+00
  1.00800000E+00  1.40100000E+01  1.20100000E+01  1.00800000E+00  1.40100000E+01
  1.20100000E+01  1.20100000E+01  1.00800000E+00  1.20100000E+01  1.00800000E+00
  1.60000000E+01  1.00800000E+00  1.60000000E+01  3.09700000E+01  1.60000000E+01
  1.60000000E+01  1.60000000E+01  1.20100000E+01  1.00800000E+00  1.00800000E+00
  1.20100000E+01  1.00800000E+00  1.60000000E+01  1.20100000E+01  1.00800000E+00
  1.40100000E+01  1.20100000E+01  1.00800000E+00  1.20100000E+01  1.00800000E+00
  1.20100000E+01  1.40100000E+01  1.00800000E+00  1.00800000E+00  1.40100000E+01
  1.20100000E+01  1.60000000E+01  1.20100000E+01  1.00800000E+00  1.20100000E+01
  1.00800000E+00  1.60000000E+01  1.00800000E+00  1.60000000E+01  3.09700000E+01
  1.60000000E+01  1.60000000E+01  1.60000000E+01  1.20100000E+01  1.00800000E+00
  1.00800000E+00  1.20100000E+01  1.00800000E+00  1.60000000E+01  1.20100000E+01
  1.00800000E+00  1.40100000E+01  1.20100000E+01  1.00800000E+00  1.40100000E+01
  1.20100000E+01  1.20100000E+01  1.60000000E+01  1.40100000E+01  1.00800000E+00
  1.20100000E+01  1.40100000E+01  1.00800000E+00  1.00800000E+00  1.40100000E+01
  1.20100000E+01  1.20100000E+01  1.00800000E+00  1.20100000E+01  1.00800000E+00
  1.60000000E+01  1.00800000E+00  1.60000000E+01  3.09700000E+01  1.60000000E+01
  1.60000000E+01  1.60000000E+01  1.20100000E+01  1.00800000E+00  1.00800000E+00
  1.20100000E+01  1.00800000E+00  1.60000000E+01  1.20100000E+01  1.00800000E+00
  1.40100000E+01  1.20100000E+01  1.00800000E+00  1.20100000E+01  1.00800000E+00
  1.20100000E+01  1.40100000E+01  1.00800000E+00  1.00800000E+00  1.40100000E+01
  1.20100000E+01  1.60000000E+01  1.20100000E+01  1.00800000E+00  1.20100000E+01
  1.00800000E+00  1.60000000E+01  1.00800000E+00  1.60000000E+01  3.09700000E+01
  1.60000000E+01  1.60000000E+01  1.60000000E+01  1.20100000E+01  1.00800000E+00
  1.00800000E+00  1.20100000E+01  1.00800000E+00  1.60000000E+01  1.20100000E+01
  1.00800000E+00  1.40100000E+01  1.20100000E+01  1.00800000E+00  1.40100000E+01
  1.20100000E+01  1.20100000E+01  1.40100000E+01  1.00800000E+00  1.00800000E+00
  1.40100000E+01  1.20100000E+01  1.00800000E+00  1.40100000E+01  1.20100000E+01
  1.20100000E+01  1.00800000E+00  1.20100000E+01  1.00800000E+00  1.60000000E+01
  1.00800000E+00  1.60000000E+01  3.09700000E+01  1.60000000E+01  1.60000000E+01
  1.60000000E+01  1.20100000E+01  1.00800000E+00  1.00800000E+00  1.20100000E+01
  1.00800000E+00  1.60000000E+01  1.20100000E+01  1.00800000E+00  1.40100000E+01
  1.20100000E+01  1.00800000E+00  1.40100000E+01  1.20100000E+01  1.20100000E+01
  1.40100000E+01  1.00800000E+00  1.00800000E+00  1.40100000E+01  1.20100000E+01
  1.00800000E+00  1.40100000E+01  1.20100000E+01  1.20100000E+01  1.00800000E+00
  1.20100000E+01  1.00800000E+00  1.60000000E+01  1.00800000E+00  1.60000000E+01
  3.09700000E+01  1.60000000E+01  1.60000000E+01  1.60000000E+01  1.20100000E+01
  1.00800000E+00  1.00800000E+00  1.20100000E+01  1.00800000E+00  1.60000000E+01
  1.20100000E+01  1.00800000E+00  1.40100000E+01  1.20100000E+01  1.00800000E+00
  1.40100000E+01  1.20100000E+01  1.20100000E+01  1.60000000E+01  1.40100000E+01
  1.00800000E+00  1.20100000E+01  1.40100000E+01  1.00800000E+00  1.00800000E+00
  1.40100000E+01  1.20100000E+01  1.20100000E+01  1.00800000E+00  1.20100000E+01
  1.00800000E+00  1.60000000E+01  1.00800000E+00  1.60000000E+01  3.09700000E+01
  1.60000000E+01  1.60000000E+01  1.60000000E+01  1.20100000E+01  1.00800000E+00
  1.00800000E+00  1.20100000E+01  1.00800000E+00  1.60000000E+01  1.20100000E+01
  1.00800000E+00  1.40100000E+01  1.20100000E+01  1.00800000E+00  1.20100000E+01
  1.00800000E+00  1.20100000E+01  1.60000000E+01  1.40100000E+01  1.00800000E+00
  1.20100000E+01  1.60000000E+01  1.20100000E+01  1.00800000E+00  1.20100000E+01
  1.00800000E+00  1.60000000E+01  1.00800000E+00  1.60000000E+01  3.09700000E+01
  1.60000000E+01  1.60000000E+01  1.60000000E+01  1.20100000E+01  1.00800000E+00
  1.00800000E+00  1.20100000E+01  1.00800000E+00  1.60000000E+01  1.20100000E+01
  1.00800000E+00  1.40100000E+01  1.20100000E+01  1.00800000E+00  1.20100000E+01
  1.00800000E+00  1.20100000E+01  1.60000000E+01  1.40100000E+01  1.00800000E+00
  1.20100000E+01  1.60000000E+01  1.20100000E+01  1.00800000E+00  1.20100000E+01
  1.00800000E+00  1.60000000E+01  1.00800000E+00  1.60000000E+01  3.09700000E+01
  1.60000000E+01  1.60000000E+01  1.60000000E+01  1.20100000E+01  1.00800000E+00
  1.00800000E+00  1.20100000E+01  1.00800000E+00  1.60000000E+01  1.20100000E+01
  1.00800000E+00  1.40100000E+01  1.20100000E+01  1.00800000E+00  1.20100000E+01
  1.00800000E+00  1.20100000E+01  1.60000000E+01  1.40100000E+01  1.00800000E+00
  1.20100000E+01  1.60000000E+01  1.20100000E+01  1.00800000E+00  1.20100000E+01
  1.00800000E+00  1.60000000E+01  1.00800000E+00  1.60000000E+01  3.09700000E+01
  1.60000000E+01  1.60000000E+01  1.60000000E+01  1.20100000E+01  1.00800000E+00
  1.00800000E+00  1.20100000E+01  1.00800000E+00  1.60000000E+01  1.20100000E+01
  1.00800000E+00  1.40100000E+01  1.20100000E+01  1.00800000E+00  1.20100000E+01
  1.00800000E+00  1.20100000E+01  1.40100000E+01  1.00800000E+00  1.00800000E+00
  1.40100000E+01  1.20100000E+01  1.60000000E+01  1.20100000E+01  1.00800000E+00
  1.20100000E+01  1.00800000E+00  1.60000000E+01  1.00800000E+00  1.60000000E+01
  3.09700000E+01  1.60000000E+01  1.60000000E+01  1.60000000E+01  1.20100000E+01
  1.00800000E+00  1.00800000E+00  1.20100000E+01  1.00800000E+00  1.60000000E+01
  1.20100000E+01  1.00800000E+00  1.40100000E+01  1.20100000E+01  1.00800000E+00
  1.20100000E+01  1.00800000E+00  1.20100000E+01  1.60000000E+01  1.40100000E+01
  1.00800000E+00  1.20100000E+01  1.60000000E+01  1.20100000E+01  1.00800000E+00
  1.20100000E+01  1.00800000E+00  1.60000000E+01  1.00800000E+00  1.60000000E+01
  3.09700000E+01  1.60000000E+01  1.60000000E+01  1.60000000E+01  1.20100000E+01
  1.00800000E+00  1.00800000E+00  1.20100000E+01  1.00800000E+00  1.60000000E+01
  1.20100000E+01  1.00800000E+00  1.40100000E+01  1.20100000E+01  1.00800000E+00
  1.40100000E+01  1.20100000E+01  1.20100000E+01  1.40100000E+01  1.00800000E+00
  1.00800000E+00  1.40100000E+01  1.20100000E+01  1.00800000E+00  1.40100000E+01
  1.20100000E+01  1.20100000E+01  1.00800000E+00  1.20100000E+01  1.00800000E+00
  1.60000000E+01  1.00800000E+00  1.60000000E+01  3.09700000E+01  1.60000000E+01
  1.60000000E+01  1.60000000E+01  1.20100000E+01  1.00800000E+00  1.00800000E+00
  1.20100000E+01  1.00800000E+00  1.60000000E+01  1.20100000E+01  1.00800000E+00
  1.40100000E+01  1.20100000E+01  1.00800000E+00  1.20100000E+01  1.00800000E+00
  1.20100000E+01  1.40100000E+01  1.00800000E+00  1.00800000E+00  1.40100000E+01
  1.20100000E+01  1.60000000E+01  1.20100000E+01  1.00800000E+00  1.20100000E+01
  1.00800000E+00  1.60000000E+01  1.00800000E+00  1.60000000E+01  3.09700000E+01
  1.60000000E+01  1.60000000E+01  1.60000000E+01  1.20100000E+01  1.00800000E+00
  1.00800000E+00  1.20100000E+01  1.00800000E+00  1.60000000E+01  1.20100000E+01
  1.00800000E+00  1.40100000E+01  1.20100000E+01  1.00800000E+00  1.20100000E+01
  1.00800000E+00  1.20100000E+01  1.40100000E+01  1.00800000E+00  1.00800000E+00
  1.40100000E+01  1.20100000E+01  1.60000000E+01  1.20100000E+01  1.00800000E+00
  1.20100000E+01  1.00800000E+00  1.60000000E+01  1.00800000E+00  1.60000000E+01
  3.09700000E+01  1.60000000E+01  1.60000000E+01  1.60000000E+01  1.20100000E+01
  1.00800000E+00  1.00800000E+00  1.20100000E+01  1.00800000E+00  1.60000000E+01
  1.20100000E+01  1.00800000E+00  1.40100000E+01  1.20100000E+01  1.00800000E+00
  1.40100000E+01  1.20100000E+01  1.20100000E+01  1.60000000E+01  1.40100000E+01
  1.00800000E+00  1.20100000E+01  1.40100000E+01  1.00800000E+00  1.00800000E+00
  1.40100000E+01  1.20100000E+01  1.20100000E+01  1.00800000E+00  1.20100000E+01
  1.00800000E+00  1.60000000E+01  1.00800000E+00  1.60000000E+01  3.09700000E+01
  1.60000000E+01  1.60000000E+01  1.60000000E+01  1.20100000E+01  1.00800000E+00
  1.00800000E+00  1.20100000E+01  1.00800000E+00  1.60000000E+01  1.20100000E+01
  1.00800000E+00  1.40100000E+01  1.20100000E+01  1.00800000E+00  1.40100000E+01
  1.20100000E+01  1.20100000E+01  1.60000000E+01  1.40100000E+01  1.00800000E+00
  1.20100000E+01  1.40100000E+01  1.00800000E+00  1.00800000E+00  1.40100000E+01
  1.20100000E+01  1.20100000E+01  1.00800000E+00  1.20100000E+01  1.00800000E+00
  1.60000000E+01  1.00800000E+00  1.60000000E+01  3.09700000E+01  1.60000000E+01
  1.60000000E+01  1.60000000E+01  1.20100000E+01  1.00800000E+00  1.00800000E+00
  1.20100000E+01  1.00800000E+00  1.60000000E+01  1.20100000E+01  1.00800000E+00
  1.40100000E+01  1.20100000E+01  1.00800000E+00  1.40100000E+01  1.20100000E+01
  1.20100000E+01  1.60000000E+01  1.40100000E+01  1.00800000E+00  1.20100000E+01
  1.40100000E+01  1.00800000E+00  1.00800000E+00  1.40100000E+01  1.20100000E+01
  1.20100000E+01  1.00800000E+00  1.20100000E+01  1.00800000E+00  1.60000000E+01
  1.00800000E+00  1.60000000E+01  3.09700000E+01  1.60000000E+01  1.60000000E+01
  1.60000000E+01  1.20100000E+01  1.00800000E+00  1.00800000E+00  1.20100000E+01
  1.00800000E+00  1.60000000E+01  1.20100000E+01  1.00800000E+00  1.40100000E+01
  1.20100000E+01  1.00800000E+00  1.20100000E+01  1.00800000E+00  1.20100000E+01
  1.40100000E+01  1.00800000E+00  1.00800000E+00  1.40100000E+01  1.20100000E+01
  1.60000000E+01  1.20100000E+01  1.00800000E+00  1.20100000E+01  1.00800000E+00
  1.60000000E+01  1.00800000E+00  1.60000000E+01  3.09700000E+01  1.60000000E+01
  1.60000000E+01  1.60000000E+01  1.20100000E+01  1.00800000E+00  1.00800000E+00
  1.20100000E+01  1.00800000E+00  1.60000000E+01  1.20100000E+01  1.00800000E+00
  1.40100000E+01  1.20100000E+01  1.00800000E+00  1.40100000E+01  1.20100000E+01
  1.20100000E+01  1.40100000E+01  1.00800000E+00  1.00800000E+00  1.40100000E+01
  1.20100000E+01  1.00800000E+00  1.40100000E+01  1.20100000E+01  1.20100000E+01
  1.00800000E+00  1.20100000E+01  1.00800000E+00  1.60000000E+01  1.00800000E+00
  1.60000000E+01  3.09700000E+01  1.60000000E+01  1.60000000E+01  1.60000000E+01
  1.20100000E+01  1.00800000E+00  1.00800000E+00  1.20100000E+01  1.00800000E+00
  1.60000000E+01  1.20100000E+01  1.00800000E+00  1.40100000E+01  1.20100000E+01
  1.00800000E+00  1.20100000E+01  1.00800000E+00  1.20100000E+01  1.40100000E+01
  1.00800000E+00  1.00800000E+00  1.40100000E+01  1.20100000E+01  1.60000000E+01
  1.20100000E+01  1.00800000E+00  1.20100000E+01  1.00800000E+00  1.60000000E+01
  1.00800000E+00  1.60000000E+01  3.09700000E+01  1.60000000E+01  1.60000000E+01
  1.60000000E+01  1.20100000E+01  1.00800000E+00  1.00800000E+00  1.20100000E+01
  1.00800000E+00  1.60000000E+01  1.20100000E+01  1.00800000E+00  1.40100000E+01
  1.20100000E+01  1.00800000E+00  1.20100000E+01  1.00800000E+00  1.20100000E+01
  1.40100000E+01  1.00800000E+00  1.00800000E+00  1.40100000E+01  1.20100000E+01
  1.60000000E+01  1.20100000E+01  1.00800000E+00  1.20100000E+01  1.00800000E+00
  1.60000000E+01  1.00800000E+00  1.60000000E+01  3.09700000E+01  1.60000000E+01
  1.60000000E+01  1.60000000E+01  1.20100000E+01  1.00800000E+00  1.00800000E+00
  1.20100000E+01  1.00800000E+00  1.60000000E+01  1.20100000E+01  1.00800000E+00
  1.40100000E+01  1.20100000E+01  1.00800000E+00  1.40100000E+01  1.20100000E+01
  1.20100000E+01  1.60000000E+01  1.40100000E+01  1.00800000E+00  1.20100000E+01
  1.40100000E+01  1.00800000E+00  1.00800000E+00  1.40100000E+01  1.20100000E+01
  1.20100000E+01  1.00800000E+00  1.20100000E+01  1.00800000E+00  1.60000000E+01
  1.00800000E+00  1.60000000E+01  3.09700000E+01  1.60000000E+01  1.60000000E+01
  1.60000000E+01  1.20100000E+01  1.00800000E+00  1.00800000E+00  1.20100000E+01
  1.00800000E+00  1.60000000E+01  1.20100000E+01  1.00800000E+00  1.40100000E+01
  1.20100000E+01  1.00800000E+00  1.20100000E+01  1.00800000E+00  1.20100000E+01
  1.60000000E+01  1.40100000E+01  1.00800000E+00  1.20100000E+01  1.60000000E+01
  1.20100000E+01  1.00800000E+00  1.20100000E+01  1.00800000E+00  1.60000000E+01
  1.00800000E+00  1.60000000E+01  3.09700000E+01  1.60000000E+01  1.60000000E+01
  1.60000000E+01  1.20100000E+01  1.00800000E+00  1.00800000E+00  1.20100000E+01
  1.00800000E+00  1.60000000E+01  1.20100000E+01  1.00800000E+00  1.40100000E+01
  1.20100000E+01  1.00800000E+00  1.40100000E+01  1.20100000E+01  1.20100000E+01
  1.40100000E+01  1.00800000E+00  1.00800000E+00  1.40100000E+01  1.20100000E+01
  1.00800000E+00  1.40100000E+01  1.20100000E+01  1.20100000E+01  1.00800000E+00
  1.20100000E+01  1.00800000E+00  1.60000000E+01  1.00800000E+00  1.60000000E+01
  3.09700000E+01  1.60000000E+01  1.60000000E+01  1.60000000E+01  1.20100000E+01
  1.00800000E+00  1.00800000E+00  1.20100000E+01  1.00800000E+00  1.60000000E+01
  1.20100000E+01  1.00800000E+00  1.40100000E+01  1.20100000E+01  1.00800000E+00
  1.40100000E+01  1.20100000E+01  1.20100000E+01  1.40100000E+01  1.00800000E+00
  1.00800000E+00  1.40100000E+01  1.20100000E+01  1.00800000E+00  1.40100000E+01
  1.20100000E+01  1.20100000E+01  1.00800000E+00  1.20100000E+01  1.00800000E+00
  1.60000000E+01  1.00800000E+00  1.60000000E+01  3.09700000E+01  1.60000000E+01
  1.60000000E+01  1.60000000E+01  1.20100000E+01  1.00800000E+00  1.00800000E+00
  1.20100000E+01  1.00800000E+00  1.60000000E+01  1.20100000E+01  1.00800000E+00
  1.40100000E+01  1.20100000E+01  1.00800000E+00  1.40100000E+01  1.20100000E+01
  1.20100000E+01  1.40100000E+01  1.00800000E+00  1.00800000E+00  1.40100000E+01
  1.20100000E+01  1.00800000E+00  1.40100000E+01  1.20100000E+01  1.20100000E+01
  1.00800000E+00  1.20100000E+01  1.00800000E+00  1.60000000E+01  1.00800000E+00
  1.60000000E+01  3.09700000E+01  1.60000000E+01  1.60000000E+01  1.60000000E+01
  1.20100000E+01  1.00800000E+00  1.00800000E+00  1.20100000E+01  1.00800000E+00
  1.60000000E+01  1.20100000E+01  1.00800000E+00  1.40100000E+01  1.20100000E+01
  1.00800000E+00  1.20100000E+01  1.00800000E+00  1.20100000E+01  1.60000000E+01
  1.40100000E+01  1.00800000E+00  1.20100000E+01  1.60000000E+01  1.20100000E+01
  1.00800000E+00  1.20100000E+01  1.00800000E+00  1.60000000E+01  1.00800000E+00
  1.60000000E+01  3.09700000E+01  1.60000000E+01  1.60000000E+01  1.60000000E+01
  1.20100000E+01  1.00800000E+00  1.00800000E+00  1.20100000E+01  1.00800000E+00
  1.60000000E+01  1.20100000E+01  1.00800000E+00  1.40100000E+01  1.20100000E+01
  1.00800000E+00  1.40100000E+01  1.20100000E+01  1.20100000E+01  1.60000000E+01
  1.40100000E+01  1.00800000E+00  1.20100000E+01  1.40100000E+01  1.00800000E+00
  1.00800000E+00  1.40100000E+01  1.20100000E+01  1.20100000E+01  1.00800000E+00
  1.20100000E+01  1.00800000E+00  1.60000000E+01  1.00800000E+00  1.60000000E+01
  3.09700000E+01  1.60000000E+01  1.60000000E+01  1.60000000E+01  1.20100000E+01
  1.00800000E+00  1.00800000E+00  1.20100000E+01  1.00800000E+00  1.60000000E+01
  1.20100000E+01  1.00800000E+00  1.40100000E+01  1.20100000E+01  1.00800000E+00
  1.20100000E+01  1.00800000E+00  1.20100000E+01  1.60000000E+01  1.40100000E+01
  1.00800000E+00  1.20100000E+01  1.60000000E+01  1.20100000E+01  1.00800000E+00
  1.20100000E+01  1.00800000E+00  1.60000000E+01  1.00800000E+00  1.60000000E+01
  3.09700000E+01  1.60000000E+01  1.60000000E+01  1.60000000E+01  1.20100000E+01
  1.00800000E+00  1.00800000E+00  1.20100000E+01  1.00800000E+00  1.60000000E+01
  1.20100000E+01  1.00800000E+00  1.40100000E+01  1.20100000E+01  1.00800000E+00
  1.20100000E+01  1.00800000E+00  1.20100000E+01  1.40100000E+01  1.00800000E+00
  1.00800000E+00  1.40100000E+01  1.20100000E+01  1.60000000E+01  1.20100000E+01
  1.00800000E+00  1.20100000E+01  1.00800000E+00  1.60000000E+01  1.00800000E+00
  1.60000000E+01  3.09700000E+01  1.60000000E+01  1.60000000E+01  1.60000000E+01
  1.20100000E+01  1.00800000E+00  1.00800000E+00  1.20100000E+01  1.00800000E+00
  1.60000000E+01  1.20100000E+01  1.00800000E+00  1.40100000E+01  1.20100000E+01
  1.00800000E+00  1.20100000E+01  1.00800000E+00  1.20100000E+01  1.40100000E+01
  1.00800000E+00  1.00800000E+00  1.40100000E+01  1.20100000E+01  1.60000000E+01
  1.20100000E+01  1.00800000E+00  1.20100000E+01  1.00800000E+00  1.60000000E+01
  1.00800000E+00  1.60000000E+01  3.09700000E+01  1.60000000E+01  1.60000000E+01
  1.60000000E+01  1.20100000E+01  1.00800000E+00  1.00800000E+00  1.20100000E+01
  1.00800000E+00  1.60000000E+01  1.20100000E+01  1.00800000E+00  1.40100000E+01
  1.20100000E+01  1.00800000E+00  1.40100000E+01  1.20100000E+01  1.20100000E+01
  1.60000000E+01  1.40100000E+01  1.00800000E+00  1.20100000E+01  1.40100000E+01
  1.00800000E+00  1.00800000E+00  1.40100000E+01  1.20100000E+01  1.20100000E+01
  1.00800000E+00  1.20100000E+01  1.00800000E+00  1.60000000E+01  1.00800000E+00
  1.60000000E+01  3.09700000E+01  1.60000000E+01  1.60000000E+01  1.60000000E+01
  1.20100000E+01  1.00800000E+00  1.00800000E+00  1.20100000E+01  1.00800000E+00
  1.60000000E+01  1.20100000E+01  1.00800000E+00  1.40100000E+01  1.20100000E+01
  1.00800000E+00  1.40100000E+01  1.20100000E+01  1.20100000E+01  1.40100000E+01
  1.00800000E+00  1.00800000E+00  1.40100000E+01  1.20100000E+01  1.00800000E+00
  1.40100000E+01  1.20100000E+01  1.20100000E+01  1.00800000E+00  1.20100000E+01
  1.00800000E+00  1.60000000E+01  1.00800000E+00  1.60000000E+01  3.09700000E+01
  1.60000000E+01  1.60000000E+01  1.60000000E+01  1.20100000E+01  1.00800000E+00
  1.00800000E+00  1.20100000E+01  1.00800000E+00  1.60000000E+01  1.20100000E+01
  1.00800000E+00  1.40100000E+01  1.20100000E+01  1.00800000E+00  1.20100000E+01
  1.00800000E+00  1.20100000E+01  1.40100000E+01  1.00800000E+00  1.00800000E+00
  1.40100000E+01  1.20100000E+01  1.60000000E+01  1.20100000E+01  1.00800000E+00
  1.20100000E+01  1.00800000E+00  1.60000000E+01  1.00800000E+00  1.60000000E+01
  3.09700000E+01  1.60000000E+01  1.60000000E+01  1.60000000E+01  1.20100000E+01
  1.00800000E+00  1.00800000E+00  1.20100000E+01  1.00800000E+00  1.60000000E+01
  1.20100000E+01  1.00800000E+00  1.40100000E+01  1.20100000E+01  1.00800000E+00
  1.20100000E+01  1.00800000E+00  1.20100000E+01  1.60000000E+01  1.40100000E+01
  1.00800000E+00  1.20100000E+01  1.60000000E+01  1.20100000E+01  1.00800000E+00
  1.20100000E+01  1.00800000E+00  1.60000000E+01  1.00800000E+00  1.60000000E+01
  3.09700000E+01  1.60000000E+01  1.60000000E+01  1.60000000E+01  1.20100000E+01
  1.00800000E+00  1.00800000E+00  1.20100000E+01  1.00800000E+00  1.60000000E+01
  1.20100000E+01  1.00800000E+00  1.40100000E+01  1.20100000E+01  1.00800000E+00
  1.40100000E+01  1.20100000E+01  1.20100000E+01  1.40100000E+01  1.00800000E+00
  1.00800000E+00  1.40100000E+01  1.20100000E+01  1.00800000E+00  1.40100000E+01
  1.20100000E+01  1.20100000E+01  1.00800000E+00  1.20100000E+01  1.00800000E+00
  1.60000000E+01  1.00800000E+00  1.60000000E+01  3.09700000E+01  1.60000000E+01
  1.60000000E+01  1.60000000E+01  1.20100000E+01  1.00800000E+00  1.00800000E+00
  1.20100000E+01  1.00800000E+00  1.60000000E+01  1.20100000E+01  1.00800000E+00
  1.40100000E+01  1.20100000E+01  1.00800000E+00  1.20100000E+01  1.00800000E+00
  1.20100000E+01  1.60000000E+01  1.40100000E+01  1.00800000E+00  1.20100000E+01
  1.60000000E+01  1.20100000E+01  1.00800000E+00  1.20100000E+01  1.00800000E+00
  1.60000000E+01  1.00800000E+00  1.60000000E+01  3.09700000E+01  1.60000000E+01
  1.60000000E+01  1.60000000E+01  1.20100000E+01  1.00800000E+00  1.00800000E+00
  1.20100000E+01  1.00800000E+00  1.60000000E+01  1.20100000E+01  1.00800000E+00
  1.40100000E+01  1.20100000E+01  1.00800000E+00  1.40100000E+01  1.20100000E+01
  1.20100000E+01  1.60000000E+01  1.40100000E+01  1.00800000E+00  1.20100000E+01
  1.40100000E+01  1.00800000E+00  1.00800000E+00  1.40100000E+01  1.20100000E+01
  1.20100000E+01  1.00800000E+00  1.20100000E+01  1.00800000E+00  1.60000000E+01
  1.00800000E+00  1.60000000E+01  3.09700000E+01  1.60000000E+01  1.60000000E+01
  1.60000000E+01  1.20100000E+01  1.00800000E+00  1.00800000E+00  1.20100000E+01
  1.00800000E+00  1.60000000E+01  1.20100000E+01  1.00800000E+00  1.40100000E+01
  1.20100000E+01  1.00800000E+00  1.40100000E+01  1.20100000E+01  1.20100000E+01
  1.60000000E+01  1.40100000E+01  1.00800000E+00  1.20100000E+01  1.40100000E+01
  1.00800000E+00  1.00800000E+00  1.40100000E+01  1.20100000E+01  1.20100000E+01
  1.00800000E+00  1.20100000E+01  1.00800000E+00  1.60000000E+01  1.00800000E+00
  1.60000000E+01  3.09700000E+01  1.60000000E+01  1.60000000E+01  1.60000000E+01
  1.20100000E+01  1.00800000E+00  1.00800000E+00  1.20100000E+01  1.00800000E+00
  1.60000000E+01  1.20100000E+01  1.00800000E+00  1.40100000E+01  1.20100000E+01
  1.00800000E+00  1.20100000E+01  1.00800000E+00  1.20100000E+01  1.60000000E+01
  1.40100000E+01  1.00800000E+00  1.20100000E+01  1.60000000E+01  1.20100000E+01
  1.00800000E+00  1.20100000E+01  1.00800000E+00  1.60000000E+01  1.00800000E+00
  1.60000000E+01  3.09700000E+01  1.60000000E+01  1.60000000E+01  1.60000000E+01
  1.20100000E+01  1.00800000E+00  1.00800000E+00  1.20100000E+01  1.00800000E+00
  1.60000000E+01  1.20100000E+01  1.00800000E+00  1.40100000E+01  1.20100000E+01
  1.00800000E+00  1.20100000E+01  1.00800000E+00  1.20100000E+01  1.40100000E+01
  1.00800000E+00  1.00800000E+00  1.40100000E+01  1.20100000E+01  1.60000000E+01
  1.20100000E+01  1.00800000E+00  1.20100000E+01  1.00800000E+00  1.60000000E+01
  1.00800000E+00  1.60000000E+01  1.00800000E+00  2.29900000E+01  2.29900000E+01
  2.29900000E+01  2.29900000E+01  2.29900000E+01  2.29900000E+01  2.29900000E+01
  2.29900000E+01  2.29900000E+01  2.29900000E+01  2.29900000E+01  2.29900000E+01
  2.29900000E+01  2.29900000E+01  2.29900000E+01  2.29900000E+01  2.29900000E+01
  2.29900000E+01  2.29900000E+01  2.29900000E+01  2.29900000E+01  2.29900000E+01
  2.29900000E+01  2.29900000E+01  2.29900000E+01  2.29900000E+01  2.29900000E+01
  2.29900000E+01  2.29900000E+01  2.29900000E+01  2.29900000E+01  2.29900000E+01
  2.29900000E+01  2.29900000E+01  2.29900000E+01  2.29900000E+01  2.29900000E+01
  2.29900000E+01  2.29900000E+01  2.29900000E+01  2.29900000E+01  2.29900000E+01
  2.29900000E+01  2.29900000E+01  2.29900000E+01  2.29900000E+01  2.29900000E+01
  2.29900000E+01  2.29900000E+01  2.29900000E+01  2.29900000E+01  2.29900000E+01
  2.29900000E+01  2.29900000E+01  2.29900000E+01  2.29900000E+01  2.29900000E+01
  2.29900000E+01  2.29900000E+01  2.29900000E+01  2.29900000E+01  2.29900000E+01
  2.29900000E+01  2.29900000E+01  2.29900000E+01  2.29900000E+01  2.29900000E+01
  2.29900000E+01  3.54500000E+01  2.29900000E+01  3.54500000E+01  2.29900000E+01
  3.54500000E+01  2.29900000E+01  3.54500000E+01  2.29900000E+01  3.54500000E+01
  2.29900000E+01  3.54500000E+01  2.29900000E+01  3.54500000E+01  2.29900000E+01
  3.54500000E+01  2.29900000E+01  3.54500000E+01  2.29900000E+01  3.54500000E+01
  2.29900000E+01  3.54500000E+01  2.29900000E+01  3.54500000E+01  2.29900000E+01
  3.54500000E+01  2.29900000E+01  3.54500000E+01  2.29900000E+01  3.54500000E+01
  2.29900000E+01  3.54500000E+01  2.29900000E+01  3.54500000E+01  2.29900000E+01
  3.54500000E+01  2.29900000E+01  3.54500000E+01  2.29900000E+01  3.54500000E+01
  2.29900000E+01  3.54500000E+01  2.29900000E+01  3.54500000E+01  2.29900000E+01
  3.54500000E+01  2.29900000E+01  3.54500000E+01  2.29900000E+01  3.54500000E+01
  2.29900000E+01  3.54500000E+01  2.29900000E+01  3.54500000E+01  2.29900000E+01
  3.54500000E+01  2.29900000E+01  3.54500000E+01  2.29900000E+01  3.54500000E+01
  2.29900000E+01  3.54500000E+01  2.29900000E+01  3.54500000E+01  1.60000000E+01
  1.20100000E+01  1.40100000E+01  1.20100000E+01  1.20100000E+01  1.90000000E+01
  1.90000000E+01  1.90000000E+01  1.40100000E+01  1.20100000E+01  1.20100000E+01
  1.40100000E+01  1.20100000E+01  1.40100000E+01  1.00800000E+00  1.00800000E+00
  1.00800000E+00  1.60000000E+01  1.00800000E+00  1.00800000E+00  0.00000000E+00
  1.60000000E+01  1.00800000E+00  1.00800000E+00  0.00000000E+00  1.60000000E+01
  1.00800000E+00  1.00800000E+00  0.00000000E+00  1.60000000E+01  1.00800000E+00
  1.00800000E+00  0.00000000E+00  1.60000000E+01  1.00800000E+00  1.00800000E+00
  0.00000000E+00  1.60000000E+01  1.00800000E+00  1.00800000E+00  0.00000000E+00
  1.60000000E+01  1.00800000E+00  1.00800000E+00  0.00000000E+00  1.60000000E+01
  1.00800000E+00  1.00800000E+00  0.00000000E+00  1.60000000E+01  1.00800000E+00
  1.00800000E+00  0.00000000E+00  1.60000000E+01  1.00800000E+00  1.00800000E+00
  0.00000000E+00  1.60000000E+01  1.00800000E+00  1.00800000E+00  0.00000000E+00
  1.60000000E+01  1.00800000E+00  1.00800000E+00  0.00000000E+00  1.60000000E+01
  1.00800000E+00  1.00800000E+00  0.00000000E+00  1.60000000E+01  1.00800000E+00
  1.00800000E+00  0.00000000E+00  1.60000000E+01  1.00800000E+00  1.00800000E+00
  0.00000000E+00  1.60000000E+01  1.00800000E+00  1.00800000E+00  0.00000000E+00
  1.60000000E+01  1.00800000E+00  1.00800000E+00  0.00000000E+00  1.60000000E+01
  1.00800000E+00  1.00800000E+00  0.00000000E+00  1.60000000E+01  1.00800000E+00
  1.00800000E+00  0.00000000E+00  1.60000000E+01  1.00800000E+00  1.00800000E+00
  0.00000000E+00  1.60000000E+01  1.00800000E+00  1.00800000E+00  0.00000000E+00
  1.60000000E+01  1.00800000E+00  1.00800000E+00  0.00000000E+00  1.60000000E+01
  1.00800000E+00  1.00800000E+00  0.00000000E+00  1.60000000E+01  1.00800000E+00
  1.00800000E+00  0.00000000E+00  1.60000000E+01  1.00800000E+00  1.00800000E+00
  0.00000000E+00  1.60000000E+01  1.00800000E+00  1.00800000E+00  0.00000000E+00
  1.60000000E+01  1.00800000E+00  1.00800000E+00  0.00000000E+00  1.60000000E+01
  1.00800000E+00  1.00800000E+00  0.00000000E+00  1.60000000E+01  1.00800000E+00
  1.00800000E+00  0.00000000E+00  1.60000000E+01  1.00800000E+00  1.00800000E+00
  0.00000000E+00  1.60000000E+01  1.00800000E+00  1.00800000E+00  0.00000000E+00
  1.60000000E+01  1.00800000E+00  1.00800000E+00  0.00000000E+00  1.60000000E+01
  1.00800000E+00  1.00800000E+00  0.00000000E+00  1.60000000E+01  1.00800000E+00
  1.00800000E+00  0.00000000E+00  1.60000000E+01  1.00800000E+00  1.00800000E+00
  0.00000000E+00  1.60000000E+01  1.00800000E+00  1.00800000E+00  0.00000000E+00
  1.60000000E+01  1.00800000E+00  1.00800000E+00  0.00000000E+00  1.60000000E+01
  1.00800000E+00  1.00800000E+00  0.00000000E+00  1.60000000E+01  1.00800000E+00
  1.00800000E+00  0.00000000E+00  1.60000000E+01  1.00800000E+00  1.00800000E+00
  0.00000000E+00  1.60000000E+01  1.00800000E+00  1.00800000E+00  0.00000000E+00
  1.60000000E+01  1.00800000E+00  1.00800000E+00  0.00000000E+00  1.60000000E+01
  1.00800000E+00  1.00800000E+00  0.00000000E+00  1.60000000E+01  1.00800000E+00
  1.00800000E+00  0.00000000E+00  1.60000000E+01  1.00800000E+00  1.00800000E+00
  0.00000000E+00  1.60000000E+01  1.00800000E+00  1.00800000E+00  0.00000000E+00
  1.60000000E+01  1.00800000E+00  1.00800000E+00  0.00000000E+00  1.60000000E+01
  1.00800000E+00  1.00800000E+00  0.00000000E+00  1.60000000E+01  1.00800000E+00
  1.00800000E+00  0.00000000E+00  1.60000000E+01  1.00800000E+00  1.00800000E+00
  0.00000000E+00  1.60000000E+01  1.00800000E+00  1.00800000E+00  0.00000000E+00
  1.60000000E+01  1.00800000E+00  1.00800000E+00  0.00000000E+00  1.60000000E+01
  1.00800000E+00  1.00800000E+00  0.00000000E+00  1.60000000E+01  1.00800000E+00
  1.00800000E+00  0.00000000E+00  1.60000000E+01  1.00800000E+00  1.00800000E+00
  0.00000000E+00  1.60000000E+01  1.00800000E+00  1.00800000E+00  0.00000000E+00
  1.60000000E+01  1.00800000E+00  1.00800000E+00  0.00000000E+00  1.60000000E+01
  1.00800000E+00  1.00800000E+00  0.00000000E+00  1.60000000E+01  1.00800000E+00
  1.00800000E+00  0.00000000E+00  1.60000000E+01  1.00800000E+00  1.00800000E+00
  0.00000000E+00  1.60000000E+01  1.00800000E+00  1.00800000E+00  0.00000000E+00
  1.60000000E+01  1.00800000E+00  1.00800000E+00  0.00000000E+00  1.60000000E+01
  1.00800000E+00  1.00800000E+00  0.00000000E+00  1.60000000E+01  1.00800000E+00
  1.00800000E+00  0.00000000E+00  1.60000000E+01  1.00800000E+00  1.00800000E+00
  0.00000000E+00  1.60000000E+01  1.00800000E+00  1.00800000E+00  0.00000000E+00
  1.60000000E+01  1.00800000E+00  1.00800000E+00  0.00000000E+00  1.60000000E+01
  1.00800000E+00  1.00800000E+00  0.00000000E+00  1.60000000E+01  1.00800000E+00
  1.00800000E+00  0.00000000E+00  1.60000000E+01  1.00800000E+00  1.00800000E+00
  0.00000000E+00  1.60000000E+01  1.00800000E+00  1.00800000E+00  0.00000000E+00
  1.60000000E+01  1.00800000E+00  1.00800000E+00  0.00000000E+00  1.60000000E+01
  1.00800000E+00  1.00800000E+00  0.00000000E+00  1.60000000E+01  1.00800000E+00
  1.00800000E+00  0.00000000E+00  1.60000000E+01  1.00800000E+00  1.00800000E+00
  0.00000000E+00  1.60000000E+01  1.00800000E+00  1.00800000E+00  0.00000000E+00
  1.60000000E+01  1.00800000E+00  1.00800000E+00  0.00000000E+00  1.60000000E+01
  1.00800000E+00  1.00800000E+00  0.00000000E+00  1.60000000E+01  1.00800000E+00
  1.00800000E+00  0.00000000E+00  1.60000000E+01  1.00800000E+00  1.00800000E+00
  0.00000000E+00  1.60000000E+01  1.00800000E+00  1.00800000E+00  0.00000000E+00
  1.60000000E+01  1.00800000E+00  1.00800000E+00  0.00000000E+00  1.60000000E+01
  1.00800000E+00  1.00800000E+00  0.00000000E+00  1.60000000E+01  1.00800000E+00
  1.00800000E+00  0.00000000E+00  1.60000000E+01  1.00800000E+00  1.00800000E+00
  0.00000000E+00  1.60000000E+01  1.00800000E+00  1.00800000E+00  0.00000000E+00
  1.60000000E+01  1.00800000E+00  1.00800000E+00  0.00000000E+00  1.60000000E+01
  1.00800000E+00  1.00800000E+00  0.00000000E+00  1.60000000E+01  1.00800000E+00
  1.00800000E+00  0.00000000E+00  1.60000000E+01  1.00800000E+00  1.00800000E+00
  0.00000000E+00  1.60000000E+01  1.00800000E+00  1.00800000E+00  0.00000000E+00
  1.60000000E+01  1.00800000E+00  1.00800000E+00  0.00000000E+00  1.60000000E+01
  1.00800000E+00  1.00800000E+00  0.00000000E+00  1.60000000E+01  1.00800000E+00
  1.00800000E+00  0.00000000E+00  1.60000000E+01  1.00800000E+00  1.00800000E+00
  0.00000000E+00  1.60000000E+01  1.00800000E+00  1.00800000E+00  0.00000000E+00
  1.60000000E+01  1.00800000E+00  1.00800000E+00  0.00000000E+00  1.60000000E+01
  1.00800000E+00  1.00800000E+00  0.00000000E+00  1.60000000E+01  1.00800000E+00
  1.00800000E+00  0.00000000E+00  1.60000000E+01  1.00800000E+00  1.00800000E+00
  0.00000000E+00  1.60000000E+01  1.00800000E+00  1.00800000E+00  0.00000000E+00
  1.60000000E+01  1.00800000E+00  1.00800000E+00  0.00000000E+00  1.60000000E+01
  1.00800000E+00  1.00800000E+00  0.00000000E+00  1.60000000E+01  1.00800000E+00
  1.00800000E+00  0.00000000E+00  1.60000000E+01  1.00800000E+00  1.00800000E+00
  0.00000000E+00  1.60000000E+01  1.00800000E+00  1.00800000E+00  0.00000000E+00
  1.60000000E+01  1.00800000E+00  1.00800000E+00  0.00000000E+00  1.60000000E+01
  1.00800000E+00  1.00800000E+00  0.00000000E+00  1.60000000E+01  1.00800000E+00
  1.00800000E+00  0.00000000E+00  1.60000000E+01  1.00800000E+00  1.00800000E+00
  0.00000000E+00  1.60000000E+01  1.00800000E+00  1.00800000E+00  0.00000000E+00
  1.60000000E+01  1.00800000E+00  1.00800000E+00  0.00000000E+00  1.60000000E+01
  1.00800000E+00  1.00800000E+00  0.00000000E+00  1.60000000E+01  1.00800000E+00
  1.00800000E+00  0.00000000E+00  1.60000000E+01  1.00800000E+00  1.00800000E+00
  0.00000000E+00  1.60000000E+01  1.00800000E+00  1.00800000E+00  0.00000000E+00
  1.60000000E+01  1.00800000E+00  1.00800000E+00  0.00000000E+00  1.60000000E+01
  1.00800000E+00  1.00800000E+00  0.00000000E+00  1.60000000E+01  1.00800000E+00
  1.00800000E+00  0.00000000E+00  1.60000000E+01  1.00800000E+00  1.00800000E+00
  0.00000000E+00  1.60000000E+01  1.00800000E+00  1.00800000E+00  0.00000000E+00
  1.60000000E+01  1.00800000E+00  1.00800000E+00  0.00000000E+00  1.60000000E+01
  1.00800000E+00  1.00800000E+00  0.00000000E+00  1.60000000E+01  1.00800000E+00
  1.00800000E+00  0.00000000E+00  1.60000000E+01  1.00800000E+00  1.00800000E+00
  0.00000000E+00  1.60000000E+01  1.00800000E+00  1.00800000E+00  0.00000000E+00
  1.60000000E+01  1.00800000E+00  1.00800000E+00  0.00000000E+00  1.60000000E+01
  1.00800000E+00  1.00800000E+00  0.00000000E+00  1.60000000E+01  1.00800000E+00
  1.00800000E+00  0.00000000E+00  1.60000000E+01  1.00800000E+00  1.00800000E+00
  0.00000000E+00  1.60000000E+01  1.00800000E+00  1.00800000E+00  0.00000000E+00
  1.60000000E+01  1.00800000E+00  1.00800000E+00  0.00000000E+00  1.60000000E+01
  1.00800000E+00  1.00800000E+00  0.00000000E+00  1.60000000E+01  1.00800000E+00
  1.00800000E+00  0.00000000E+00  1.60000000E+01  1.00800000E+00  1.00800000E+00
  0.00000000E+00  1.60000000E+01  1.00800000E+00  1.00800000E+00  0.00000000E+00
  1.60000000E+01  1.00800000E+00  1.00800000E+00  0.00000000E+00  1.60000000E+01
  1.00800000E+00  1.00800000E+00  0.00000000E+00  1.60000000E+01  1.00800000E+00
  1.00800000E+00  0.00000000E+00  1.60000000E+01  1.00800000E+00  1.00800000E+00
  0.00000000E+00  1.60000000E+01  1.00800000E+00  1.00800000E+00  0.00000000E+00
  1.60000000E+01  1.00800000E+00  1.00800000E+00  0.00000000E+00  1.60000000E+01
  1.00800000E+00  1.00800000E+00  0.00000000E+00  1.60000000E+01  1.00800000E+00
  1.00800000E+00  0.00000000E+00  1.60000000E+01  1.00800000E+00  1.00800000E+00
  0.00000000E+00  1.60000000E+01  1.00800000E+00  1.00800000E+00  0.00000000E+00
  1.60000000E+01  1.00800000E+00  1.00800000E+00  0.00000000E+00  1.60000000E+01
  1.00800000E+00  1.00800000E+00  0.00000000E+00  1.60000000E+01  1.00800000E+00
  1.00800000E+00  0.00000000E+00  1.60000000E+01  1.00800000E+00  1.00800000E+00
  0.00000000E+00  1.60000000E+01  1.00800000E+00  1.00800000E+00  0.00000000E+00
  1.60000000E+01  1.00800000E+00  1.00800000E+00  0.00000000E+00  1.60000000E+01
  1.00800000E+00  1.00800000E+00  0.00000000E+00  1.60000000E+01  1.00800000E+00
  1.00800000E+00  0.00000000E+00  1.60000000E+01  1.00800000E+00  1.00800000E+00
  0.00000000E+00  1.60000000E+01  1.00800000E+00  1.00800000E+00  0.00000000E+00
  1.60000000E+01  1.00800000E+00  1.00800000E+00  0.00000000E+00  1.60000000E+01
  1.00800000E+00  1.00800000E+00  0.00000000E+00  1.60000000E+01  1.00800000E+00
  1.00800000E+00  0.00000000E+00  1.60000000E+01  1.00800000E+00  1.00800000E+00
  0.00000000E+00  1.60000000E+01  1.00800000E+00  1.00800000E+00  0.00000000E+00
  1.60000000E+01  1.00800000E+00  1.00800000E+00  0.00000000E+00  1.60000000E+01
  1.00800000E+00  1.00800000E+00  0.00000000E+00  1.60000000E+01  1.00800000E+00
  1.00800000E+00  0.00000000E+00  1.60000000E+01  1.00800000E+00  1.00800000E+00
  0.00000000E+00  1.60000000E+01  1.00800000E+00  1.00800000E+00  0.00000000E+00
  1.60000000E+01  1.00800000E+00  1.00800000E+00  0.00000000E+00  1.60000000E+01
  1.00800000E+00  1.00800000E+00  0.00000000E+00  1.60000000E+01  1.00800000E+00
  1.00800000E+00  0.00000000E+00  1.60000000E+01  1.00800000E+00  1.00800000E+00
  0.00000000E+00  1.60000000E+01  1.00800000E+00  1.00800000E+00  0.00000000E+00
  1.60000000E+01  1.00800000E+00  1.00800000E+00  0.00000000E+00  1.60000000E+01
  1.00800000E+00  1.00800000E+00  0.00000000E+00  1.60000000E+01  1.00800000E+00
  1.00800000E+00  0.00000000E+00  1.60000000E+01  1.00800000E+00  1.00800000E+00
  0.00000000E+00  1.60000000E+01  1.00800000E+00  1.00800000E+00  0.00000000E+00
  1.60000000E+01  1.00800000E+00  1.00800000E+00  0.00000000E+00  1.60000000E+01
  1.00800000E+00  1.00800000E+00  0.00000000E+00  1.60000000E+01  1.00800000E+00
  1.00800000E+00  0.00000000E+00  1.60000000E+01  1.00800000E+00  1.00800000E+00
  0.00000000E+00  1.60000000E+01  1.00800000E+00  1.00800000E+00  0.00000000E+00
  1.60000000E+01  1.00800000E+00  1.00800000E+00  0.00000000E+00  1.60000000E+01
  1.00800000E+00  1.00800000E+00  0.00000000E+00  1.60000000E+01  1.00800000E+00
  1.00800000E+00  0.00000000E+00  1.60000000E+01  1.00800000E+00  1.00800000E+00
  0.00000000E+00  1.60000000E+01  1.00800000E+00  1.00800000E+00  0.00000000E+00
  1.60000000E+01  1.00800000E+00  1.00800000E+00  0.00000000E+00  1.60000000E+01
  1.00800000E+00  1.00800000E+00  0.00000000E+00  1.60000000E+01  1.00800000E+00
  1.00800000E+00  0.00000000E+00  1.60000000E+01  1.00800000E+00  1.00800000E+00
  0.00000000E+00  1.60000000E+01  1.00800000E+00  1.00800000E+00  0.00000000E+00
  1.60000000E+01  1.00800000E+00  1.00800000E+00  0.00000000E+00  1.60000000E+01
  1.00800000E+00  1.00800000E+00  0.00000000E+00  1.60000000E+01  1.00800000E+00
  1.00800000E+00  0.00000000E+00  1.60000000E+01  1.00800000E+00  1.00800000E+00
  0.00000000E+00  1.60000000E+01  1.00800000E+00  1.00800000E+00  0.00000000E+00
  1.60000000E+01  1.00800000E+00  1.00800000E+00  0.00000000E+00  1.60000000E+01
  1.00800000E+00  1.00800000E+00  0.00000000E+00  1.60000000E+01  1.00800000E+00
  1.00800000E+00  0.00000000E+00  1.60000000E+01  1.00800000E+00  1.00800000E+00
  0.00000000E+00  1.60000000E+01  1.00800000E+00  1.00800000E+00  0.00000000E+00
  1.60000000E+01  1.00800000E+00  1.00800000E+00  0.00000000E+00  1.60000000E+01
  1.00800000E+00  1.00800000E+00  0.00000000E+00  1.60000000E+01  1.00800000E+00
  1.00800000E+00  0.00000000E+00  1.60000000E+01  1.00800000E+00  1.00800000E+00
  0.00000000E+00  1.60000000E+01  1.00800000E+00  1.00800000E+00  0.00000000E+00
  1.60000000E+01  1.00800000E+00  1.00800000E+00  0.00000000E+00  1.60000000E+01
  1.00800000E+00  1.00800000E+00  0.00000000E+00  1.60000000E+01  1.00800000E+00
  1.00800000E+00  0.00000000E+00  1.60000000E+01  1.00800000E+00  1.00800000E+00
  0.00000000E+00  1.60000000E+01  1.00800000E+00  1.00800000E+00  0.00000000E+00
  1.60000000E+01  1.00800000E+00  1.00800000E+00  0.00000000E+00  1.60000000E+01
  1.00800000E+00  1.00800000E+00  0.00000000E+00  1.60000000E+01  1.00800000E+00
  1.00800000E+00  0.00000000E+00  1.60000000E+01  1.00800000E+00  1.00800000E+00
  0.00000000E+00  1.60000000E+01  1.00800000E+00  1.00800000E+00  0.00000000E+00
  1.60000000E+01  1.00800000E+00  1.00800000E+00  0.00000000E+00  1.60000000E+01
  1.00800000E+00  1.00800000E+00  0.00000000E+00  1.60000000E+01  1.00800000E+00
  1.00800000E+00  0.00000000E+00  1.60000000E+01  1.00800000E+00  1.00800000E+00
  0.00000000E+00  1.60000000E+01  1.00800000E+00  1.00800000E+00  0.00000000E+00
  1.60000000E+01  1.00800000E+00  1.00800000E+00  0.00000000E+00  1.60000000E+01
  1.00800000E+00  1.00800000E+00  0.00000000E+00  1.60000000E+01  1.00800000E+00
  1.00800000E+00  0.00000000E+00  1.60000000E+01  1.00800000E+00  1.00800000E+00
  0.00000000E+00  1.60000000E+01  1.00800000E+00  1.00800000E+00  0.00000000E+00
  1.60000000E+01  1.00800000E+00  1.00800000E+00  0.00000000E+00  1.60000000E+01
  1.00800000E+00  1.00800000E+00  0.00000000E+00  1.60000000E+01  1.00800000E+00
  1.00800000E+00  0.00000000E+00  1.60000000E+01  1.00800000E+00  1.00800000E+00
  0.00000000E+00  1.60000000E+01  1.00800000E+00  1.00800000E+00  0.00000000E+00
  1.60000000E+01  1.00800000E+00  1.00800000E+00  0.00000000E+00  1.60000000E+01
  1.00800000E+00  1.00800000E+00  0.00000000E+00  1.60000000E+01  1.00800000E+00
  1.00800000E+00  0.00000000E+00  1.60000000E+01  1.00800000E+00  1.00800000E+00
  0.00000000E+00  1.60000000E+01  1.00800000E+00  1.00800000E+00  0.00000000E+00
  1.60000000E+01  1.00800000E+00  1.00800000E+00  0.00000000E+00  1.60000000E+01
  1.00800000E+00  1.00800000E+00  0.00000000E+00  1.60000000E+01  1.00800000E+00
  1.00800000E+00  0.00000000E+00  1.60000000E+01  1.00800000E+00  1.00800000E+00
  0.00000000E+00  1.60000000E+01  1.00800000E+00  1.00800000E+00  0.00000000E+00
  1.60000000E+01  1.00800000E+00  1.00800000E+00  0.00000000E+00  1.60000000E+01
  1.00800000E+00  1.00800000E+00  0.00000000E+00  1.60000000E+01  1.00800000E+00
  1.00800000E+00  0.00000000E+00  1.60000000E+01  1.00800000E+00  1.00800000E+00
  0.00000000E+00  1.60000000E+01  1.00800000E+00  1.00800000E+00  0.00000000E+00
  1.60000000E+01  1.00800000E+00  1.00800000E+00  0.00000000E+00  1.60000000E+01
  1.00800000E+00  1.00800000E+00  0.00000000E+00  1.60000000E+01  1.00800000E+00
  1.00800000E+00  0.00000000E+00  1.60000000E+01  1.00800000E+00  1.00800000E+00
  0.00000000E+00  1.60000000E+01  1.00800000E+00  1.00800000E+00  0.00000000E+00
  1.60000000E+01  1.00800000E+00  1.00800000E+00  0.00000000E+00  1.60000000E+01
  1.00800000E+00  1.00800000E+00  0.00000000E+00  1.60000000E+01  1.00800000E+00
  1.00800000E+00  0.00000000E+00  1.60000000E+01  1.00800000E+00  1.00800000E+00
  0.00000000E+00  1.60000000E+01  1.00800000E+00  1.00800000E+00  0.00000000E+00
  1.60000000E+01  1.00800000E+00  1.00800000E+00  0.00000000E+00  1.60000000E+01
  1.00800000E+00  1.00800000E+00  0.00000000E+00  1.60000000E+01  1.00800000E+00
  1.00800000E+00  0.00000000E+00  1.60000000E+01  1.00800000E+00  1.00800000E+00
  0.00000000E+00  1.60000000E+01  1.00800000E+00  1.00800000E+00  0.00000000E+00
  1.60000000E+01  1.00800000E+00  1.00800000E+00  0.00000000E+00  1.60000000E+01
  1.00800000E+00  1.00800000E+00  0.00000000E+00  1.60000000E+01  1.00800000E+00
  1.00800000E+00  0.00000000E+00  1.60000000E+01  1.00800000E+00  1.00800000E+00
  0.00000000E+00  1.60000000E+01  1.00800000E+00  1.00800000E+00  0.00000000E+00
  1.60000000E+01  1.00800000E+00  1.00800000E+00  0.00000000E+00  1.60000000E+01
  1.00800000E+00  1.00800000E+00  0.00000000E+00  1.60000000E+01  1.00800000E+00
  1.00800000E+00  0.00000000E+00  1.60000000E+01  1.00800000E+00  1.00800000E+00
  0.00000000E+00  1.60000000E+01  1.00800000E+00  1.00800000E+00  0.00000000E+00
  1.60000000E+01  1.00800000E+00  1.00800000E+00  0.00000000E+00  1.60000000E+01
  1.00800000E+00  1.00800000E+00  0.00000000E+00  1.60000000E+01  1.00800000E+00
  1.00800000E+00  0.00000000E+00  1.60000000E+01  1.00800000E+00  1.00800000E+00
  0.00000000E+00  1.60000000E+01  1.00800000E+00  1.00800000E+00  0.00000000E+00
  1.60000000E+01  1.00800000E+00  1.00800000E+00  0.00000000E+00  1.60000000E+01
  1.00800000E+00  1.00800000E+00  0.00000000E+00  1.60000000E+01  1.00800000E+00
  1.00800000E+00  0.00000000E+00  1.60000000E+01  1.00800000E+00  1.00800000E+00
  0.00000000E+00  1.60000000E+01  1.00800000E+00  1.00800000E+00  0.00000000E+00
  1.60000000E+01  1.00800000E+00  1.00800000E+00  0.00000000E+00  1.60000000E+01
  1.00800000E+00  1.00800000E+00  0.00000000E+00  1.60000000E+01  1.00800000E+00
  1.00800000E+00  0.00000000E+00  1.60000000E+01  1.00800000E+00  1.00800000E+00
  0.00000000E+00  1.60000000E+01  1.00800000E+00  1.00800000E+00  0.00000000E+00
  1.60000000E+01  1.00800000E+00  1.00800000E+00  0.00000000E+00  1.60000000E+01
  1.00800000E+00  1.00800000E+00  0.00000000E+00  1.60000000E+01  1.00800000E+00
  1.00800000E+00  0.00000000E+00  1.60000000E+01  1.00800000E+00  1.00800000E+00
  0.00000000E+00  1.60000000E+01  1.00800000E+00  1.00800000E+00  0.00000000E+00
  1.60000000E+01  1.00800000E+00  1.00800000E+00  0.00000000E+00  1.60000000E+01
  1.00800000E+00  1.00800000E+00  0.00000000E+00  1.60000000E+01  1.00800000E+00
  1.00800000E+00  0.00000000E+00  1.60000000E+01  1.00800000E+00  1.00800000E+00
  0.00000000E+00  1.60000000E+01  1.00800000E+00  1.00800000E+00  0.00000000E+00
  1.60000000E+01  1.00800000E+00  1.00800000E+00  0.00000000E+00  1.60000000E+01
  1.00800000E+00  1.00800000E+00  0.00000000E+00  1.60000000E+01  1.00800000E+00
  1.00800000E+00  0.00000000E+00  1.60000000E+01  1.00800000E+00  1.00800000E+00
  0.00000000E+00  1.60000000E+01  1.00800000E+00  1.00800000E+00  0.00000000E+00
  1.60000000E+01  1.00800000E+00  1.00800000E+00  0.00000000E+00  1.60000000E+01
  1.00800000E+00  1.00800000E+00  0.00000000E+00  1.60000000E+01  1.00800000E+00
  1.00800000E+00  0.00000000E+00  1.60000000E+01  1.00800000E+00  1.00800000E+00
  0.00000000E+00  1.60000000E+01  1.00800000E+00  1.00800000E+00  0.00000000E+00
  1.60000000E+01  1.00800000E+00  1.00800000E+00  0.00000000E+00  1.60000000E+01
  1.00800000E+00  1.00800000E+00  0.00000000E+00  1.60000000E+01  1.00800000E+00
  1.00800000E+00  0.00000000E+00  1.60000000E+01  1.00800000E+00  1.00800000E+00
  0.00000000E+00  1.60000000E+01  1.00800000E+00  1.00800000E+00  0.00000000E+00
  1.60000000E+01  1.00800000E+00  1.00800000E+00  0.00000000E+00  1.60000000E+01
  1.00800000E+00  1.00800000E+00  0.00000000E+00  1.60000000E+01  1.00800000E+00
  1.00800000E+00  0.00000000E+00  1.60000000E+01  1.00800000E+00  1.00800000E+00
  0.00000000E+00  1.60000000E+01  1.00800000E+00  1.00800000E+00  0.00000000E+00
  1.60000000E+01  1.00800000E+00  1.00800000E+00  0.00000000E+00  1.60000000E+01
  1.00800000E+00  1.00800000E+00  0.00000000E+00  1.60000000E+01  1.00800000E+00
  1.00800000E+00  0.00000000E+00  1.60000000E+01  1.00800000E+00  1.00800000E+00
  0.00000000E+00  1.60000000E+01  1.00800000E+00  1.00800000E+00  0.00000000E+00
  1.60000000E+01  1.00800000E+00  1.00800000E+00  0.00000000E+00  1.60000000E+01
  1.00800000E+00  1.00800000E+00  0.00000000E+00  1.60000000E+01  1.00800000E+00
  1.00800000E+00  0.00000000E+00  1.60000000E+01  1.00800000E+00  1.00800000E+00
  0.00000000E+00  1.60000000E+01  1.00800000E+00  1.00800000E+00  0.00000000E+00
  1.60000000E+01  1.00800000E+00  1.00800000E+00  0.00000000E+00  1.60000000E+01
  1.00800000E+00  1.00800000E+00  0.00000000E+00  1.60000000E+01  1.00800000E+00
  1.00800000E+00  0.00000000E+00  1.60000000E+01  1.00800000E+00  1.00800000E+00
  0.00000000E+00  1.60000000E+01  1.00800000E+00  1.00800000E+00  0.00000000E+00
  1.60000000E+01  1.00800000E+00  1.00800000E+00  0.00000000E+00  1.60000000E+01
  1.00800000E+00  1.00800000E+00  0.00000000E+00  1.60000000E+01  1.00800000E+00
  1.00800000E+00  0.00000000E+00  1.60000000E+01  1.00800000E+00  1.00800000E+00
  0.00000000E+00  1.60000000E+01  1.00800000E+00  1.00800000E+00  0.00000000E+00
  1.60000000E+01  1.00800000E+00  1.00800000E+00  0.00000000E+00  1.60000000E+01
  1.00800000E+00  1.00800000E+00  0.00000000E+00  1.60000000E+01  1.00800000E+00
  1.00800000E+00  0.00000000E+00  1.60000000E+01  1.00800000E+00  1.00800000E+00
  0.00000000E+00  1.60000000E+01  1.00800000E+00  1.00800000E+00  0.00000000E+00
  1.60000000E+01  1.00800000E+00  1.00800000E+00  0.00000000E+00  1.60000000E+01
  1.00800000E+00  1.00800000E+00  0.00000000E+00  1.60000000E+01  1.00800000E+00
  1.00800000E+00  0.00000000E+00  1.60000000E+01  1.00800000E+00  1.00800000E+00
  0.00000000E+00  1.60000000E+01  1.00800000E+00  1.00800000E+00  0.00000000E+00
  1.60000000E+01  1.00800000E+00  1.00800000E+00  0.00000000E+00  1.60000000E+01
  1.00800000E+00  1.00800000E+00  0.00000000E+00  1.60000000E+01  1.00800000E+00
  1.00800000E+00  0.00000000E+00  1.60000000E+01  1.00800000E+00  1.00800000E+00
  0.00000000E+00  1.60000000E+01  1.00800000E+00  1.00800000E+00  0.00000000E+00
  1.60000000E+01  1.00800000E+00  1.00800000E+00  0.00000000E+00  1.60000000E+01
  1.00800000E+00  1.00800000E+00  0.00000000E+00  1.60000000E+01  1.00800000E+00
  1.00800000E+00  0.00000000E+00  1.60000000E+01  1.00800000E+00  1.00800000E+00
  0.00000000E+00  1.60000000E+01  1.00800000E+00  1.00800000E+00  0.00000000E+00
  1.60000000E+01  1.00800000E+00  1.00800000E+00  0.00000000E+00  1.60000000E+01
  1.00800000E+00  1.00800000E+00  0.00000000E+00  1.60000000E+01  1.00800000E+00
  1.00800000E+00  0.00000000E+00  1.60000000E+01  1.00800000E+00  1.00800000E+00
  0.00000000E+00  1.60000000E+01  1.00800000E+00  1.00800000E+00  0.00000000E+00
  1.60000000E+01  1.00800000E+00  1.00800000E+00  0.00000000E+00  1.60000000E+01
  1.00800000E+00  1.00800000E+00  0.00000000E+00  1.60000000E+01  1.00800000E+00
  1.00800000E+00  0.00000000E+00  1.60000000E+01  1.00800000E+00  1.00800000E+00
  0.00000000E+00  1.60000000E+01  1.00800000E+00  1.00800000E+00  0.00000000E+00
  1.60000000E+01  1.00800000E+00  1.00800000E+00  0.00000000E+00  1.60000000E+01
  1.00800000E+00  1.00800000E+00  0.00000000E+00  1.60000000E+01  1.00800000E+00
  1.00800000E+00  0.00000000E+00  1.60000000E+01  1.00800000E+00  1.00800000E+00
  0.00000000E+00  1.60000000E+01  1.00800000E+00  1.00800000E+00  0.00000000E+00
  1.60000000E+01  1.00800000E+00  1.00800000E+00  0.00000000E+00  1.60000000E+01
  1.00800000E+00  1.00800000E+00  0.00000000E+00  1.60000000E+01  1.00800000E+00
  1.00800000E+00  0.00000000E+00  1.60000000E+01  1.00800000E+00  1.00800000E+00
  0.00000000E+00  1.60000000E+01  1.00800000E+00  1.00800000E+00  0.00000000E+00
  1.60000000E+01  1.00800000E+00  1.00800000E+00  0.00000000E+00  1.60000000E+01
  1.00800000E+00  1.00800000E+00  0.00000000E+00  1.60000000E+01  1.00800000E+00
  1.00800000E+00  0.00000000E+00  1.60000000E+01  1.00800000E+00  1.00800000E+00
  0.00000000E+00  1.60000000E+01  1.00800000E+00  1.00800000E+00  0.00000000E+00
  1.60000000E+01  1.00800000E+00  1.00800000E+00  0.00000000E+00  1.60000000E+01
  1.00800000E+00  1.00800000E+00  0.00000000E+00  1.60000000E+01  1.00800000E+00
  1.00800000E+00  0.00000000E+00  1.60000000E+01  1.00800000E+00  1.00800000E+00
  0.00000000E+00  1.60000000E+01  1.00800000E+00  1.00800000E+00  0.00000000E+00
  1.60000000E+01  1.00800000E+00  1.00800000E+00  0.00000000E+00  1.60000000E+01
  1.00800000E+00  1.00800000E+00  0.00000000E+00  1.60000000E+01  1.00800000E+00
  1.00800000E+00  0.00000000E+00  1.60000000E+01  1.00800000E+00  1.00800000E+00
  0.00000000E+00  1.60000000E+01  1.00800000E+00  1.00800000E+00  0.00000000E+00
  1.60000000E+01  1.00800000E+00  1.00800000E+00  0.00000000E+00  1.60000000E+01
  1.00800000E+00  1.00800000E+00  0.00000000E+00  1.60000000E+01  1.00800000E+00
  1.00800000E+00  0.00000000E+00  1.60000000E+01  1.00800000E+00  1.00800000E+00
  0.00000000E+00  1.60000000E+01  1.00800000E+00  1.00800000E+00  0.00000000E+00
  1.60000000E+01  1.00800000E+00  1.00800000E+00  0.00000000E+00  1.60000000E+01
  1.00800000E+00  1.00800000E+00  0.00000000E+00  1.60000000E+01  1.00800000E+00
  1.00800000E+00  0.00000000E+00  1.60000000E+01  1.00800000E+00  1.00800000E+00
  0.00000000E+00  1.60000000E+01  1.00800000E+00  1.00800000E+00  0.00000000E+00
  1.60000000E+01  1.00800000E+00  1.00800000E+00  0.00000000E+00  1.60000000E+01
  1.00800000E+00  1.00800000E+00  0.00000000E+00  1.60000000E+01  1.00800000E+00
  1.00800000E+00  0.00000000E+00  1.60000000E+01  1.00800000E+00  1.00800000E+00
  0.00000000E+00  1.60000000E+01  1.00800000E+00  1.00800000E+00  0.00000000E+00
  1.60000000E+01  1.00800000E+00  1.00800000E+00  0.00000000E+00  1.60000000E+01
  1.00800000E+00  1.00800000E+00  0.00000000E+00  1.60000000E+01  1.00800000E+00
  1.00800000E+00  0.00000000E+00  1.60000000E+01  1.00800000E+00  1.00800000E+00
  0.00000000E+00  1.60000000E+01  1.00800000E+00  1.00800000E+00  0.00000000E+00
  1.60000000E+01  1.00800000E+00  1.00800000E+00  0.00000000E+00  1.60000000E+01
  1.00800000E+00  1.00800000E+00  0.00000000E+00  1.60000000E+01  1.00800000E+00
  1.00800000E+00  0.00000000E+00  1.60000000E+01  1.00800000E+00  1.00800000E+00
  0.00000000E+00  1.60000000E+01  1.00800000E+00  1.00800000E+00  0.00000000E+00
  1.60000000E+01  1.00800000E+00  1.00800000E+00  0.00000000E+00  1.60000000E+01
  1.00800000E+00  1.00800000E+00  0.00000000E+00  1.60000000E+01  1.00800000E+00
  1.00800000E+00  0.00000000E+00  1.60000000E+01  1.00800000E+00  1.00800000E+00
  0.00000000E+00  1.60000000E+01  1.00800000E+00  1.00800000E+00  0.00000000E+00
  1.60000000E+01  1.00800000E+00  1.00800000E+00  0.00000000E+00  1.60000000E+01
  1.00800000E+00  1.00800000E+00  0.00000000E+00  1.60000000E+01  1.00800000E+00
  1.00800000E+00  0.00000000E+00  1.60000000E+01  1.00800000E+00  1.00800000E+00
  0.00000000E+00  1.60000000E+01  1.00800000E+00  1.00800000E+00  0.00000000E+00
  1.60000000E+01  1.00800000E+00  1.00800000E+00  0.00000000E+00  1.60000000E+01
  1.00800000E+00  1.00800000E+00  0.00000000E+00  1.60000000E+01  1.00800000E+00
  1.00800000E+00  0.00000000E+00  1.60000000E+01  1.00800000E+00  1.00800000E+00
  0.00000000E+00  1.60000000E+01  1.00800000E+00  1.00800000E+00  0.00000000E+00
  1.60000000E+01  1.00800000E+00  1.00800000E+00  0.00000000E+00  1.60000000E+01
  1.00800000E+00  1.00800000E+00  0.00000000E+00  1.60000000E+01  1.00800000E+00
  1.00800000E+00  0.00000000E+00  1.60000000E+01  1.00800000E+00  1.00800000E+00
  0.00000000E+00  1.60000000E+01  1.00800000E+00  1.00800000E+00  0.00000000E+00
  1.60000000E+01  1.00800000E+00  1.00800000E+00  0.00000000E+00  1.60000000E+01
  1.00800000E+00  1.00800000E+00  0.00000000E+00  1.60000000E+01  1.00800000E+00
  1.00800000E+00  0.00000000E+00  1.60000000E+01  1.00800000E+00  1.00800000E+00
  0.00000000E+00  1.60000000E+01  1.00800000E+00  1.00800000E+00  0.00000000E+00
  1.60000000E+01  1.00800000E+00  1.00800000E+00  0.00000000E+00  1.60000000E+01
  1.00800000E+00  1.00800000E+00  0.00000000E+00  1.60000000E+01  1.00800000E+00
  1.00800000E+00  0.00000000E+00  1.60000000E+01  1.00800000E+00  1.00800000E+00
  0.00000000E+00  1.60000000E+01  1.00800000E+00  1.00800000E+00  0.00000000E+00
  1.60000000E+01  1.00800000E+00  1.00800000E+00  0.00000000E+00  1.60000000E+01
  1.00800000E+00  1.00800000E+00  0.00000000E+00  1.60000000E+01  1.00800000E+00
  1.00800000E+00  0.00000000E+00  1.60000000E+01  1.00800000E+00  1.00800000E+00
  0.00000000E+00  1.60000000E+01  1.00800000E+00  1.00800000E+00  0.00000000E+00
  1.60000000E+01  1.00800000E+00  1.00800000E+00  0.00000000E+00  1.60000000E+01
  1.00800000E+00  1.00800000E+00  0.00000000E+00  1.60000000E+01  1.00800000E+00
  1.00800000E+00  0.00000000E+00  1.60000000E+01  1.00800000E+00  1.00800000E+00
  0.00000000E+00  1.60000000E+01  1.00800000E+00  1.00800000E+00  0.00000000E+00
  1.60000000E+01  1.00800000E+00  1.00800000E+00  0.00000000E+00  1.60000000E+01
  1.00800000E+00  1.00800000E+00  0.00000000E+00  1.60000000E+01  1.00800000E+00
  1.00800000E+00  0.00000000E+00  1.60000000E+01  1.00800000E+00  1.00800000E+00
  0.00000000E+00  1.60000000E+01  1.00800000E+00  1.00800000E+00  0.00000000E+00
  1.60000000E+01  1.00800000E+00  1.00800000E+00  0.00000000E+00  1.60000000E+01
  1.00800000E+00  1.00800000E+00  0.00000000E+00  1.60000000E+01  1.00800000E+00
  1.00800000E+00  0.00000000E+00  1.60000000E+01  1.00800000E+00  1.00800000E+00
  0.00000000E+00  1.60000000E+01  1.00800000E+00  1.00800000E+00  0.00000000E+00
  1.60000000E+01  1.00800000E+00  1.00800000E+00  0.00000000E+00  1.60000000E+01
  1.00800000E+00  1.00800000E+00  0.00000000E+00  1.60000000E+01  1.00800000E+00
  1.00800000E+00  0.00000000E+00  1.60000000E+01  1.00800000E+00  1.00800000E+00
  0.00000000E+00  1.60000000E+01  1.00800000E+00  1.00800000E+00  0.00000000E+00
  1.60000000E+01  1.00800000E+00  1.00800000E+00  0.00000000E+00  1.60000000E+01
  1.00800000E+00  1.00800000E+00  0.00000000E+00  1.60000000E+01  1.00800000E+00
  1.00800000E+00  0.00000000E+00  1.60000000E+01  1.00800000E+00  1.00800000E+00
  0.00000000E+00  1.60000000E+01  1.00800000E+00  1.00800000E+00  0.00000000E+00
  1.60000000E+01  1.00800000E+00  1.00800000E+00  0.00000000E+00  1.60000000E+01
  1.00800000E+00  1.00800000E+00  0.00000000E+00  1.60000000E+01  1.00800000E+00
  1.00800000E+00  0.00000000E+00  1.60000000E+01  1.00800000E+00  1.00800000E+00
  0.00000000E+00  1.60000000E+01  1.00800000E+00  1.00800000E+00  0.00000000E+00
  1.60000000E+01  1.00800000E+00  1.00800000E+00  0.00000000E+00  1.60000000E+01
  1.00800000E+00  1.00800000E+00  0.00000000E+00  1.60000000E+01  1.00800000E+00
  1.00800000E+00  0.00000000E+00  1.60000000E+01  1.00800000E+00  1.00800000E+00
  0.00000000E+00  1.60000000E+01  1.00800000E+00  1.00800000E+00  0.00000000E+00
  1.60000000E+01  1.00800000E+00  1.00800000E+00  0.00000000E+00  1.60000000E+01
  1.00800000E+00  1.00800000E+00  0.00000000E+00  1.60000000E+01  1.00800000E+00
  1.00800000E+00  0.00000000E+00  1.60000000E+01  1.00800000E+00  1.00800000E+00
  0.00000000E+00  1.60000000E+01  1.00800000E+00  1.00800000E+00  0.00000000E+00
  1.60000000E+01  1.00800000E+00  1.00800000E+00  0.00000000E+00  1.60000000E+01
  1.00800000E+00  1.00800000E+00  0.00000000E+00  1.60000000E+01  1.00800000E+00
  1.00800000E+00  0.00000000E+00  1.60000000E+01  1.00800000E+00  1.00800000E+00
  0.00000000E+00  1.60000000E+01  1.00800000E+00  1.00800000E+00  0.00000000E+00
  1.60000000E+01  1.00800000E+00  1.00800000E+00  0.00000000E+00  1.60000000E+01
  1.00800000E+00  1.00800000E+00  0.00000000E+00  1.60000000E+01  1.00800000E+00
  1.00800000E+00  0.00000000E+00  1.60000000E+01  1.00800000E+00  1.00800000E+00
  0.00000000E+00  1.60000000E+01  1.00800000E+00  1.00800000E+00  0.00000000E+00
  1.60000000E+01  1.00800000E+00  1.00800000E+00  0.00000000E+00  1.60000000E+01
  1.00800000E+00  1.00800000E+00  0.00000000E+00  1.60000000E+01  1.00800000E+00
  1.00800000E+00  0.00000000E+00  1.60000000E+01  1.00800000E+00  1.00800000E+00
  0.00000000E+00  1.60000000E+01  1.00800000E+00  1.00800000E+00  0.00000000E+00
  1.60000000E+01  1.00800000E+00  1.00800000E+00  0.00000000E+00  1.60000000E+01
  1.00800000E+00  1.00800000E+00  0.00000000E+00  1.60000000E+01  1.00800000E+00
  1.00800000E+00  0.00000000E+00  1.60000000E+01  1.00800000E+00  1.00800000E+00
  0.00000000E+00  1.60000000E+01  1.00800000E+00  1.00800000E+00  0.00000000E+00
  1.60000000E+01  1.00800000E+00  1.00800000E+00  0.00000000E+00  1.60000000E+01
  1.00800000E+00  1.00800000E+00  0.00000000E+00  1.60000000E+01  1.00800000E+00
  1.00800000E+00  0.00000000E+00  1.60000000E+01  1.00800000E+00  1.00800000E+00
  0.00000000E+00  1.60000000E+01  1.00800000E+00  1.00800000E+00  0.00000000E+00
  1.60000000E+01  1.00800000E+00  1.00800000E+00  0.00000000E+00  1.60000000E+01
  1.00800000E+00  1.00800000E+00  0.00000000E+00  1.60000000E+01  1.00800000E+00
  1.00800000E+00  0.00000000E+00  1.60000000E+01  1.00800000E+00  1.00800000E+00
  0.00000000E+00  1.60000000E+01  1.00800000E+00  1.00800000E+00  0.00000000E+00
  1.60000000E+01  1.00800000E+00  1.00800000E+00  0.00000000E+00  1.60000000E+01
  1.00800000E+00  1.00800000E+00  0.00000000E+00  1.60000000E+01  1.00800000E+00
  1.00800000E+00  0.00000000E+00  1.60000000E+01  1.00800000E+00  1.00800000E+00
  0.00000000E+00  1.60000000E+01  1.00800000E+00  1.00800000E+00  0.00000000E+00
  1.60000000E+01  1.00800000E+00  1.00800000E+00  0.00000000E+00  1.60000000E+01
  1.00800000E+00  1.00800000E+00  0.00000000E+00  1.60000000E+01  1.00800000E+00
  1.00800000E+00  0.00000000E+00  1.60000000E+01  1.00800000E+00  1.00800000E+00
  0.00000000E+00  1.60000000E+01  1.00800000E+00  1.00800000E+00  0.00000000E+00
  1.60000000E+01  1.00800000E+00  1.00800000E+00  0.00000000E+00  1.60000000E+01
  1.00800000E+00  1.00800000E+00  0.00000000E+00  1.60000000E+01  1.00800000E+00
  1.00800000E+00  0.00000000E+00  1.60000000E+01  1.00800000E+00  1.00800000E+00
  0.00000000E+00  1.60000000E+01  1.00800000E+00  1.00800000E+00  0.00000000E+00
  1.60000000E+01  1.00800000E+00  1.00800000E+00  0.00000000E+00  1.60000000E+01
  1.00800000E+00  1.00800000E+00  0.00000000E+00  1.60000000E+01  1.00800000E+00
  1.00800000E+00  0.00000000E+00  1.60000000E+01  1.00800000E+00  1.00800000E+00
  0.00000000E+00  1.60000000E+01  1.00800000E+00  1.00800000E+00  0.00000000E+00
  1.60000000E+01  1.00800000E+00  1.00800000E+00  0.00000000E+00  1.60000000E+01
  1.00800000E+00  1.00800000E+00  0.00000000E+00  1.60000000E+01  1.00800000E+00
  1.00800000E+00  0.00000000E+00  1.60000000E+01  1.00800000E+00  1.00800000E+00
  0.00000000E+00  1.60000000E+01  1.00800000E+00  1.00800000E+00  0.00000000E+00
  1.60000000E+01  1.00800000E+00  1.00800000E+00  0.00000000E+00  1.60000000E+01
  1.00800000E+00  1.00800000E+00  0.00000000E+00  1.60000000E+01  1.00800000E+00
  1.00800000E+00  0.00000000E+00  1.60000000E+01  1.00800000E+00  1.00800000E+00
  0.00000000E+00  1.60000000E+01  1.00800000E+00  1.00800000E+00  0.00000000E+00
  1.60000000E+01  1.00800000E+00  1.00800000E+00  0.00000000E+00  1.60000000E+01
  1.00800000E+00  1.00800000E+00  0.00000000E+00  1.60000000E+01  1.00800000E+00
  1.00800000E+00  0.00000000E+00  1.60000000E+01  1.00800000E+00  1.00800000E+00
  0.00000000E+00  1.60000000E+01  1.00800000E+00  1.00800000E+00  0.00000000E+00
  1.60000000E+01  1.00800000E+00  1.00800000E+00  0.00000000E+00  1.60000000E+01
  1.00800000E+00  1.00800000E+00  0.00000000E+00  1.60000000E+01  1.00800000E+00
  1.00800000E+00  0.00000000E+00  1.60000000E+01  1.00800000E+00  1.00800000E+00
  0.00000000E+00  1.60000000E+01  1.00800000E+00  1.00800000E+00  0.00000000E+00
  1.60000000E+01  1.00800000E+00  1.00800000E+00  0.00000000E+00  1.60000000E+01
  1.00800000E+00  1.00800000E+00  0.00000000E+00  1.60000000E+01  1.00800000E+00
  1.00800000E+00  0.00000000E+00  1.60000000E+01  1.00800000E+00  1.00800000E+00
  0.00000000E+00  1.60000000E+01  1.00800000E+00  1.00800000E+00  0.00000000E+00
  1.60000000E+01  1.00800000E+00  1.00800000E+00  0.00000000E+00  1.60000000E+01
  1.00800000E+00  1.00800000E+00  0.00000000E+00  1.60000000E+01  1.00800000E+00
  1.00800000E+00  0.00000000E+00  1.60000000E+01  1.00800000E+00  1.00800000E+00
  0.00000000E+00  1.60000000E+01  1.00800000E+00  1.00800000E+00  0.00000000E+00
  1.60000000E+01  1.00800000E+00  1.00800000E+00  0.00000000E+00  1.60000000E+01
  1.00800000E+00  1.00800000E+00  0.00000000E+00  1.60000000E+01  1.00800000E+00
  1.00800000E+00  0.00000000E+00  1.60000000E+01  1.00800000E+00  1.00800000E+00
  0.00000000E+00  1.60000000E+01  1.00800000E+00  1.00800000E+00  0.00000000E+00
  1.60000000E+01  1.00800000E+00  1.00800000E+00  0.00000000E+00  1.60000000E+01
  1.00800000E+00  1.00800000E+00  0.00000000E+00  1.60000000E+01  1.00800000E+00
  1.00800000E+00  0.00000000E+00  1.60000000E+01  1.00800000E+00  1.00800000E+00
  0.00000000E+00  1.60000000E+01  1.00800000E+00  1.00800000E+00  0.00000000E+00
  1.60000000E+01  1.00800000E+00  1.00800000E+00  0.00000000E+00  1.60000000E+01
  1.00800000E+00  1.00800000E+00  0.00000000E+00  1.60000000E+01  1.00800000E+00
  1.00800000E+00  0.00000000E+00  1.60000000E+01  1.00800000E+00  1.00800000E+00
  0.00000000E+00  1.60000000E+01  1.00800000E+00  1.00800000E+00  0.00000000E+00
  1.60000000E+01  1.00800000E+00  1.00800000E+00  0.00000000E+00  1.60000000E+01
  1.00800000E+00  1.00800000E+00  0.00000000E+00  1.60000000E+01  1.00800000E+00
  1.00800000E+00  0.00000000E+00  1.60000000E+01  1.00800000E+00  1.00800000E+00
  0.00000000E+00  1.60000000E+01  1.00800000E+00  1.00800000E+00  0.00000000E+00
  1.60000000E+01  1.00800000E+00  1.00800000E+00  0.00000000E+00  1.60000000E+01
  1.00800000E+00  1.00800000E+00  0.00000000E+00  1.60000000E+01  1.00800000E+00
  1.00800000E+00  0.00000000E+00  1.60000000E+01  1.00800000E+00  1.00800000E+00
  0.00000000E+00  1.60000000E+01  1.00800000E+00  1.00800000E+00  0.00000000E+00
  1.60000000E+01  1.00800000E+00  1.00800000E+00  0.00000000E+00  1.60000000E+01
  1.00800000E+00  1.00800000E+00  0.00000000E+00  1.60000000E+01  1.00800000E+00
  1.00800000E+00  0.00000000E+00  1.60000000E+01  1.00800000E+00  1.00800000E+00
  0.00000000E+00  1.60000000E+01  1.00800000E+00  1.00800000E+00  0.00000000E+00
  1.60000000E+01  1.00800000E+00  1.00800000E+00  0.00000000E+00  1.60000000E+01
  1.00800000E+00  1.00800000E+00  0.00000000E+00  1.60000000E+01  1.00800000E+00
  1.00800000E+00  0.00000000E+00  1.60000000E+01  1.00800000E+00  1.00800000E+00
  0.00000000E+00  1.60000000E+01  1.00800000E+00  1.00800000E+00  0.00000000E+00
  1.60000000E+01  1.00800000E+00  1.00800000E+00  0.00000000E+00  1.60000000E+01
  1.00800000E+00  1.00800000E+00  0.00000000E+00  1.60000000E+01  1.00800000E+00
  1.00800000E+00  0.00000000E+00  1.60000000E+01  1.00800000E+00  1.00800000E+00
  0.00000000E+00  1.60000000E+01  1.00800000E+00  1.00800000E+00  0.00000000E+00
  1.60000000E+01  1.00800000E+00  1.00800000E+00  0.00000000E+00  1.60000000E+01
  1.00800000E+00  1.00800000E+00  0.00000000E+00  1.60000000E+01  1.00800000E+00
  1.00800000E+00  0.00000000E+00  1.60000000E+01  1.00800000E+00  1.00800000E+00
  0.00000000E+00  1.60000000E+01  1.00800000E+00  1.00800000E+00  0.00000000E+00
  1.60000000E+01  1.00800000E+00  1.00800000E+00  0.00000000E+00  1.60000000E+01
  1.00800000E+00  1.00800000E+00  0.00000000E+00  1.60000000E+01  1.00800000E+00
  1.00800000E+00  0.00000000E+00  1.60000000E+01  1.00800000E+00  1.00800000E+00
  0.00000000E+00  1.60000000E+01  1.00800000E+00  1.00800000E+00  0.00000000E+00
  1.60000000E+01  1.00800000E+00  1.00800000E+00  0.00000000E+00  1.60000000E+01
  1.00800000E+00  1.00800000E+00  0.00000000E+00  1.60000000E+01  1.00800000E+00
  1.00800000E+00  0.00000000E+00  1.60000000E+01  1.00800000E+00  1.00800000E+00
  0.00000000E+00  1.60000000E+01  1.00800000E+00  1.00800000E+00  0.00000000E+00
  1.60000000E+01  1.00800000E+00  1.00800000E+00  0.00000000E+00  1.60000000E+01
  1.00800000E+00  1.00800000E+00  0.00000000E+00  1.60000000E+01  1.00800000E+00
  1.00800000E+00  0.00000000E+00  1.60000000E+01  1.00800000E+00  1.00800000E+00
  0.00000000E+00  1.60000000E+01  1.00800000E+00  1.00800000E+00  0.00000000E+00
  1.60000000E+01  1.00800000E+00  1.00800000E+00  0.00000000E+00  1.60000000E+01
  1.00800000E+00  1.00800000E+00  0.00000000E+00  1.60000000E+01  1.00800000E+00
  1.00800000E+00  0.00000000E+00  1.60000000E+01  1.00800000E+00  1.00800000E+00
  0.00000000E+00  1.60000000E+01  1.00800000E+00  1.00800000E+00  0.00000000E+00
  1.60000000E+01  1.00800000E+00  1.00800000E+00  0.00000000E+00  1.60000000E+01
  1.00800000E+00  1.00800000E+00  0.00000000E+00  1.60000000E+01  1.00800000E+00
  1.00800000E+00  0.00000000E+00  1.60000000E+01  1.00800000E+00  1.00800000E+00
  0.00000000E+00  1.60000000E+01  1.00800000E+00  1.00800000E+00  0.00000000E+00
  1.60000000E+01  1.00800000E+00  1.00800000E+00  0.00000000E+00  1.60000000E+01
  1.00800000E+00  1.00800000E+00  0.00000000E+00  1.60000000E+01  1.00800000E+00
  1.00800000E+00  0.00000000E+00  1.60000000E+01  1.00800000E+00  1.00800000E+00
  0.00000000E+00  1.60000000E+01  1.00800000E+00  1.00800000E+00  0.00000000E+00
  1.60000000E+01  1.00800000E+00  1.00800000E+00  0.00000000E+00  1.60000000E+01
  1.00800000E+00  1.00800000E+00  0.00000000E+00  1.60000000E+01  1.00800000E+00
  1.00800000E+00  0.00000000E+00  1.60000000E+01  1.00800000E+00  1.00800000E+00
  0.00000000E+00  1.60000000E+01  1.00800000E+00  1.00800000E+00  0.00000000E+00
  1.60000000E+01  1.00800000E+00  1.00800000E+00  0.00000000E+00  1.60000000E+01
  1.00800000E+00  1.00800000E+00  0.00000000E+00  1.60000000E+01  1.00800000E+00
  1.00800000E+00  0.00000000E+00  1.60000000E+01  1.00800000E+00  1.00800000E+00
  0.00000000E+00  1.60000000E+01  1.00800000E+00  1.00800000E+00  0.00000000E+00
  1.60000000E+01  1.00800000E+00  1.00800000E+00  0.00000000E+00  1.60000000E+01
  1.00800000E+00  1.00800000E+00  0.00000000E+00  1.60000000E+01  1.00800000E+00
  1.00800000E+00  0.00000000E+00  1.60000000E+01  1.00800000E+00  1.00800000E+00
  0.00000000E+00  1.60000000E+01  1.00800000E+00  1.00800000E+00  0.00000000E+00
  1.60000000E+01  1.00800000E+00  1.00800000E+00  0.00000000E+00  1.60000000E+01
  1.00800000E+00  1.00800000E+00  0.00000000E+00  1.60000000E+01  1.00800000E+00
  1.00800000E+00  0.00000000E+00  1.60000000E+01  1.00800000E+00  1.00800000E+00
  0.00000000E+00  1.60000000E+01  1.00800000E+00  1.00800000E+00  0.00000000E+00
  1.60000000E+01  1.00800000E+00  1.00800000E+00  0.00000000E+00  1.60000000E+01
  1.00800000E+00  1.00800000E+00  0.00000000E+00  1.60000000E+01  1.00800000E+00
  1.00800000E+00  0.00000000E+00  1.60000000E+01  1.00800000E+00  1.00800000E+00
  0.00000000E+00  1.60000000E+01  1.00800000E+00  1.00800000E+00  0.00000000E+00
  1.60000000E+01  1.00800000E+00  1.00800000E+00  0.00000000E+00  1.60000000E+01
  1.00800000E+00  1.00800000E+00  0.00000000E+00  1.60000000E+01  1.00800000E+00
  1.00800000E+00  0.00000000E+00  1.60000000E+01  1.00800000E+00  1.00800000E+00
  0.00000000E+00  1.60000000E+01  1.00800000E+00  1.00800000E+00  0.00000000E+00
  1.60000000E+01  1.00800000E+00  1.00800000E+00  0.00000000E+00  1.60000000E+01
  1.00800000E+00  1.00800000E+00  0.00000000E+00  1.60000000E+01  1.00800000E+00
  1.00800000E+00  0.00000000E+00  1.60000000E+01  1.00800000E+00  1.00800000E+00
  0.00000000E+00  1.60000000E+01  1.00800000E+00  1.00800000E+00  0.00000000E+00
  1.60000000E+01  1.00800000E+00  1.00800000E+00  0.00000000E+00  1.60000000E+01
  1.00800000E+00  1.00800000E+00  0.00000000E+00  1.60000000E+01  1.00800000E+00
  1.00800000E+00  0.00000000E+00  1.60000000E+01  1.00800000E+00  1.00800000E+00
  0.00000000E+00  1.60000000E+01  1.00800000E+00  1.00800000E+00  0.00000000E+00
  1.60000000E+01  1.00800000E+00  1.00800000E+00  0.00000000E+00  1.60000000E+01
  1.00800000E+00  1.00800000E+00  0.00000000E+00  1.60000000E+01  1.00800000E+00
  1.00800000E+00  0.00000000E+00  1.60000000E+01  1.00800000E+00  1.00800000E+00
  0.00000000E+00  1.60000000E+01  1.00800000E+00  1.00800000E+00  0.00000000E+00
  1.60000000E+01  1.00800000E+00  1.00800000E+00  0.00000000E+00  1.60000000E+01
  1.00800000E+00  1.00800000E+00  0.00000000E+00  1.60000000E+01  1.00800000E+00
  1.00800000E+00  0.00000000E+00  1.60000000E+01  1.00800000E+00  1.00800000E+00
  0.00000000E+00  1.60000000E+01  1.00800000E+00  1.00800000E+00  0.00000000E+00
  1.60000000E+01  1.00800000E+00  1.00800000E+00  0.00000000E+00  1.60000000E+01
  1.00800000E+00  1.00800000E+00  0.00000000E+00  1.60000000E+01  1.00800000E+00
  1.00800000E+00  0.00000000E+00  1.60000000E+01  1.00800000E+00  1.00800000E+00
  0.00000000E+00  1.60000000E+01  1.00800000E+00  1.00800000E+00  0.00000000E+00
  1.60000000E+01  1.00800000E+00  1.00800000E+00  0.00000000E+00  1.60000000E+01
  1.00800000E+00  1.00800000E+00  0.00000000E+00  1.60000000E+01  1.00800000E+00
  1.00800000E+00  0.00000000E+00  1.60000000E+01  1.00800000E+00  1.00800000E+00
  0.00000000E+00  1.60000000E+01  1.00800000E+00  1.00800000E+00  0.00000000E+00
  1.60000000E+01  1.00800000E+00  1.00800000E+00  0.00000000E+00  1.60000000E+01
  1.00800000E+00  1.00800000E+00  0.00000000E+00  1.60000000E+01  1.00800000E+00
  1.00800000E+00  0.00000000E+00  1.60000000E+01  1.00800000E+00  1.00800000E+00
  0.00000000E+00  1.60000000E+01  1.00800000E+00  1.00800000E+00  0.00000000E+00
  1.60000000E+01  1.00800000E+00  1.00800000E+00  0.00000000E+00  1.60000000E+01
  1.00800000E+00  1.00800000E+00  0.00000000E+00  1.60000000E+01  1.00800000E+00
  1.00800000E+00  0.00000000E+00  1.60000000E+01  1.00800000E+00  1.00800000E+00
  0.00000000E+00  1.60000000E+01  1.00800000E+00  1.00800000E+00  0.00000000E+00
  1.60000000E+01  1.00800000E+00  1.00800000E+00  0.00000000E+00  1.60000000E+01
  1.00800000E+00  1.00800000E+00  0.00000000E+00  1.60000000E+01  1.00800000E+00
  1.00800000E+00  0.00000000E+00  1.60000000E+01  1.00800000E+00  1.00800000E+00
  0.00000000E+00  1.60000000E+01  1.00800000E+00  1.00800000E+00  0.00000000E+00
  1.60000000E+01  1.00800000E+00  1.00800000E+00  0.00000000E+00  1.60000000E+01
  1.00800000E+00  1.00800000E+00  0.00000000E+00  1.60000000E+01  1.00800000E+00
  1.00800000E+00  0.00000000E+00  1.60000000E+01  1.00800000E+00  1.00800000E+00
  0.00000000E+00  1.60000000E+01  1.00800000E+00  1.00800000E+00  0.00000000E+00
  1.60000000E+01  1.00800000E+00  1.00800000E+00  0.00000000E+00  1.60000000E+01
  1.00800000E+00  1.00800000E+00  0.00000000E+00  1.60000000E+01  1.00800000E+00
  1.00800000E+00  0.00000000E+00  1.60000000E+01  1.00800000E+00  1.00800000E+00
  0.00000000E+00  1.60000000E+01  1.00800000E+00  1.00800000E+00  0.00000000E+00
  1.60000000E+01  1.00800000E+00  1.00800000E+00  0.00000000E+00  1.60000000E+01
  1.00800000E+00  1.00800000E+00  0.00000000E+00  1.60000000E+01  1.00800000E+00
  1.00800000E+00  0.00000000E+00  1.60000000E+01  1.00800000E+00  1.00800000E+00
  0.00000000E+00  1.60000000E+01  1.00800000E+00  1.00800000E+00  0.00000000E+00
  1.60000000E+01  1.00800000E+00  1.00800000E+00  0.00000000E+00  1.60000000E+01
  1.00800000E+00  1.00800000E+00  0.00000000E+00  1.60000000E+01  1.00800000E+00
  1.00800000E+00  0.00000000E+00  1.60000000E+01  1.00800000E+00  1.00800000E+00
  0.00000000E+00  1.60000000E+01  1.00800000E+00  1.00800000E+00  0.00000000E+00
  1.60000000E+01  1.00800000E+00  1.00800000E+00  0.00000000E+00  1.60000000E+01
  1.00800000E+00  1.00800000E+00  0.00000000E+00  1.60000000E+01  1.00800000E+00
  1.00800000E+00  0.00000000E+00  1.60000000E+01  1.00800000E+00  1.00800000E+00
  0.00000000E+00  1.60000000E+01  1.00800000E+00  1.00800000E+00  0.00000000E+00
  1.60000000E+01  1.00800000E+00  1.00800000E+00  0.00000000E+00  1.60000000E+01
  1.00800000E+00  1.00800000E+00  0.00000000E+00  1.60000000E+01  1.00800000E+00
  1.00800000E+00  0.00000000E+00  1.60000000E+01  1.00800000E+00  1.00800000E+00
  0.00000000E+00  1.60000000E+01  1.00800000E+00  1.00800000E+00  0.00000000E+00
  1.60000000E+01  1.00800000E+00  1.00800000E+00  0.00000000E+00  1.60000000E+01
  1.00800000E+00  1.00800000E+00  0.00000000E+00  1.60000000E+01  1.00800000E+00
  1.00800000E+00  0.00000000E+00  1.60000000E+01  1.00800000E+00  1.00800000E+00
  0.00000000E+00  1.60000000E+01  1.00800000E+00  1.00800000E+00  0.00000000E+00
  1.60000000E+01  1.00800000E+00  1.00800000E+00  0.00000000E+00  1.60000000E+01
  1.00800000E+00  1.00800000E+00  0.00000000E+00  1.60000000E+01  1.00800000E+00
  1.00800000E+00  0.00000000E+00  1.60000000E+01  1.00800000E+00  1.00800000E+00
  0.00000000E+00  1.60000000E+01  1.00800000E+00  1.00800000E+00  0.00000000E+00
  1.60000000E+01  1.00800000E+00  1.00800000E+00  0.00000000E+00  1.60000000E+01
  1.00800000E+00  1.00800000E+00  0.00000000E+00  1.60000000E+01  1.00800000E+00
  1.00800000E+00  0.00000000E+00  1.60000000E+01  1.00800000E+00  1.00800000E+00
  0.00000000E+00  1.60000000E+01  1.00800000E+00  1.00800000E+00  0.00000000E+00
  1.60000000E+01  1.00800000E+00  1.00800000E+00  0.00000000E+00  1.60000000E+01
  1.00800000E+00  1.00800000E+00  0.00000000E+00  1.60000000E+01  1.00800000E+00
  1.00800000E+00  0.00000000E+00  1.60000000E+01  1.00800000E+00  1.00800000E+00
  0.00000000E+00  1.60000000E+01  1.00800000E+00  1.00800000E+00  0.00000000E+00
  1.60000000E+01  1.00800000E+00  1.00800000E+00  0.00000000E+00  1.60000000E+01
  1.00800000E+00  1.00800000E+00  0.00000000E+00  1.60000000E+01  1.00800000E+00
  1.00800000E+00  0.00000000E+00  1.60000000E+01  1.00800000E+00  1.00800000E+00
  0.00000000E+00  1.60000000E+01  1.00800000E+00  1.00800000E+00  0.00000000E+00
  1.60000000E+01  1.00800000E+00  1.00800000E+00  0.00000000E+00  1.60000000E+01
  1.00800000E+00  1.00800000E+00  0.00000000E+00  1.60000000E+01  1.00800000E+00
  1.00800000E+00  0.00000000E+00  1.60000000E+01  1.00800000E+00  1.00800000E+00
  0.00000000E+00  1.60000000E+01  1.00800000E+00  1.00800000E+00  0.00000000E+00
  1.60000000E+01  1.00800000E+00  1.00800000E+00  0.00000000E+00  1.60000000E+01
  1.00800000E+00  1.00800000E+00  0.00000000E+00  1.60000000E+01  1.00800000E+00
  1.00800000E+00  0.00000000E+00  1.60000000E+01  1.00800000E+00  1.00800000E+00
  0.00000000E+00  1.60000000E+01  1.00800000E+00  1.00800000E+00  0.00000000E+00
  1.60000000E+01  1.00800000E+00  1.00800000E+00  0.00000000E+00  1.60000000E+01
  1.00800000E+00  1.00800000E+00  0.00000000E+00  1.60000000E+01  1.00800000E+00
  1.00800000E+00  0.00000000E+00  1.60000000E+01  1.00800000E+00  1.00800000E+00
  0.00000000E+00  1.60000000E+01  1.00800000E+00  1.00800000E+00  0.00000000E+00
  1.60000000E+01  1.00800000E+00  1.00800000E+00  0.00000000E+00  1.60000000E+01
  1.00800000E+00  1.00800000E+00  0.00000000E+00  1.60000000E+01  1.00800000E+00
  1.00800000E+00  0.00000000E+00  1.60000000E+01  1.00800000E+00  1.00800000E+00
  0.00000000E+00  1.60000000E+01  1.00800000E+00  1.00800000E+00  0.00000000E+00
  1.60000000E+01  1.00800000E+00  1.00800000E+00  0.00000000E+00  1.60000000E+01
  1.00800000E+00  1.00800000E+00  0.00000000E+00  1.60000000E+01  1.00800000E+00
  1.00800000E+00  0.00000000E+00  1.60000000E+01  1.00800000E+00  1.00800000E+00
  0.00000000E+00  1.60000000E+01  1.00800000E+00  1.00800000E+00  0.00000000E+00
  1.60000000E+01  1.00800000E+00  1.00800000E+00  0.00000000E+00  1.60000000E+01
  1.00800000E+00  1.00800000E+00  0.00000000E+00  1.60000000E+01  1.00800000E+00
  1.00800000E+00  0.00000000E+00  1.60000000E+01  1.00800000E+00  1.00800000E+00
  0.00000000E+00  1.60000000E+01  1.00800000E+00  1.00800000E+00  0.00000000E+00
  1.60000000E+01  1.00800000E+00  1.00800000E+00  0.00000000E+00  1.60000000E+01
  1.00800000E+00  1.00800000E+00  0.00000000E+00  1.60000000E+01  1.00800000E+00
  1.00800000E+00  0.00000000E+00  1.60000000E+01  1.00800000E+00  1.00800000E+00
  0.00000000E+00  1.60000000E+01  1.00800000E+00  1.00800000E+00  0.00000000E+00
  1.60000000E+01  1.00800000E+00  1.00800000E+00  0.00000000E+00  1.60000000E+01
  1.00800000E+00  1.00800000E+00  0.00000000E+00  1.60000000E+01  1.00800000E+00
  1.00800000E+00  0.00000000E+00  1.60000000E+01  1.00800000E+00  1.00800000E+00
  0.00000000E+00  1.60000000E+01  1.00800000E+00  1.00800000E+00  0.00000000E+00
  1.60000000E+01  1.00800000E+00  1.00800000E+00  0.00000000E+00  1.60000000E+01
  1.00800000E+00  1.00800000E+00  0.00000000E+00  1.60000000E+01  1.00800000E+00
  1.00800000E+00  0.00000000E+00  1.60000000E+01  1.00800000E+00  1.00800000E+00
  0.00000000E+00  1.60000000E+01  1.00800000E+00  1.00800000E+00  0.00000000E+00
  1.60000000E+01  1.00800000E+00  1.00800000E+00  0.00000000E+00  1.60000000E+01
  1.00800000E+00  1.00800000E+00  0.00000000E+00  1.60000000E+01  1.00800000E+00
  1.00800000E+00  0.00000000E+00  1.60000000E+01  1.00800000E+00  1.00800000E+00
  0.00000000E+00  1.60000000E+01  1.00800000E+00  1.00800000E+00  0.00000000E+00
  1.60000000E+01  1.00800000E+00  1.00800000E+00  0.00000000E+00  1.60000000E+01
  1.00800000E+00  1.00800000E+00  0.00000000E+00  1.60000000E+01  1.00800000E+00
  1.00800000E+00  0.00000000E+00  1.60000000E+01  1.00800000E+00  1.00800000E+00
  0.00000000E+00  1.60000000E+01  1.00800000E+00  1.00800000E+00  0.00000000E+00
  1.60000000E+01  1.00800000E+00  1.00800000E+00  0.00000000E+00  1.60000000E+01
  1.00800000E+00  1.00800000E+00  0.00000000E+00  1.60000000E+01  1.00800000E+00
  1.00800000E+00  0.00000000E+00  1.60000000E+01  1.00800000E+00  1.00800000E+00
  0.00000000E+00  1.60000000E+01  1.00800000E+00  1.00800000E+00  0.00000000E+00
  1.60000000E+01  1.00800000E+00  1.00800000E+00  0.00000000E+00  1.60000000E+01
  1.00800000E+00  1.00800000E+00  0.00000000E+00  1.60000000E+01  1.00800000E+00
  1.00800000E+00  0.00000000E+00  1.60000000E+01  1.00800000E+00  1.00800000E+00
  0.00000000E+00  1.60000000E+01  1.00800000E+00  1.00800000E+00  0.00000000E+00
  1.60000000E+01  1.00800000E+00  1.00800000E+00  0.00000000E+00  1.60000000E+01
  1.00800000E+00  1.00800000E+00  0.00000000E+00  1.60000000E+01  1.00800000E+00
  1.00800000E+00  0.00000000E+00  1.60000000E+01  1.00800000E+00  1.00800000E+00
  0.00000000E+00  1.60000000E+01  1.00800000E+00  1.00800000E+00  0.00000000E+00
  1.60000000E+01  1.00800000E+00  1.00800000E+00  0.00000000E+00  1.60000000E+01
  1.00800000E+00  1.00800000E+00  0.00000000E+00  1.60000000E+01  1.00800000E+00
  1.00800000E+00  0.00000000E+00  1.60000000E+01  1.00800000E+00  1.00800000E+00
  0.00000000E+00  1.60000000E+01  1.00800000E+00  1.00800000E+00  0.00000000E+00
  1.60000000E+01  1.00800000E+00  1.00800000E+00  0.00000000E+00  1.60000000E+01
  1.00800000E+00  1.00800000E+00  0.00000000E+00  1.60000000E+01  1.00800000E+00
  1.00800000E+00  0.00000000E+00  1.60000000E+01  1.00800000E+00  1.00800000E+00
  0.00000000E+00  1.60000000E+01  1.00800000E+00  1.00800000E+00  0.00000000E+00
  1.60000000E+01  1.00800000E+00  1.00800000E+00  0.00000000E+00  1.60000000E+01
  1.00800000E+00  1.00800000E+00  0.00000000E+00  1.60000000E+01  1.00800000E+00
  1.00800000E+00  0.00000000E+00  1.60000000E+01  1.00800000E+00  1.00800000E+00
  0.00000000E+00  1.60000000E+01  1.00800000E+00  1.00800000E+00  0.00000000E+00
  1.60000000E+01  1.00800000E+00  1.00800000E+00  0.00000000E+00  1.60000000E+01
  1.00800000E+00  1.00800000E+00  0.00000000E+00  1.60000000E+01  1.00800000E+00
  1.00800000E+00  0.00000000E+00  1.60000000E+01  1.00800000E+00  1.00800000E+00
  0.00000000E+00  1.60000000E+01  1.00800000E+00  1.00800000E+00  0.00000000E+00
  1.60000000E+01  1.00800000E+00  1.00800000E+00  0.00000000E+00  1.60000000E+01
  1.00800000E+00  1.00800000E+00  0.00000000E+00  1.60000000E+01  1.00800000E+00
  1.00800000E+00  0.00000000E+00  1.60000000E+01  1.00800000E+00  1.00800000E+00
  0.00000000E+00  1.60000000E+01  1.00800000E+00  1.00800000E+00  0.00000000E+00
  1.60000000E+01  1.00800000E+00  1.00800000E+00  0.00000000E+00  1.60000000E+01
  1.00800000E+00  1.00800000E+00  0.00000000E+00  1.60000000E+01  1.00800000E+00
  1.00800000E+00  0.00000000E+00  1.60000000E+01  1.00800000E+00  1.00800000E+00
  0.00000000E+00  1.60000000E+01  1.00800000E+00  1.00800000E+00  0.00000000E+00
  1.60000000E+01  1.00800000E+00  1.00800000E+00  0.00000000E+00  1.60000000E+01
  1.00800000E+00  1.00800000E+00  0.00000000E+00  1.60000000E+01  1.00800000E+00
  1.00800000E+00  0.00000000E+00  1.60000000E+01  1.00800000E+00  1.00800000E+00
  0.00000000E+00  1.60000000E+01  1.00800000E+00  1.00800000E+00  0.00000000E+00
  1.60000000E+01  1.00800000E+00  1.00800000E+00  0.00000000E+00  1.60000000E+01
  1.00800000E+00  1.00800000E+00  0.00000000E+00  1.60000000E+01  1.00800000E+00
  1.00800000E+00  0.00000000E+00  1.60000000E+01  1.00800000E+00  1.00800000E+00
  0.00000000E+00  1.60000000E+01  1.00800000E+00  1.00800000E+00  0.00000000E+00
  1.60000000E+01  1.00800000E+00  1.00800000E+00  0.00000000E+00  1.60000000E+01
  1.00800000E+00  1.00800000E+00  0.00000000E+00  1.60000000E+01  1.00800000E+00
  1.00800000E+00  0.00000000E+00  1.60000000E+01  1.00800000E+00  1.00800000E+00
  0.00000000E+00  1.60000000E+01  1.00800000E+00  1.00800000E+00  0.00000000E+00
  1.60000000E+01  1.00800000E+00  1.00800000E+00  0.00000000E+00  1.60000000E+01
  1.00800000E+00  1.00800000E+00  0.00000000E+00  1.60000000E+01  1.00800000E+00
  1.00800000E+00  0.00000000E+00  1.60000000E+01  1.00800000E+00  1.00800000E+00
  0.00000000E+00  1.60000000E+01  1.00800000E+00  1.00800000E+00  0.00000000E+00
  1.60000000E+01  1.00800000E+00  1.00800000E+00  0.00000000E+00  1.60000000E+01
  1.00800000E+00  1.00800000E+00  0.00000000E+00  1.60000000E+01  1.00800000E+00
  1.00800000E+00  0.00000000E+00  1.60000000E+01  1.00800000E+00  1.00800000E+00
  0.00000000E+00  1.60000000E+01  1.00800000E+00  1.00800000E+00  0.00000000E+00
  1.60000000E+01  1.00800000E+00  1.00800000E+00  0.00000000E+00  1.60000000E+01
  1.00800000E+00  1.00800000E+00  0.00000000E+00  1.60000000E+01  1.00800000E+00
  1.00800000E+00  0.00000000E+00  1.60000000E+01  1.00800000E+00  1.00800000E+00
  0.00000000E+00  1.60000000E+01  1.00800000E+00  1.00800000E+00  0.00000000E+00
  1.60000000E+01  1.00800000E+00  1.00800000E+00  0.00000000E+00  1.60000000E+01
  1.00800000E+00  1.00800000E+00  0.00000000E+00  1.60000000E+01  1.00800000E+00
  1.00800000E+00  0.00000000E+00  1.60000000E+01  1.00800000E+00  1.00800000E+00
  0.00000000E+00  1.60000000E+01  1.00800000E+00  1.00800000E+00  0.00000000E+00
  1.60000000E+01  1.00800000E+00  1.00800000E+00  0.00000000E+00  1.60000000E+01
  1.00800000E+00  1.00800000E+00  0.00000000E+00  1.60000000E+01  1.00800000E+00
  1.00800000E+00  0.00000000E+00  1.60000000E+01  1.00800000E+00  1.00800000E+00
  0.00000000E+00  1.60000000E+01  1.00800000E+00  1.00800000E+00  0.00000000E+00
  1.60000000E+01  1.00800000E+00  1.00800000E+00  0.00000000E+00  1.60000000E+01
  1.00800000E+00  1.00800000E+00  0.00000000E+00  1.60000000E+01  1.00800000E+00
  1.00800000E+00  0.00000000E+00  1.60000000E+01  1.00800000E+00  1.00800000E+00
  0.00000000E+00  1.60000000E+01  1.00800000E+00  1.00800000E+00  0.00000000E+00
  1.60000000E+01  1.00800000E+00  1.00800000E+00  0.00000000E+00  1.60000000E+01
  1.00800000E+00  1.00800000E+00  0.00000000E+00  1.60000000E+01  1.00800000E+00
  1.00800000E+00  0.00000000E+00  1.60000000E+01  1.00800000E+00  1.00800000E+00
  0.00000000E+00  1.60000000E+01  1.00800000E+00  1.00800000E+00  0.00000000E+00
  1.60000000E+01  1.00800000E+00  1.00800000E+00  0.00000000E+00  1.60000000E+01
  1.00800000E+00  1.00800000E+00  0.00000000E+00  1.60000000E+01  1.00800000E+00
  1.00800000E+00  0.00000000E+00  1.60000000E+01  1.00800000E+00  1.00800000E+00
  0.00000000E+00  1.60000000E+01  1.00800000E+00  1.00800000E+00  0.00000000E+00
  1.60000000E+01  1.00800000E+00  1.00800000E+00  0.00000000E+00  1.60000000E+01
  1.00800000E+00  1.00800000E+00  0.00000000E+00  1.60000000E+01  1.00800000E+00
  1.00800000E+00  0.00000000E+00  1.60000000E+01  1.00800000E+00  1.00800000E+00
  0.00000000E+00  1.60000000E+01  1.00800000E+00  1.00800000E+00  0.00000000E+00
  1.60000000E+01  1.00800000E+00  1.00800000E+00  0.00000000E+00  1.60000000E+01
  1.00800000E+00  1.00800000E+00  0.00000000E+00  1.60000000E+01  1.00800000E+00
  1.00800000E+00  0.00000000E+00  1.60000000E+01  1.00800000E+00  1.00800000E+00
  0.00000000E+00  1.60000000E+01  1.00800000E+00  1.00800000E+00  0.00000000E+00
  1.60000000E+01  1.00800000E+00  1.00800000E+00  0.00000000E+00  1.60000000E+01
  1.00800000E+00  1.00800000E+00  0.00000000E+00  1.60000000E+01  1.00800000E+00
  1.00800000E+00  0.00000000E+00  1.60000000E+01  1.00800000E+00  1.00800000E+00
  0.00000000E+00  1.60000000E+01  1.00800000E+00  1.00800000E+00  0.00000000E+00
  1.60000000E+01  1.00800000E+00  1.00800000E+00  0.00000000E+00  1.60000000E+01
  1.00800000E+00  1.00800000E+00  0.00000000E+00  1.60000000E+01  1.00800000E+00
  1.00800000E+00  0.00000000E+00  1.60000000E+01  1.00800000E+00  1.00800000E+00
  0.00000000E+00  1.60000000E+01  1.00800000E+00  1.00800000E+00  0.00000000E+00
  1.60000000E+01  1.00800000E+00  1.00800000E+00  0.00000000E+00  1.60000000E+01
  1.00800000E+00  1.00800000E+00  0.00000000E+00  1.60000000E+01  1.00800000E+00
  1.00800000E+00  0.00000000E+00  1.60000000E+01  1.00800000E+00  1.00800000E+00
  0.00000000E+00  1.60000000E+01  1.00800000E+00  1.00800000E+00  0.00000000E+00
  1.60000000E+01  1.00800000E+00  1.00800000E+00  0.00000000E+00  1.60000000E+01
  1.00800000E+00  1.00800000E+00  0.00000000E+00  1.60000000E+01  1.00800000E+00
  1.00800000E+00  0.00000000E+00  1.60000000E+01  1.00800000E+00  1.00800000E+00
  0.00000000E+00  1.60000000E+01  1.00800000E+00  1.00800000E+00  0.00000000E+00
  1.60000000E+01  1.00800000E+00  1.00800000E+00  0.00000000E+00  1.60000000E+01
  1.00800000E+00  1.00800000E+00  0.00000000E+00  1.60000000E+01  1.00800000E+00
  1.00800000E+00  0.00000000E+00  1.60000000E+01  1.00800000E+00  1.00800000E+00
  0.00000000E+00  1.60000000E+01  1.00800000E+00  1.00800000E+00  0.00000000E+00
  1.60000000E+01  1.00800000E+00  1.00800000E+00  0.00000000E+00  1.60000000E+01
  1.00800000E+00  1.00800000E+00  0.00000000E+00  1.60000000E+01  1.00800000E+00
  1.00800000E+00  0.00000000E+00  1.60000000E+01  1.00800000E+00  1.00800000E+00
  0.00000000E+00  1.60000000E+01  1.00800000E+00  1.00800000E+00  0.00000000E+00
  1.60000000E+01  1.00800000E+00  1.00800000E+00  0.00000000E+00  1.60000000E+01
  1.00800000E+00  1.00800000E+00  0.00000000E+00  1.60000000E+01  1.00800000E+00
  1.00800000E+00  0.00000000E+00  1.60000000E+01  1.00800000E+00  1.00800000E+00
  0.00000000E+00  1.60000000E+01  1.00800000E+00  1.00800000E+00  0.00000000E+00
  1.60000000E+01  1.00800000E+00  1.00800000E+00  0.00000000E+00  1.60000000E+01
  1.00800000E+00  1.00800000E+00  0.00000000E+00  1.60000000E+01  1.00800000E+00
  1.00800000E+00  0.00000000E+00  1.60000000E+01  1.00800000E+00  1.00800000E+00
  0.00000000E+00  1.60000000E+01  1.00800000E+00  1.00800000E+00  0.00000000E+00
  1.60000000E+01  1.00800000E+00  1.00800000E+00  0.00000000E+00  1.60000000E+01
  1.00800000E+00  1.00800000E+00  0.00000000E+00  1.60000000E+01  1.00800000E+00
  1.00800000E+00  0.00000000E+00  1.60000000E+01  1.00800000E+00  1.00800000E+00
  0.00000000E+00  1.60000000E+01  1.00800000E+00  1.00800000E+00  0.00000000E+00
  1.60000000E+01  1.00800000E+00  1.00800000E+00  0.00000000E+00  1.60000000E+01
  1.00800000E+00  1.00800000E+00  0.00000000E+00  1.60000000E+01  1.00800000E+00
  1.00800000E+00  0.00000000E+00  1.60000000E+01  1.00800000E+00  1.00800000E+00
  0.00000000E+00  1.60000000E+01  1.00800000E+00  1.00800000E+00  0.00000000E+00
  1.60000000E+01  1.00800000E+00  1.00800000E+00  0.00000000E+00  1.60000000E+01
  1.00800000E+00  1.00800000E+00  0.00000000E+00  1.60000000E+01  1.00800000E+00
  1.00800000E+00  0.00000000E+00  1.60000000E+01  1.00800000E+00  1.00800000E+00
  0.00000000E+00  1.60000000E+01  1.00800000E+00  1.00800000E+00  0.00000000E+00
  1.60000000E+01  1.00800000E+00  1.00800000E+00  0.00000000E+00  1.60000000E+01
  1.00800000E+00  1.00800000E+00  0.00000000E+00  1.60000000E+01  1.00800000E+00
  1.00800000E+00  0.00000000E+00  1.60000000E+01  1.00800000E+00  1.00800000E+00
  0.00000000E+00  1.60000000E+01  1.00800000E+00  1.00800000E+00  0.00000000E+00
  1.60000000E+01  1.00800000E+00  1.00800000E+00  0.00000000E+00  1.60000000E+01
  1.00800000E+00  1.00800000E+00  0.00000000E+00  1.60000000E+01  1.00800000E+00
  1.00800000E+00  0.00000000E+00  1.60000000E+01  1.00800000E+00  1.00800000E+00
  0.00000000E+00  1.60000000E+01  1.00800000E+00  1.00800000E+00  0.00000000E+00
  1.60000000E+01  1.00800000E+00  1.00800000E+00  0.00000000E+00  1.60000000E+01
  1.00800000E+00  1.00800000E+00  0.00000000E+00  1.60000000E+01  1.00800000E+00
  1.00800000E+00  0.00000000E+00  1.60000000E+01  1.00800000E+00  1.00800000E+00
  0.00000000E+00  1.60000000E+01  1.00800000E+00  1.00800000E+00  0.00000000E+00
  1.60000000E+01  1.00800000E+00  1.00800000E+00  0.00000000E+00  1.60000000E+01
  1.00800000E+00  1.00800000E+00  0.00000000E+00  1.60000000E+01  1.00800000E+00
  1.00800000E+00  0.00000000E+00  1.60000000E+01  1.00800000E+00  1.00800000E+00
  0.00000000E+00  1.60000000E+01  1.00800000E+00  1.00800000E+00  0.00000000E+00
  1.60000000E+01  1.00800000E+00  1.00800000E+00  0.00000000E+00  1.60000000E+01
  1.00800000E+00  1.00800000E+00  0.00000000E+00  1.60000000E+01  1.00800000E+00
  1.00800000E+00  0.00000000E+00  1.60000000E+01  1.00800000E+00  1.00800000E+00
  0.00000000E+00  1.60000000E+01  1.00800000E+00  1.00800000E+00  0.00000000E+00
  1.60000000E+01  1.00800000E+00  1.00800000E+00  0.00000000E+00  1.60000000E+01
  1.00800000E+00  1.00800000E+00  0.00000000E+00  1.60000000E+01  1.00800000E+00
  1.00800000E+00  0.00000000E+00  1.60000000E+01  1.00800000E+00  1.00800000E+00
  0.00000000E+00  1.60000000E+01  1.00800000E+00  1.00800000E+00  0.00000000E+00
  1.60000000E+01  1.00800000E+00  1.00800000E+00  0.00000000E+00  1.60000000E+01
  1.00800000E+00  1.00800000E+00  0.00000000E+00  1.60000000E+01  1.00800000E+00
  1.00800000E+00  0.00000000E+00  1.60000000E+01  1.00800000E+00  1.00800000E+00
  0.00000000E+00  1.60000000E+01  1.00800000E+00  1.00800000E+00  0.00000000E+00
  1.60000000E+01  1.00800000E+00  1.00800000E+00  0.00000000E+00  1.60000000E+01
  1.00800000E+00  1.00800000E+00  0.00000000E+00  1.60000000E+01  1.00800000E+00
  1.00800000E+00  0.00000000E+00  1.60000000E+01  1.00800000E+00  1.00800000E+00
  0.00000000E+00  1.60000000E+01  1.00800000E+00  1.00800000E+00  0.00000000E+00
  1.60000000E+01  1.00800000E+00  1.00800000E+00  0.00000000E+00  1.60000000E+01
  1.00800000E+00  1.00800000E+00  0.00000000E+00  1.60000000E+01  1.00800000E+00
  1.00800000E+00  0.00000000E+00  1.60000000E+01  1.00800000E+00  1.00800000E+00
  0.00000000E+00  1.60000000E+01  1.00800000E+00  1.00800000E+00  0.00000000E+00
  1.60000000E+01  1.00800000E+00  1.00800000E+00  0.00000000E+00  1.60000000E+01
  1.00800000E+00  1.00800000E+00  0.00000000E+00  1.60000000E+01  1.00800000E+00
  1.00800000E+00  0.00000000E+00  1.60000000E+01  1.00800000E+00  1.00800000E+00
  0.00000000E+00  1.60000000E+01  1.00800000E+00  1.00800000E+00  0.00000000E+00
  1.60000000E+01  1.00800000E+00  1.00800000E+00  0.00000000E+00  1.60000000E+01
  1.00800000E+00  1.00800000E+00  0.00000000E+00  1.60000000E+01  1.00800000E+00
  1.00800000E+00  0.00000000E+00  1.60000000E+01  1.00800000E+00  1.00800000E+00
  0.00000000E+00  1.60000000E+01  1.00800000E+00  1.00800000E+00  0.00000000E+00
  1.60000000E+01  1.00800000E+00  1.00800000E+00  0.00000000E+00  1.60000000E+01
  1.00800000E+00  1.00800000E+00  0.00000000E+00  1.60000000E+01  1.00800000E+00
  1.00800000E+00  0.00000000E+00  1.60000000E+01  1.00800000E+00  1.00800000E+00
  0.00000000E+00  1.60000000E+01  1.00800000E+00  1.00800000E+00  0.00000000E+00
  1.60000000E+01  1.00800000E+00  1.00800000E+00  0.00000000E+00  1.60000000E+01
  1.00800000E+00  1.00800000E+00  0.00000000E+00  1.60000000E+01  1.00800000E+00
  1.00800000E+00  0.00000000E+00  1.60000000E+01  1.00800000E+00  1.00800000E+00
  0.00000000E+00  1.60000000E+01  1.00800000E+00  1.00800000E+00  0.00000000E+00
  1.60000000E+01  1.00800000E+00  1.00800000E+00  0.00000000E+00  1.60000000E+01
  1.00800000E+00  1.00800000E+00  0.00000000E+00  1.60000000E+01  1.00800000E+00
  1.00800000E+00  0.00000000E+00  1.60000000E+01  1.00800000E+00  1.00800000E+00
  0.00000000E+00  1.60000000E+01  1.00800000E+00  1.00800000E+00  0.00000000E+00
  1.60000000E+01  1.00800000E+00  1.00800000E+00  0.00000000E+00  1.60000000E+01
  1.00800000E+00  1.00800000E+00  0.00000000E+00  1.60000000E+01  1.00800000E+00
  1.00800000E+00  0.00000000E+00  1.60000000E+01  1.00800000E+00  1.00800000E+00
  0.00000000E+00  1.60000000E+01  1.00800000E+00  1.00800000E+00  0.00000000E+00
  1.60000000E+01  1.00800000E+00  1.00800000E+00  0.00000000E+00  1.60000000E+01
  1.00800000E+00  1.00800000E+00  0.00000000E+00  1.60000000E+01  1.00800000E+00
  1.00800000E+00  0.00000000E+00  1.60000000E+01  1.00800000E+00  1.00800000E+00
  0.00000000E+00  1.60000000E+01  1.00800000E+00  1.00800000E+00  0.00000000E+00
  1.60000000E+01  1.00800000E+00  1.00800000E+00  0.00000000E+00  1.60000000E+01
  1.00800000E+00  1.00800000E+00  0.00000000E+00  1.60000000E+01  1.00800000E+00
  1.00800000E+00  0.00000000E+00  1.60000000E+01  1.00800000E+00  1.00800000E+00
  0.00000000E+00  1.60000000E+01  1.00800000E+00  1.00800000E+00  0.00000000E+00
  1.60000000E+01  1.00800000E+00  1.00800000E+00  0.00000000E+00  1.60000000E+01
  1.00800000E+00  1.00800000E+00  0.00000000E+00  1.60000000E+01  1.00800000E+00
  1.00800000E+00  0.00000000E+00  1.60000000E+01  1.00800000E+00  1.00800000E+00
  0.00000000E+00  1.60000000E+01  1.00800000E+00  1.00800000E+00  0.00000000E+00
  1.60000000E+01  1.00800000E+00  1.00800000E+00  0.00000000E+00  1.60000000E+01
  1.00800000E+00  1.00800000E+00  0.00000000E+00  1.60000000E+01  1.00800000E+00
  1.00800000E+00  0.00000000E+00  1.60000000E+01  1.00800000E+00  1.00800000E+00
  0.00000000E+00  1.60000000E+01  1.00800000E+00  1.00800000E+00  0.00000000E+00
  1.60000000E+01  1.00800000E+00  1.00800000E+00  0.00000000E+00  1.60000000E+01
  1.00800000E+00  1.00800000E+00  0.00000000E+00  1.60000000E+01  1.00800000E+00
  1.00800000E+00  0.00000000E+00  1.60000000E+01  1.00800000E+00  1.00800000E+00
  0.00000000E+00  1.60000000E+01  1.00800000E+00  1.00800000E+00  0.00000000E+00
  1.60000000E+01  1.00800000E+00  1.00800000E+00  0.00000000E+00  1.60000000E+01
  1.00800000E+00  1.00800000E+00  0.00000000E+00  1.60000000E+01  1.00800000E+00
  1.00800000E+00  0.00000000E+00  1.60000000E+01  1.00800000E+00  1.00800000E+00
  0.00000000E+00  1.60000000E+01  1.00800000E+00  1.00800000E+00  0.00000000E+00
  1.60000000E+01  1.00800000E+00  1.00800000E+00  0.00000000E+00  1.60000000E+01
  1.00800000E+00  1.00800000E+00  0.00000000E+00  1.60000000E+01  1.00800000E+00
  1.00800000E+00  0.00000000E+00  1.60000000E+01  1.00800000E+00  1.00800000E+00
  0.00000000E+00  1.60000000E+01  1.00800000E+00  1.00800000E+00  0.00000000E+00
  1.60000000E+01  1.00800000E+00  1.00800000E+00  0.00000000E+00  1.60000000E+01
  1.00800000E+00  1.00800000E+00  0.00000000E+00  1.60000000E+01  1.00800000E+00
  1.00800000E+00  0.00000000E+00  1.60000000E+01  1.00800000E+00  1.00800000E+00
  0.00000000E+00  1.60000000E+01  1.00800000E+00  1.00800000E+00  0.00000000E+00
  1.60000000E+01  1.00800000E+00  1.00800000E+00  0.00000000E+00  1.60000000E+01
  1.00800000E+00  1.00800000E+00  0.00000000E+00  1.60000000E+01  1.00800000E+00
  1.00800000E+00  0.00000000E+00  1.60000000E+01  1.00800000E+00  1.00800000E+00
  0.00000000E+00  1.60000000E+01  1.00800000E+00  1.00800000E+00  0.00000000E+00
  1.60000000E+01  1.00800000E+00  1.00800000E+00  0.00000000E+00  1.60000000E+01
  1.00800000E+00  1.00800000E+00  0.00000000E+00  1.60000000E+01  1.00800000E+00
  1.00800000E+00  0.00000000E+00  1.60000000E+01  1.00800000E+00  1.00800000E+00
  0.00000000E+00  1.60000000E+01  1.00800000E+00  1.00800000E+00  0.00000000E+00
  1.60000000E+01  1.00800000E+00  1.00800000E+00  0.00000000E+00  1.60000000E+01
  1.00800000E+00  1.00800000E+00  0.00000000E+00  1.60000000E+01  1.00800000E+00
  1.00800000E+00  0.00000000E+00  1.60000000E+01  1.00800000E+00  1.00800000E+00
  0.00000000E+00  1.60000000E+01  1.00800000E+00  1.00800000E+00  0.00000000E+00
  1.60000000E+01  1.00800000E+00  1.00800000E+00  0.00000000E+00  1.60000000E+01
  1.00800000E+00  1.00800000E+00  0.00000000E+00  1.60000000E+01  1.00800000E+00
  1.00800000E+00  0.00000000E+00  1.60000000E+01  1.00800000E+00  1.00800000E+00
  0.00000000E+00  1.60000000E+01  1.00800000E+00  1.00800000E+00  0.00000000E+00
  1.60000000E+01  1.00800000E+00  1.00800000E+00  0.00000000E+00  1.60000000E+01
  1.00800000E+00  1.00800000E+00  0.00000000E+00  1.60000000E+01  1.00800000E+00
  1.00800000E+00  0.00000000E+00  1.60000000E+01  1.00800000E+00  1.00800000E+00
  0.00000000E+00  1.60000000E+01  1.00800000E+00  1.00800000E+00  0.00000000E+00
  1.60000000E+01  1.00800000E+00  1.00800000E+00  0.00000000E+00  1.60000000E+01
  1.00800000E+00  1.00800000E+00  0.00000000E+00  1.60000000E+01  1.00800000E+00
  1.00800000E+00  0.00000000E+00  1.60000000E+01  1.00800000E+00  1.00800000E+00
  0.00000000E+00  1.60000000E+01  1.00800000E+00  1.00800000E+00  0.00000000E+00
  1.60000000E+01  1.00800000E+00  1.00800000E+00  0.00000000E+00  1.60000000E+01
  1.00800000E+00  1.00800000E+00  0.00000000E+00  1.60000000E+01  1.00800000E+00
  1.00800000E+00  0.00000000E+00  1.60000000E+01  1.00800000E+00  1.00800000E+00
  0.00000000E+00  1.60000000E+01  1.00800000E+00  1.00800000E+00  0.00000000E+00
  1.60000000E+01  1.00800000E+00  1.00800000E+00  0.00000000E+00  1.60000000E+01
  1.00800000E+00  1.00800000E+00  0.00000000E+00  1.60000000E+01  1.00800000E+00
  1.00800000E+00  0.00000000E+00  1.60000000E+01  1.00800000E+00  1.00800000E+00
  0.00000000E+00  1.60000000E+01  1.00800000E+00  1.00800000E+00  0.00000000E+00
  1.60000000E+01  1.00800000E+00  1.00800000E+00  0.00000000E+00  1.60000000E+01
  1.00800000E+00  1.00800000E+00  0.00000000E+00  1.60000000E+01  1.00800000E+00
  1.00800000E+00  0.00000000E+00  1.60000000E+01  1.00800000E+00  1.00800000E+00
  0.00000000E+00  1.60000000E+01  1.00800000E+00  1.00800000E+00  0.00000000E+00
  1.60000000E+01  1.00800000E+00  1.00800000E+00  0.00000000E+00  1.60000000E+01
  1.00800000E+00  1.00800000E+00  0.00000000E+00  1.60000000E+01  1.00800000E+00
  1.00800000E+00  0.00000000E+00  1.60000000E+01  1.00800000E+00  1.00800000E+00
  0.00000000E+00  1.60000000E+01  1.00800000E+00  1.00800000E+00  0.00000000E+00
  1.60000000E+01  1.00800000E+00  1.00800000E+00  0.00000000E+00  1.60000000E+01
  1.00800000E+00  1.00800000E+00  0.00000000E+00  1.60000000E+01  1.00800000E+00
  1.00800000E+00  0.00000000E+00  1.60000000E+01  1.00800000E+00  1.00800000E+00
  0.00000000E+00  1.60000000E+01  1.00800000E+00  1.00800000E+00  0.00000000E+00
  1.60000000E+01  1.00800000E+00  1.00800000E+00  0.00000000E+00  1.60000000E+01
  1.00800000E+00  1.00800000E+00  0.00000000E+00  1.60000000E+01  1.00800000E+00
  1.00800000E+00  0.00000000E+00  1.60000000E+01  1.00800000E+00  1.00800000E+00
  0.00000000E+00  1.60000000E+01  1.00800000E+00  1.00800000E+00  0.00000000E+00
  1.60000000E+01  1.00800000E+00  1.00800000E+00  0.00000000E+00  1.60000000E+01
  1.00800000E+00  1.00800000E+00  0.00000000E+00  1.60000000E+01  1.00800000E+00
  1.00800000E+00  0.00000000E+00  1.60000000E+01  1.00800000E+00  1.00800000E+00
  0.00000000E+00  1.60000000E+01  1.00800000E+00  1.00800000E+00  0.00000000E+00
  1.60000000E+01  1.00800000E+00  1.00800000E+00  0.00000000E+00  1.60000000E+01
  1.00800000E+00  1.00800000E+00  0.00000000E+00  1.60000000E+01  1.00800000E+00
  1.00800000E+00  0.00000000E+00  1.60000000E+01  1.00800000E+00  1.00800000E+00
  0.00000000E+00  1.60000000E+01  1.00800000E+00  1.00800000E+00  0.00000000E+00
  1.60000000E+01  1.00800000E+00  1.00800000E+00  0.00000000E+00  1.60000000E+01
  1.00800000E+00  1.00800000E+00  0.00000000E+00  1.60000000E+01  1.00800000E+00
  1.00800000E+00  0.00000000E+00  1.60000000E+01  1.00800000E+00  1.00800000E+00
  0.00000000E+00  1.60000000E+01  1.00800000E+00  1.00800000E+00  0.00000000E+00
  1.60000000E+01  1.00800000E+00  1.00800000E+00  0.00000000E+00  1.60000000E+01
  1.00800000E+00  1.00800000E+00  0.00000000E+00  1.60000000E+01  1.00800000E+00
  1.00800000E+00  0.00000000E+00  1.60000000E+01  1.00800000E+00  1.00800000E+00
  0.00000000E+00  1.60000000E+01  1.00800000E+00  1.00800000E+00  0.00000000E+00
  1.60000000E+01  1.00800000E+00  1.00800000E+00  0.00000000E+00  1.60000000E+01
  1.00800000E+00  1.00800000E+00  0.00000000E+00  1.60000000E+01  1.00800000E+00
  1.00800000E+00  0.00000000E+00  1.60000000E+01  1.00800000E+00  1.00800000E+00
  0.00000000E+00  1.60000000E+01  1.00800000E+00  1.00800000E+00  0.00000000E+00
  1.60000000E+01  1.00800000E+00  1.00800000E+00  0.00000000E+00  1.60000000E+01
  1.00800000E+00  1.00800000E+00  0.00000000E+00  1.60000000E+01  1.00800000E+00
  1.00800000E+00  0.00000000E+00  1.60000000E+01  1.00800000E+00  1.00800000E+00
  0.00000000E+00  1.60000000E+01  1.00800000E+00  1.00800000E+00  0.00000000E+00
  1.60000000E+01  1.00800000E+00  1.00800000E+00  0.00000000E+00  1.60000000E+01
  1.00800000E+00  1.00800000E+00  0.00000000E+00  1.60000000E+01  1.00800000E+00
  1.00800000E+00  0.00000000E+00  1.60000000E+01  1.00800000E+00  1.00800000E+00
  0.00000000E+00  1.60000000E+01  1.00800000E+00  1.00800000E+00  0.00000000E+00
  1.60000000E+01  1.00800000E+00  1.00800000E+00  0.00000000E+00  1.60000000E+01
  1.00800000E+00  1.00800000E+00  0.00000000E+00  1.60000000E+01  1.00800000E+00
  1.00800000E+00  0.00000000E+00  1.60000000E+01  1.00800000E+00  1.00800000E+00
  0.00000000E+00  1.60000000E+01  1.00800000E+00  1.00800000E+00  0.00000000E+00
  1.60000000E+01  1.00800000E+00  1.00800000E+00  0.00000000E+00  1.60000000E+01
  1.00800000E+00  1.00800000E+00  0.00000000E+00  1.60000000E+01  1.00800000E+00
  1.00800000E+00  0.00000000E+00  1.60000000E+01  1.00800000E+00  1.00800000E+00
  0.00000000E+00  1.60000000E+01  1.00800000E+00  1.00800000E+00  0.00000000E+00
  1.60000000E+01  1.00800000E+00  1.00800000E+00  0.00000000E+00  1.60000000E+01
  1.00800000E+00  1.00800000E+00  0.00000000E+00  1.60000000E+01  1.00800000E+00
  1.00800000E+00  0.00000000E+00  1.60000000E+01  1.00800000E+00  1.00800000E+00
  0.00000000E+00  1.60000000E+01  1.00800000E+00  1.00800000E+00  0.00000000E+00
  1.60000000E+01  1.00800000E+00  1.00800000E+00  0.00000000E+00  1.60000000E+01
  1.00800000E+00  1.00800000E+00  0.00000000E+00  1.60000000E+01  1.00800000E+00
  1.00800000E+00  0.00000000E+00  1.60000000E+01  1.00800000E+00  1.00800000E+00
  0.00000000E+00  1.60000000E+01  1.00800000E+00  1.00800000E+00  0.00000000E+00
  1.60000000E+01  1.00800000E+00  1.00800000E+00  0.00000000E+00  1.60000000E+01
  1.00800000E+00  1.00800000E+00  0.00000000E+00  1.60000000E+01  1.00800000E+00
  1.00800000E+00  0.00000000E+00  1.60000000E+01  1.00800000E+00  1.00800000E+00
  0.00000000E+00  1.60000000E+01  1.00800000E+00  1.00800000E+00  0.00000000E+00
  1.60000000E+01  1.00800000E+00  1.00800000E+00  0.00000000E+00  1.60000000E+01
  1.00800000E+00  1.00800000E+00  0.00000000E+00  1.60000000E+01  1.00800000E+00
  1.00800000E+00  0.00000000E+00  1.60000000E+01  1.00800000E+00  1.00800000E+00
  0.00000000E+00  1.60000000E+01  1.00800000E+00  1.00800000E+00  0.00000000E+00
  1.60000000E+01  1.00800000E+00  1.00800000E+00  0.00000000E+00  1.60000000E+01
  1.00800000E+00  1.00800000E+00  0.00000000E+00  1.60000000E+01  1.00800000E+00
  1.00800000E+00  0.00000000E+00  1.60000000E+01  1.00800000E+00  1.00800000E+00
  0.00000000E+00  1.60000000E+01  1.00800000E+00  1.00800000E+00  0.00000000E+00
  1.60000000E+01  1.00800000E+00  1.00800000E+00  0.00000000E+00  1.60000000E+01
  1.00800000E+00  1.00800000E+00  0.00000000E+00  1.60000000E+01  1.00800000E+00
  1.00800000E+00  0.00000000E+00  1.60000000E+01  1.00800000E+00  1.00800000E+00
  0.00000000E+00  1.60000000E+01  1.00800000E+00  1.00800000E+00  0.00000000E+00
  1.60000000E+01  1.00800000E+00  1.00800000E+00  0.00000000E+00  1.60000000E+01
  1.00800000E+00  1.00800000E+00  0.00000000E+00  1.60000000E+01  1.00800000E+00
  1.00800000E+00  0.00000000E+00  1.60000000E+01  1.00800000E+00  1.00800000E+00
  0.00000000E+00  1.60000000E+01  1.00800000E+00  1.00800000E+00  0.00000000E+00
  1.60000000E+01  1.00800000E+00  1.00800000E+00  0.00000000E+00  1.60000000E+01
  1.00800000E+00  1.00800000E+00  0.00000000E+00  1.60000000E+01  1.00800000E+00
  1.00800000E+00  0.00000000E+00  1.60000000E+01  1.00800000E+00  1.00800000E+00
  0.00000000E+00  1.60000000E+01  1.00800000E+00  1.00800000E+00  0.00000000E+00
  1.60000000E+01  1.00800000E+00  1.00800000E+00  0.00000000E+00  1.60000000E+01
  1.00800000E+00  1.00800000E+00  0.00000000E+00  1.60000000E+01  1.00800000E+00
  1.00800000E+00  0.00000000E+00  1.60000000E+01  1.00800000E+00  1.00800000E+00
  0.00000000E+00  1.60000000E+01  1.00800000E+00  1.00800000E+00  0.00000000E+00
  1.60000000E+01  1.00800000E+00  1.00800000E+00  0.00000000E+00  1.60000000E+01
  1.00800000E+00  1.00800000E+00  0.00000000E+00  1.60000000E+01  1.00800000E+00
  1.00800000E+00  0.00000000E+00  1.60000000E+01  1.00800000E+00  1.00800000E+00
  0.00000000E+00  1.60000000E+01  1.00800000E+00  1.00800000E+00  0.00000000E+00
  1.60000000E+01  1.00800000E+00  1.00800000E+00  0.00000000E+00  1.60000000E+01
  1.00800000E+00  1.00800000E+00  0.00000000E+00  1.60000000E+01  1.00800000E+00
  1.00800000E+00  0.00000000E+00  1.60000000E+01  1.00800000E+00  1.00800000E+00
  0.00000000E+00  1.60000000E+01  1.00800000E+00  1.00800000E+00  0.00000000E+00
  1.60000000E+01  1.00800000E+00  1.00800000E+00  0.00000000E+00  1.60000000E+01
  1.00800000E+00  1.00800000E+00  0.00000000E+00  1.60000000E+01  1.00800000E+00
  1.00800000E+00  0.00000000E+00  1.60000000E+01  1.00800000E+00  1.00800000E+00
  0.00000000E+00  1.60000000E+01  1.00800000E+00  1.00800000E+00  0.00000000E+00
  1.60000000E+01  1.00800000E+00  1.00800000E+00  0.00000000E+00  1.60000000E+01
  1.00800000E+00  1.00800000E+00  0.00000000E+00  1.60000000E+01  1.00800000E+00
  1.00800000E+00  0.00000000E+00  1.60000000E+01  1.00800000E+00  1.00800000E+00
  0.00000000E+00  1.60000000E+01  1.00800000E+00  1.00800000E+00  0.00000000E+00
  1.60000000E+01  1.00800000E+00  1.00800000E+00  0.00000000E+00  1.60000000E+01
  1.00800000E+00  1.00800000E+00  0.00000000E+00  1.60000000E+01  1.00800000E+00
  1.00800000E+00  0.00000000E+00  1.60000000E+01  1.00800000E+00  1.00800000E+00
  0.00000000E+00  1.60000000E+01  1.00800000E+00  1.00800000E+00  0.00000000E+00
  1.60000000E+01  1.00800000E+00  1.00800000E+00  0.00000000E+00  1.60000000E+01
  1.00800000E+00  1.00800000E+00  0.00000000E+00  1.60000000E+01  1.00800000E+00
  1.00800000E+00  0.00000000E+00  1.60000000E+01  1.00800000E+00  1.00800000E+00
  0.00000000E+00  1.60000000E+01  1.00800000E+00  1.00800000E+00  0.00000000E+00
  1.60000000E+01  1.00800000E+00  1.00800000E+00  0.00000000E+00  1.60000000E+01
  1.00800000E+00  1.00800000E+00  0.00000000E+00  1.60000000E+01  1.00800000E+00
  1.00800000E+00  0.00000000E+00  1.60000000E+01  1.00800000E+00  1.00800000E+00
  0.00000000E+00  1.60000000E+01  1.00800000E+00  1.00800000E+00  0.00000000E+00
  1.60000000E+01  1.00800000E+00  1.00800000E+00  0.00000000E+00  1.60000000E+01
  1.00800000E+00  1.00800000E+00  0.00000000E+00  1.60000000E+01  1.00800000E+00
  1.00800000E+00  0.00000000E+00  1.60000000E+01  1.00800000E+00  1.00800000E+00
  0.00000000E+00  1.60000000E+01  1.00800000E+00  1.00800000E+00  0.00000000E+00
  1.60000000E+01  1.00800000E+00  1.00800000E+00  0.00000000E+00  1.60000000E+01
  1.00800000E+00  1.00800000E+00  0.00000000E+00  1.60000000E+01  1.00800000E+00
  1.00800000E+00  0.00000000E+00  1.60000000E+01  1.00800000E+00  1.00800000E+00
  0.00000000E+00  1.60000000E+01  1.00800000E+00  1.00800000E+00  0.00000000E+00
  1.60000000E+01  1.00800000E+00  1.00800000E+00  0.00000000E+00  1.60000000E+01
  1.00800000E+00  1.00800000E+00  0.00000000E+00  1.60000000E+01  1.00800000E+00
  1.00800000E+00  0.00000000E+00  1.60000000E+01  1.00800000E+00  1.00800000E+00
  0.00000000E+00  1.60000000E+01  1.00800000E+00  1.00800000E+00  0.00000000E+00
  1.60000000E+01  1.00800000E+00  1.00800000E+00  0.00000000E+00  1.60000000E+01
  1.00800000E+00  1.00800000E+00  0.00000000E+00  1.60000000E+01  1.00800000E+00
  1.00800000E+00  0.00000000E+00  1.60000000E+01  1.00800000E+00  1.00800000E+00
  0.00000000E+00  1.60000000E+01  1.00800000E+00  1.00800000E+00  0.00000000E+00
  1.60000000E+01  1.00800000E+00  1.00800000E+00  0.00000000E+00  1.60000000E+01
  1.00800000E+00  1.00800000E+00  0.00000000E+00  1.60000000E+01  1.00800000E+00
  1.00800000E+00  0.00000000E+00  1.60000000E+01  1.00800000E+00  1.00800000E+00
  0.00000000E+00  1.60000000E+01  1.00800000E+00  1.00800000E+00  0.00000000E+00
  1.60000000E+01  1.00800000E+00  1.00800000E+00  0.00000000E+00  1.60000000E+01
  1.00800000E+00  1.00800000E+00  0.00000000E+00  1.60000000E+01  1.00800000E+00
  1.00800000E+00  0.00000000E+00  1.60000000E+01  1.00800000E+00  1.00800000E+00
  0.00000000E+00  1.60000000E+01  1.00800000E+00  1.00800000E+00  0.00000000E+00
  1.60000000E+01  1.00800000E+00  1.00800000E+00  0.00000000E+00  1.60000000E+01
  1.00800000E+00  1.00800000E+00  0.00000000E+00  1.60000000E+01  1.00800000E+00
  1.00800000E+00  0.00000000E+00  1.60000000E+01  1.00800000E+00  1.00800000E+00
  0.00000000E+00  1.60000000E+01  1.00800000E+00  1.00800000E+00  0.00000000E+00
  1.60000000E+01  1.00800000E+00  1.00800000E+00  0.00000000E+00  1.60000000E+01
  1.00800000E+00  1.00800000E+00  0.00000000E+00  1.60000000E+01  1.00800000E+00
  1.00800000E+00  0.00000000E+00  1.60000000E+01  1.00800000E+00  1.00800000E+00
  0.00000000E+00  1.60000000E+01  1.00800000E+00  1.00800000E+00  0.00000000E+00
  1.60000000E+01  1.00800000E+00  1.00800000E+00  0.00000000E+00  1.60000000E+01
  1.00800000E+00  1.00800000E+00  0.00000000E+00  1.60000000E+01  1.00800000E+00
  1.00800000E+00  0.00000000E+00  1.60000000E+01  1.00800000E+00  1.00800000E+00
  0.00000000E+00  1.60000000E+01  1.00800000E+00  1.00800000E+00  0.00000000E+00
  1.60000000E+01  1.00800000E+00  1.00800000E+00  0.00000000E+00  1.60000000E+01
  1.00800000E+00  1.00800000E+00  0.00000000E+00  1.60000000E+01  1.00800000E+00
  1.00800000E+00  0.00000000E+00  1.60000000E+01  1.00800000E+00  1.00800000E+00
  0.00000000E+00  1.60000000E+01  1.00800000E+00  1.00800000E+00  0.00000000E+00
  1.60000000E+01  1.00800000E+00  1.00800000E+00  0.00000000E+00  1.60000000E+01
  1.00800000E+00  1.00800000E+00  0.00000000E+00  1.60000000E+01  1.00800000E+00
  1.00800000E+00  0.00000000E+00  1.60000000E+01  1.00800000E+00  1.00800000E+00
  0.00000000E+00  1.60000000E+01  1.00800000E+00  1.00800000E+00  0.00000000E+00
  1.60000000E+01  1.00800000E+00  1.00800000E+00  0.00000000E+00  1.60000000E+01
  1.00800000E+00  1.00800000E+00  0.00000000E+00  1.60000000E+01  1.00800000E+00
  1.00800000E+00  0.00000000E+00  1.60000000E+01  1.00800000E+00  1.00800000E+00
  0.00000000E+00  1.60000000E+01  1.00800000E+00  1.00800000E+00  0.00000000E+00
  1.60000000E+01  1.00800000E+00  1.00800000E+00  0.00000000E+00  1.60000000E+01
  1.00800000E+00  1.00800000E+00  0.00000000E+00  1.60000000E+01  1.00800000E+00
  1.00800000E+00  0.00000000E+00  1.60000000E+01  1.00800000E+00  1.00800000E+00
  0.00000000E+00  1.60000000E+01  1.00800000E+00  1.00800000E+00  0.00000000E+00
  1.60000000E+01  1.00800000E+00  1.00800000E+00  0.00000000E+00  1.60000000E+01
  1.00800000E+00  1.00800000E+00  0.00000000E+00  1.60000000E+01  1.00800000E+00
  1.00800000E+00  0.00000000E+00  1.60000000E+01  1.00800000E+00  1.00800000E+00
  0.00000000E+00  1.60000000E+01  1.00800000E+00  1.00800000E+00  0.00000000E+00
  1.60000000E+01  1.00800000E+00  1.00800000E+00  0.00000000E+00  1.60000000E+01
  1.00800000E+00  1.00800000E+00  0.00000000E+00  1.60000000E+01  1.00800000E+00
  1.00800000E+00  0.00000000E+00  1.60000000E+01  1.00800000E+00  1.00800000E+00
  0.00000000E+00  1.60000000E+01  1.00800000E+00  1.00800000E+00  0.00000000E+00
  1.60000000E+01  1.00800000E+00  1.00800000E+00  0.00000000E+00  1.60000000E+01
  1.00800000E+00  1.00800000E+00  0.00000000E+00  1.60000000E+01  1.00800000E+00
  1.00800000E+00  0.00000000E+00  1.60000000E+01  1.00800000E+00  1.00800000E+00
  0.00000000E+00  1.60000000E+01  1.00800000E+00  1.00800000E+00  0.00000000E+00
  1.60000000E+01  1.00800000E+00  1.00800000E+00  0.00000000E+00  1.60000000E+01
  1.00800000E+00  1.00800000E+00  0.00000000E+00  1.60000000E+01  1.00800000E+00
  1.00800000E+00  0.00000000E+00  1.60000000E+01  1.00800000E+00  1.00800000E+00
  0.00000000E+00  1.60000000E+01  1.00800000E+00  1.00800000E+00  0.00000000E+00
  1.60000000E+01  1.00800000E+00  1.00800000E+00  0.00000000E+00  1.60000000E+01
  1.00800000E+00  1.00800000E+00  0.00000000E+00  1.60000000E+01  1.00800000E+00
  1.00800000E+00  0.00000000E+00  1.60000000E+01  1.00800000E+00  1.00800000E+00
  0.00000000E+00  1.60000000E+01  1.00800000E+00  1.00800000E+00  0.00000000E+00
  1.60000000E+01  1.00800000E+00  1.00800000E+00  0.00000000E+00  1.60000000E+01
  1.00800000E+00  1.00800000E+00  0.00000000E+00  1.60000000E+01  1.00800000E+00
  1.00800000E+00  0.00000000E+00  1.60000000E+01  1.00800000E+00  1.00800000E+00
  0.00000000E+00  1.60000000E+01  1.00800000E+00  1.00800000E+00  0.00000000E+00
  1.60000000E+01  1.00800000E+00  1.00800000E+00  0.00000000E+00  1.60000000E+01
  1.00800000E+00  1.00800000E+00  0.00000000E+00  1.60000000E+01  1.00800000E+00
  1.00800000E+00  0.00000000E+00  1.60000000E+01  1.00800000E+00  1.00800000E+00
  0.00000000E+00  1.60000000E+01  1.00800000E+00  1.00800000E+00  0.00000000E+00
  1.60000000E+01  1.00800000E+00  1.00800000E+00  0.00000000E+00  1.60000000E+01
  1.00800000E+00  1.00800000E+00  0.00000000E+00  1.60000000E+01  1.00800000E+00
  1.00800000E+00  0.00000000E+00  1.60000000E+01  1.00800000E+00  1.00800000E+00
  0.00000000E+00  1.60000000E+01  1.00800000E+00  1.00800000E+00  0.00000000E+00
  1.60000000E+01  1.00800000E+00  1.00800000E+00  0.00000000E+00  1.60000000E+01
  1.00800000E+00  1.00800000E+00  0.00000000E+00  1.60000000E+01  1.00800000E+00
  1.00800000E+00  0.00000000E+00  1.60000000E+01  1.00800000E+00  1.00800000E+00
  0.00000000E+00  1.60000000E+01  1.00800000E+00  1.00800000E+00  0.00000000E+00
  1.60000000E+01  1.00800000E+00  1.00800000E+00  0.00000000E+00  1.60000000E+01
  1.00800000E+00  1.00800000E+00  0.00000000E+00  1.60000000E+01  1.00800000E+00
  1.00800000E+00  0.00000000E+00  1.60000000E+01  1.00800000E+00  1.00800000E+00
  0.00000000E+00  1.60000000E+01  1.00800000E+00  1.00800000E+00  0.00000000E+00
  1.60000000E+01  1.00800000E+00  1.00800000E+00  0.00000000E+00  1.60000000E+01
  1.00800000E+00  1.00800000E+00  0.00000000E+00  1.60000000E+01  1.00800000E+00
  1.00800000E+00  0.00000000E+00  1.60000000E+01  1.00800000E+00  1.00800000E+00
  0.00000000E+00  1.60000000E+01  1.00800000E+00  1.00800000E+00  0.00000000E+00
  1.60000000E+01  1.00800000E+00  1.00800000E+00  0.00000000E+00  1.60000000E+01
  1.00800000E+00  1.00800000E+00  0.00000000E+00  1.60000000E+01  1.00800000E+00
  1.00800000E+00  0.00000000E+00  1.60000000E+01  1.00800000E+00  1.00800000E+00
  0.00000000E+00  1.60000000E+01  1.00800000E+00  1.00800000E+00  0.00000000E+00
  1.60000000E+01  1.00800000E+00  1.00800000E+00  0.00000000E+00  1.60000000E+01
  1.00800000E+00  1.00800000E+00  0.00000000E+00  1.60000000E+01  1.00800000E+00
  1.00800000E+00  0.00000000E+00  1.60000000E+01  1.00800000E+00  1.00800000E+00
  0.00000000E+00  1.60000000E+01  1.00800000E+00  1.00800000E+00  0.00000000E+00
  1.60000000E+01  1.00800000E+00  1.00800000E+00  0.00000000E+00  1.60000000E+01
  1.00800000E+00  1.00800000E+00  0.00000000E+00  1.60000000E+01  1.00800000E+00
  1.00800000E+00  0.00000000E+00  1.60000000E+01  1.00800000E+00  1.00800000E+00
  0.00000000E+00  1.60000000E+01  1.00800000E+00  1.00800000E+00  0.00000000E+00
  1.60000000E+01  1.00800000E+00  1.00800000E+00  0.00000000E+00  1.60000000E+01
  1.00800000E+00  1.00800000E+00  0.00000000E+00  1.60000000E+01  1.00800000E+00
  1.00800000E+00  0.00000000E+00  1.60000000E+01  1.00800000E+00  1.00800000E+00
  0.00000000E+00  1.60000000E+01  1.00800000E+00  1.00800000E+00  0.00000000E+00
  1.60000000E+01  1.00800000E+00  1.00800000E+00  0.00000000E+00  1.60000000E+01
  1.00800000E+00  1.00800000E+00  0.00000000E+00  1.60000000E+01  1.00800000E+00
  1.00800000E+00  0.00000000E+00  1.60000000E+01  1.00800000E+00  1.00800000E+00
  0.00000000E+00  1.60000000E+01  1.00800000E+00  1.00800000E+00  0.00000000E+00
  1.60000000E+01  1.00800000E+00  1.00800000E+00  0.00000000E+00  1.60000000E+01
  1.00800000E+00  1.00800000E+00  0.00000000E+00  1.60000000E+01  1.00800000E+00
  1.00800000E+00  0.00000000E+00  1.60000000E+01  1.00800000E+00  1.00800000E+00
  0.00000000E+00  1.60000000E+01  1.00800000E+00  1.00800000E+00  0.00000000E+00
  1.60000000E+01  1.00800000E+00  1.00800000E+00  0.00000000E+00  1.60000000E+01
  1.00800000E+00  1.00800000E+00  0.00000000E+00  1.60000000E+01  1.00800000E+00
  1.00800000E+00  0.00000000E+00  1.60000000E+01  1.00800000E+00  1.00800000E+00
  0.00000000E+00  1.60000000E+01  1.00800000E+00  1.00800000E+00  0.00000000E+00
  1.60000000E+01  1.00800000E+00  1.00800000E+00  0.00000000E+00  1.60000000E+01
  1.00800000E+00  1.00800000E+00  0.00000000E+00  1.60000000E+01  1.00800000E+00
  1.00800000E+00  0.00000000E+00  1.60000000E+01  1.00800000E+00  1.00800000E+00
  0.00000000E+00  1.60000000E+01  1.00800000E+00  1.00800000E+00  0.00000000E+00
  1.60000000E+01  1.00800000E+00  1.00800000E+00  0.00000000E+00  1.60000000E+01
  1.00800000E+00  1.00800000E+00  0.00000000E+00  1.60000000E+01  1.00800000E+00
  1.00800000E+00  0.00000000E+00  1.60000000E+01  1.00800000E+00  1.00800000E+00
  0.00000000E+00  1.60000000E+01  1.00800000E+00  1.00800000E+00  0.00000000E+00
  1.60000000E+01  1.00800000E+00  1.00800000E+00  0.00000000E+00  1.60000000E+01
  1.00800000E+00  1.00800000E+00  0.00000000E+00  1.60000000E+01  1.00800000E+00
  1.00800000E+00  0.00000000E+00  1.60000000E+01  1.00800000E+00  1.00800000E+00
  0.00000000E+00  1.60000000E+01  1.00800000E+00  1.00800000E+00  0.00000000E+00
  1.60000000E+01  1.00800000E+00  1.00800000E+00  0.00000000E+00  1.60000000E+01
  1.00800000E+00  1.00800000E+00  0.00000000E+00  1.60000000E+01  1.00800000E+00
  1.00800000E+00  0.00000000E+00  1.60000000E+01  1.00800000E+00  1.00800000E+00
  0.00000000E+00  1.60000000E+01  1.00800000E+00  1.00800000E+00  0.00000000E+00
  1.60000000E+01  1.00800000E+00  1.00800000E+00  0.00000000E+00  1.60000000E+01
  1.00800000E+00  1.00800000E+00  0.00000000E+00  1.60000000E+01  1.00800000E+00
  1.00800000E+00  0.00000000E+00  1.60000000E+01  1.00800000E+00  1.00800000E+00
  0.00000000E+00  1.60000000E+01  1.00800000E+00  1.00800000E+00  0.00000000E+00
  1.60000000E+01  1.00800000E+00  1.00800000E+00  0.00000000E+00  1.60000000E+01
  1.00800000E+00  1.00800000E+00  0.00000000E+00  1.60000000E+01  1.00800000E+00
  1.00800000E+00  0.00000000E+00  1.60000000E+01  1.00800000E+00  1.00800000E+00
  0.00000000E+00  1.60000000E+01  1.00800000E+00  1.00800000E+00  0.00000000E+00
  1.60000000E+01  1.00800000E+00  1.00800000E+00  0.00000000E+00  1.60000000E+01
  1.00800000E+00  1.00800000E+00  0.00000000E+00  1.60000000E+01  1.00800000E+00
  1.00800000E+00  0.00000000E+00  1.60000000E+01  1.00800000E+00  1.00800000E+00
  0.00000000E+00  1.60000000E+01  1.00800000E+00  1.00800000E+00  0.00000000E+00
  1.60000000E+01  1.00800000E+00  1.00800000E+00  0.00000000E+00  1.60000000E+01
  1.00800000E+00  1.00800000E+00  0.00000000E+00  1.60000000E+01  1.00800000E+00
  1.00800000E+00  0.00000000E+00  1.60000000E+01  1.00800000E+00  1.00800000E+00
  0.00000000E+00  1.60000000E+01  1.00800000E+00  1.00800000E+00  0.00000000E+00
  1.60000000E+01  1.00800000E+00  1.00800000E+00  0.00000000E+00  1.60000000E+01
  1.00800000E+00  1.00800000E+00  0.00000000E+00  1.60000000E+01  1.00800000E+00
  1.00800000E+00  0.00000000E+00  1.60000000E+01  1.00800000E+00  1.00800000E+00
  0.00000000E+00  1.60000000E+01  1.00800000E+00  1.00800000E+00  0.00000000E+00
  1.60000000E+01  1.00800000E+00  1.00800000E+00  0.00000000E+00  1.60000000E+01
  1.00800000E+00  1.00800000E+00  0.00000000E+00  1.60000000E+01  1.00800000E+00
  1.00800000E+00  0.00000000E+00  1.60000000E+01  1.00800000E+00  1.00800000E+00
  0.00000000E+00  1.60000000E+01  1.00800000E+00  1.00800000E+00  0.00000000E+00
  1.60000000E+01  1.00800000E+00  1.00800000E+00  0.00000000E+00  1.60000000E+01
  1.00800000E+00  1.00800000E+00  0.00000000E+00  1.60000000E+01  1.00800000E+00
  1.00800000E+00  0.00000000E+00  1.60000000E+01  1.00800000E+00  1.00800000E+00
  0.00000000E+00  1.60000000E+01  1.00800000E+00  1.00800000E+00  0.00000000E+00
  1.60000000E+01  1.00800000E+00  1.00800000E+00  0.00000000E+00  1.60000000E+01
  1.00800000E+00  1.00800000E+00  0.00000000E+00  1.60000000E+01  1.00800000E+00
  1.00800000E+00  0.00000000E+00  1.60000000E+01  1.00800000E+00  1.00800000E+00
  0.00000000E+00  1.60000000E+01  1.00800000E+00  1.00800000E+00  0.00000000E+00
  1.60000000E+01  1.00800000E+00  1.00800000E+00  0.00000000E+00  1.60000000E+01
  1.00800000E+00  1.00800000E+00  0.00000000E+00  1.60000000E+01  1.00800000E+00
  1.00800000E+00  0.00000000E+00  1.60000000E+01  1.00800000E+00  1.00800000E+00
  0.00000000E+00  1.60000000E+01  1.00800000E+00  1.00800000E+00  0.00000000E+00
  1.60000000E+01  1.00800000E+00  1.00800000E+00  0.00000000E+00  1.60000000E+01
  1.00800000E+00  1.00800000E+00  0.00000000E+00  1.60000000E+01  1.00800000E+00
  1.00800000E+00  0.00000000E+00  1.60000000E+01  1.00800000E+00  1.00800000E+00
  0.00000000E+00  1.60000000E+01  1.00800000E+00  1.00800000E+00  0.00000000E+00
  1.60000000E+01  1.00800000E+00  1.00800000E+00  0.00000000E+00  1.60000000E+01
  1.00800000E+00  1.00800000E+00  0.00000000E+00  1.60000000E+01  1.00800000E+00
  1.00800000E+00  0.00000000E+00  1.60000000E+01  1.00800000E+00  1.00800000E+00
  0.00000000E+00  1.60000000E+01  1.00800000E+00  1.00800000E+00  0.00000000E+00
  1.60000000E+01  1.00800000E+00  1.00800000E+00  0.00000000E+00  1.60000000E+01
  1.00800000E+00  1.00800000E+00  0.00000000E+00  1.60000000E+01  1.00800000E+00
  1.00800000E+00  0.00000000E+00  1.60000000E+01  1.00800000E+00  1.00800000E+00
  0.00000000E+00  1.60000000E+01  1.00800000E+00  1.00800000E+00  0.00000000E+00
  1.60000000E+01  1.00800000E+00  1.00800000E+00  0.00000000E+00  1.60000000E+01
  1.00800000E+00  1.00800000E+00  0.00000000E+00  1.60000000E+01  1.00800000E+00
  1.00800000E+00  0.00000000E+00  1.60000000E+01  1.00800000E+00  1.00800000E+00
  0.00000000E+00  1.60000000E+01  1.00800000E+00  1.00800000E+00  0.00000000E+00
  1.60000000E+01  1.00800000E+00  1.00800000E+00  0.00000000E+00  1.60000000E+01
  1.00800000E+00  1.00800000E+00  0.00000000E+00  1.60000000E+01  1.00800000E+00
  1.00800000E+00  0.00000000E+00  1.60000000E+01  1.00800000E+00  1.00800000E+00
  0.00000000E+00  1.60000000E+01  1.00800000E+00  1.00800000E+00  0.00000000E+00
  1.60000000E+01  1.00800000E+00  1.00800000E+00  0.00000000E+00  1.60000000E+01
  1.00800000E+00  1.00800000E+00  0.00000000E+00  1.60000000E+01  1.00800000E+00
  1.00800000E+00  0.00000000E+00  1.60000000E+01  1.00800000E+00  1.00800000E+00
  0.00000000E+00  1.60000000E+01  1.00800000E+00  1.00800000E+00  0.00000000E+00
  1.60000000E+01  1.00800000E+00  1.00800000E+00  0.00000000E+00  1.60000000E+01
  1.00800000E+00  1.00800000E+00  0.00000000E+00  1.60000000E+01  1.00800000E+00
  1.00800000E+00  0.00000000E+00  1.60000000E+01  1.00800000E+00  1.00800000E+00
  0.00000000E+00  1.60000000E+01  1.00800000E+00  1.00800000E+00  0.00000000E+00
  1.60000000E+01  1.00800000E+00  1.00800000E+00  0.00000000E+00  1.60000000E+01
  1.00800000E+00  1.00800000E+00  0.00000000E+00  1.60000000E+01  1.00800000E+00
  1.00800000E+00  0.00000000E+00  1.60000000E+01  1.00800000E+00  1.00800000E+00
  0.00000000E+00  1.60000000E+01  1.00800000E+00  1.00800000E+00  0.00000000E+00
  1.60000000E+01  1.00800000E+00  1.00800000E+00  0.00000000E+00  1.60000000E+01
  1.00800000E+00  1.00800000E+00  0.00000000E+00  1.60000000E+01  1.00800000E+00
  1.00800000E+00  0.00000000E+00  1.60000000E+01  1.00800000E+00  1.00800000E+00
  0.00000000E+00  1.60000000E+01  1.00800000E+00  1.00800000E+00  0.00000000E+00
  1.60000000E+01  1.00800000E+00  1.00800000E+00  0.00000000E+00  1.60000000E+01
  1.00800000E+00  1.00800000E+00  0.00000000E+00  1.60000000E+01  1.00800000E+00
  1.00800000E+00  0.00000000E+00  1.60000000E+01  1.00800000E+00  1.00800000E+00
  0.00000000E+00  1.60000000E+01  1.00800000E+00  1.00800000E+00  0.00000000E+00
  1.60000000E+01  1.00800000E+00  1.00800000E+00  0.00000000E+00  1.60000000E+01
  1.00800000E+00  1.00800000E+00  0.00000000E+00  1.60000000E+01  1.00800000E+00
  1.00800000E+00  0.00000000E+00  1.60000000E+01  1.00800000E+00  1.00800000E+00
  0.00000000E+00  1.60000000E+01  1.00800000E+00  1.00800000E+00  0.00000000E+00
  1.60000000E+01  1.00800000E+00  1.00800000E+00  0.00000000E+00  1.60000000E+01
  1.00800000E+00  1.00800000E+00  0.00000000E+00  1.60000000E+01  1.00800000E+00
  1.00800000E+00  0.00000000E+00  1.60000000E+01  1.00800000E+00  1.00800000E+00
  0.00000000E+00  1.60000000E+01  1.00800000E+00  1.00800000E+00  0.00000000E+00
  1.60000000E+01  1.00800000E+00  1.00800000E+00  0.00000000E+00  1.60000000E+01
  1.00800000E+00  1.00800000E+00  0.00000000E+00  1.60000000E+01  1.00800000E+00
  1.00800000E+00  0.00000000E+00  1.60000000E+01  1.00800000E+00  1.00800000E+00
  0.00000000E+00  1.60000000E+01  1.00800000E+00  1.00800000E+00  0.00000000E+00
  1.60000000E+01  1.00800000E+00  1.00800000E+00  0.00000000E+00  1.60000000E+01
  1.00800000E+00  1.00800000E+00  0.00000000E+00  1.60000000E+01  1.00800000E+00
  1.00800000E+00  0.00000000E+00  1.60000000E+01  1.00800000E+00  1.00800000E+00
  0.00000000E+00  1.60000000E+01  1.00800000E+00  1.00800000E+00  0.00000000E+00
  1.60000000E+01  1.00800000E+00  1.00800000E+00  0.00000000E+00  1.60000000E+01
  1.00800000E+00  1.00800000E+00  0.00000000E+00  1.60000000E+01  1.00800000E+00
  1.00800000E+00  0.00000000E+00  1.60000000E+01  1.00800000E+00  1.00800000E+00
  0.00000000E+00  1.60000000E+01  1.00800000E+00  1.00800000E+00  0.00000000E+00
  1.60000000E+01  1.00800000E+00  1.00800000E+00  0.00000000E+00  1.60000000E+01
  1.00800000E+00  1.00800000E+00  0.00000000E+00  1.60000000E+01  1.00800000E+00
  1.00800000E+00  0.00000000E+00  1.60000000E+01  1.00800000E+00  1.00800000E+00
  0.00000000E+00  1.60000000E+01  1.00800000E+00  1.00800000E+00  0.00000000E+00
  1.60000000E+01  1.00800000E+00  1.00800000E+00  0.00000000E+00  1.60000000E+01
  1.00800000E+00  1.00800000E+00  0.00000000E+00  1.60000000E+01  1.00800000E+00
  1.00800000E+00  0.00000000E+00  1.60000000E+01  1.00800000E+00  1.00800000E+00
  0.00000000E+00  1.60000000E+01  1.00800000E+00  1.00800000E+00  0.00000000E+00
  1.60000000E+01  1.00800000E+00  1.00800000E+00  0.00000000E+00  1.60000000E+01
  1.00800000E+00  1.00800000E+00  0.00000000E+00  1.60000000E+01  1.00800000E+00
  1.00800000E+00  0.00000000E+00  1.60000000E+01  1.00800000E+00  1.00800000E+00
  0.00000000E+00  1.60000000E+01  1.00800000E+00  1.00800000E+00  0.00000000E+00
  1.60000000E+01  1.00800000E+00  1.00800000E+00  0.00000000E+00  1.60000000E+01
  1.00800000E+00  1.00800000E+00  0.00000000E+00  1.60000000E+01  1.00800000E+00
  1.00800000E+00  0.00000000E+00  1.60000000E+01  1.00800000E+00  1.00800000E+00
  0.00000000E+00  1.60000000E+01  1.00800000E+00  1.00800000E+00  0.00000000E+00
  1.60000000E+01  1.00800000E+00  1.00800000E+00  0.00000000E+00  1.60000000E+01
  1.00800000E+00  1.00800000E+00  0.00000000E+00  1.60000000E+01  1.00800000E+00
  1.00800000E+00  0.00000000E+00  1.60000000E+01  1.00800000E+00  1.00800000E+00
  0.00000000E+00  1.60000000E+01  1.00800000E+00  1.00800000E+00  0.00000000E+00
  1.60000000E+01  1.00800000E+00  1.00800000E+00  0.00000000E+00  1.60000000E+01
  1.00800000E+00  1.00800000E+00  0.00000000E+00  1.60000000E+01  1.00800000E+00
  1.00800000E+00  0.00000000E+00  1.60000000E+01  1.00800000E+00  1.00800000E+00
  0.00000000E+00  1.60000000E+01  1.00800000E+00  1.00800000E+00  0.00000000E+00
  1.60000000E+01  1.00800000E+00  1.00800000E+00  0.00000000E+00  1.60000000E+01
  1.00800000E+00  1.00800000E+00  0.00000000E+00  1.60000000E+01  1.00800000E+00
  1.00800000E+00  0.00000000E+00  1.60000000E+01  1.00800000E+00  1.00800000E+00
  0.00000000E+00  1.60000000E+01  1.00800000E+00  1.00800000E+00  0.00000000E+00
  1.60000000E+01  1.00800000E+00  1.00800000E+00  0.00000000E+00  1.60000000E+01
  1.00800000E+00  1.00800000E+00  0.00000000E+00  1.60000000E+01  1.00800000E+00
  1.00800000E+00  0.00000000E+00  1.60000000E+01  1.00800000E+00  1.00800000E+00
  0.00000000E+00  1.60000000E+01  1.00800000E+00  1.00800000E+00  0.00000000E+00
  1.60000000E+01  1.00800000E+00  1.00800000E+00  0.00000000E+00  1.60000000E+01
  1.00800000E+00  1.00800000E+00  0.00000000E+00  1.60000000E+01  1.00800000E+00
  1.00800000E+00  0.00000000E+00  1.60000000E+01  1.00800000E+00  1.00800000E+00
  0.00000000E+00  1.60000000E+01  1.00800000E+00  1.00800000E+00  0.00000000E+00
  1.60000000E+01  1.00800000E+00  1.00800000E+00  0.00000000E+00  1.60000000E+01
  1.00800000E+00  1.00800000E+00  0.00000000E+00  1.60000000E+01  1.00800000E+00
  1.00800000E+00  0.00000000E+00  1.60000000E+01  1.00800000E+00  1.00800000E+00
  0.00000000E+00  1.60000000E+01  1.00800000E+00  1.00800000E+00  0.00000000E+00
  1.60000000E+01  1.00800000E+00  1.00800000E+00  0.00000000E+00  1.60000000E+01
  1.00800000E+00  1.00800000E+00  0.00000000E+00  1.60000000E+01  1.00800000E+00
  1.00800000E+00  0.00000000E+00  1.60000000E+01  1.00800000E+00  1.00800000E+00
  0.00000000E+00  1.60000000E+01  1.00800000E+00  1.00800000E+00  0.00000000E+00
  1.60000000E+01  1.00800000E+00  1.00800000E+00  0.00000000E+00  1.60000000E+01
  1.00800000E+00  1.00800000E+00  0.00000000E+00  1.60000000E+01  1.00800000E+00
  1.00800000E+00  0.00000000E+00  1.60000000E+01  1.00800000E+00  1.00800000E+00
  0.00000000E+00  1.60000000E+01  1.00800000E+00  1.00800000E+00  0.00000000E+00
  1.60000000E+01  1.00800000E+00  1.00800000E+00  0.00000000E+00  1.60000000E+01
  1.00800000E+00  1.00800000E+00  0.00000000E+00  1.60000000E+01  1.00800000E+00
  1.00800000E+00  0.00000000E+00  1.60000000E+01  1.00800000E+00  1.00800000E+00
  0.00000000E+00  1.60000000E+01  1.00800000E+00  1.00800000E+00  0.00000000E+00
  1.60000000E+01  1.00800000E+00  1.00800000E+00  0.00000000E+00  1.60000000E+01
  1.00800000E+00  1.00800000E+00  0.00000000E+00  1.60000000E+01  1.00800000E+00
  1.00800000E+00  0.00000000E+00  1.60000000E+01  1.00800000E+00  1.00800000E+00
  0.00000000E+00  1.60000000E+01  1.00800000E+00  1.00800000E+00  0.00000000E+00
  1.60000000E+01  1.00800000E+00  1.00800000E+00  0.00000000E+00  1.60000000E+01
  1.00800000E+00  1.00800000E+00  0.00000000E+00  1.60000000E+01  1.00800000E+00
  1.00800000E+00  0.00000000E+00  1.60000000E+01  1.00800000E+00  1.00800000E+00
  0.00000000E+00  1.60000000E+01  1.00800000E+00  1.00800000E+00  0.00000000E+00
  1.60000000E+01  1.00800000E+00  1.00800000E+00  0.00000000E+00  1.60000000E+01
  1.00800000E+00  1.00800000E+00  0.00000000E+00  1.60000000E+01  1.00800000E+00
  1.00800000E+00  0.00000000E+00  1.60000000E+01  1.00800000E+00  1.00800000E+00
  0.00000000E+00  1.60000000E+01  1.00800000E+00  1.00800000E+00  0.00000000E+00
  1.60000000E+01  1.00800000E+00  1.00800000E+00  0.00000000E+00  1.60000000E+01
  1.00800000E+00  1.00800000E+00  0.00000000E+00  1.60000000E+01  1.00800000E+00
  1.00800000E+00  0.00000000E+00  1.60000000E+01  1.00800000E+00  1.00800000E+00
  0.00000000E+00  1.60000000E+01  1.00800000E+00  1.00800000E+00  0.00000000E+00
  1.60000000E+01  1.00800000E+00  1.00800000E+00  0.00000000E+00  1.60000000E+01
  1.00800000E+00  1.00800000E+00  0.00000000E+00  1.60000000E+01  1.00800000E+00
  1.00800000E+00  0.00000000E+00  1.60000000E+01  1.00800000E+00  1.00800000E+00
  0.00000000E+00  1.60000000E+01  1.00800000E+00  1.00800000E+00  0.00000000E+00
  1.60000000E+01  1.00800000E+00  1.00800000E+00  0.00000000E+00  1.60000000E+01
  1.00800000E+00  1.00800000E+00  0.00000000E+00  1.60000000E+01  1.00800000E+00
  1.00800000E+00  0.00000000E+00  1.60000000E+01  1.00800000E+00  1.00800000E+00
  0.00000000E+00  1.60000000E+01  1.00800000E+00  1.00800000E+00  0.00000000E+00
  1.60000000E+01  1.00800000E+00  1.00800000E+00  0.00000000E+00  1.60000000E+01
  1.00800000E+00  1.00800000E+00  0.00000000E+00  1.60000000E+01  1.00800000E+00
  1.00800000E+00  0.00000000E+00  1.60000000E+01  1.00800000E+00  1.00800000E+00
  0.00000000E+00  1.60000000E+01  1.00800000E+00  1.00800000E+00  0.00000000E+00
  1.60000000E+01  1.00800000E+00  1.00800000E+00  0.00000000E+00  1.60000000E+01
  1.00800000E+00  1.00800000E+00  0.00000000E+00  1.60000000E+01  1.00800000E+00
  1.00800000E+00  0.00000000E+00  1.60000000E+01  1.00800000E+00  1.00800000E+00
  0.00000000E+00  1.60000000E+01  1.00800000E+00  1.00800000E+00  0.00000000E+00
  1.60000000E+01  1.00800000E+00  1.00800000E+00  0.00000000E+00  1.60000000E+01
  1.00800000E+00  1.00800000E+00  0.00000000E+00  1.60000000E+01  1.00800000E+00
  1.00800000E+00  0.00000000E+00  1.60000000E+01  1.00800000E+00  1.00800000E+00
  0.00000000E+00  1.60000000E+01  1.00800000E+00  1.00800000E+00  0.00000000E+00
  1.60000000E+01  1.00800000E+00  1.00800000E+00  0.00000000E+00  1.60000000E+01
  1.00800000E+00  1.00800000E+00  0.00000000E+00  1.60000000E+01  1.00800000E+00
  1.00800000E+00  0.00000000E+00  1.60000000E+01  1.00800000E+00  1.00800000E+00
  0.00000000E+00  1.60000000E+01  1.00800000E+00  1.00800000E+00  0.00000000E+00
  1.60000000E+01  1.00800000E+00  1.00800000E+00  0.00000000E+00  1.60000000E+01
  1.00800000E+00  1.00800000E+00  0.00000000E+00  1.60000000E+01  1.00800000E+00
  1.00800000E+00  0.00000000E+00  1.60000000E+01  1.00800000E+00  1.00800000E+00
  0.00000000E+00  1.60000000E+01  1.00800000E+00  1.00800000E+00  0.00000000E+00
  1.60000000E+01  1.00800000E+00  1.00800000E+00  0.00000000E+00  1.60000000E+01
  1.00800000E+00  1.00800000E+00  0.00000000E+00  1.60000000E+01  1.00800000E+00
  1.00800000E+00  0.00000000E+00  1.60000000E+01  1.00800000E+00  1.00800000E+00
  0.00000000E+00  1.60000000E+01  1.00800000E+00  1.00800000E+00  0.00000000E+00
  1.60000000E+01  1.00800000E+00  1.00800000E+00  0.00000000E+00  1.60000000E+01
  1.00800000E+00  1.00800000E+00  0.00000000E+00  1.60000000E+01  1.00800000E+00
  1.00800000E+00  0.00000000E+00  1.60000000E+01  1.00800000E+00  1.00800000E+00
  0.00000000E+00  1.60000000E+01  1.00800000E+00  1.00800000E+00  0.00000000E+00
  1.60000000E+01  1.00800000E+00  1.00800000E+00  0.00000000E+00  1.60000000E+01
  1.00800000E+00  1.00800000E+00  0.00000000E+00  1.60000000E+01  1.00800000E+00
  1.00800000E+00  0.00000000E+00  1.60000000E+01  1.00800000E+00  1.00800000E+00
  0.00000000E+00  1.60000000E+01  1.00800000E+00  1.00800000E+00  0.00000000E+00
  1.60000000E+01  1.00800000E+00  1.00800000E+00  0.00000000E+00  1.60000000E+01
  1.00800000E+00  1.00800000E+00  0.00000000E+00  1.60000000E+01  1.00800000E+00
  1.00800000E+00  0.00000000E+00  1.60000000E+01  1.00800000E+00  1.00800000E+00
  0.00000000E+00  1.60000000E+01  1.00800000E+00  1.00800000E+00  0.00000000E+00
  1.60000000E+01  1.00800000E+00  1.00800000E+00  0.00000000E+00  1.60000000E+01
  1.00800000E+00  1.00800000E+00  0.00000000E+00  1.60000000E+01  1.00800000E+00
  1.00800000E+00  0.00000000E+00  1.60000000E+01  1.00800000E+00  1.00800000E+00
  0.00000000E+00  1.60000000E+01  1.00800000E+00  1.00800000E+00  0.00000000E+00
  1.60000000E+01  1.00800000E+00  1.00800000E+00  0.00000000E+00  1.60000000E+01
  1.00800000E+00  1.00800000E+00  0.00000000E+00  1.60000000E+01  1.00800000E+00
  1.00800000E+00  0.00000000E+00  1.60000000E+01  1.00800000E+00  1.00800000E+00
  0.00000000E+00  1.60000000E+01  1.00800000E+00  1.00800000E+00  0.00000000E+00
  1.60000000E+01  1.00800000E+00  1.00800000E+00  0.00000000E+00  1.60000000E+01
  1.00800000E+00  1.00800000E+00  0.00000000E+00  1.60000000E+01  1.00800000E+00
  1.00800000E+00  0.00000000E+00  1.60000000E+01  1.00800000E+00  1.00800000E+00
  0.00000000E+00  1.60000000E+01  1.00800000E+00  1.00800000E+00  0.00000000E+00
  1.60000000E+01  1.00800000E+00  1.00800000E+00  0.00000000E+00  1.60000000E+01
  1.00800000E+00  1.00800000E+00  0.00000000E+00  1.60000000E+01  1.00800000E+00
  1.00800000E+00  0.00000000E+00  1.60000000E+01  1.00800000E+00  1.00800000E+00
  0.00000000E+00  1.60000000E+01  1.00800000E+00  1.00800000E+00  0.00000000E+00
  1.60000000E+01  1.00800000E+00  1.00800000E+00  0.00000000E+00  1.60000000E+01
  1.00800000E+00  1.00800000E+00  0.00000000E+00  1.60000000E+01  1.00800000E+00
  1.00800000E+00  0.00000000E+00  1.60000000E+01  1.00800000E+00  1.00800000E+00
  0.00000000E+00  1.60000000E+01  1.00800000E+00  1.00800000E+00  0.00000000E+00
  1.60000000E+01  1.00800000E+00  1.00800000E+00  0.00000000E+00  1.60000000E+01
  1.00800000E+00  1.00800000E+00  0.00000000E+00  1.60000000E+01  1.00800000E+00
  1.00800000E+00  0.00000000E+00  1.60000000E+01  1.00800000E+00  1.00800000E+00
  0.00000000E+00  1.60000000E+01  1.00800000E+00  1.00800000E+00  0.00000000E+00
  1.60000000E+01  1.00800000E+00  1.00800000E+00  0.00000000E+00  1.60000000E+01
  1.00800000E+00  1.00800000E+00  0.00000000E+00  1.60000000E+01  1.00800000E+00
  1.00800000E+00  0.00000000E+00  1.60000000E+01  1.00800000E+00  1.00800000E+00
  0.00000000E+00  1.60000000E+01  1.00800000E+00  1.00800000E+00  0.00000000E+00
  1.60000000E+01  1.00800000E+00  1.00800000E+00  0.00000000E+00  1.60000000E+01
  1.00800000E+00  1.00800000E+00  0.00000000E+00  1.60000000E+01  1.00800000E+00
  1.00800000E+00  0.00000000E+00  1.60000000E+01  1.00800000E+00  1.00800000E+00
  0.00000000E+00  1.60000000E+01  1.00800000E+00  1.00800000E+00  0.00000000E+00
  1.60000000E+01  1.00800000E+00  1.00800000E+00  0.00000000E+00  1.60000000E+01
  1.00800000E+00  1.00800000E+00  0.00000000E+00  1.60000000E+01  1.00800000E+00
  1.00800000E+00  0.00000000E+00  1.60000000E+01  1.00800000E+00  1.00800000E+00
  0.00000000E+00  1.60000000E+01  1.00800000E+00  1.00800000E+00  0.00000000E+00
  1.60000000E+01  1.00800000E+00  1.00800000E+00  0.00000000E+00  1.60000000E+01
  1.00800000E+00  1.00800000E+00  0.00000000E+00  1.60000000E+01  1.00800000E+00
  1.00800000E+00  0.00000000E+00  1.60000000E+01  1.00800000E+00  1.00800000E+00
  0.00000000E+00  1.60000000E+01  1.00800000E+00  1.00800000E+00  0.00000000E+00
  1.60000000E+01  1.00800000E+00  1.00800000E+00  0.00000000E+00  1.60000000E+01
  1.00800000E+00  1.00800000E+00  0.00000000E+00  1.60000000E+01  1.00800000E+00
  1.00800000E+00  0.00000000E+00  1.60000000E+01  1.00800000E+00  1.00800000E+00
  0.00000000E+00  1.60000000E+01  1.00800000E+00  1.00800000E+00  0.00000000E+00
  1.60000000E+01  1.00800000E+00  1.00800000E+00  0.00000000E+00  1.60000000E+01
  1.00800000E+00  1.00800000E+00  0.00000000E+00  1.60000000E+01  1.00800000E+00
  1.00800000E+00  0.00000000E+00  1.60000000E+01  1.00800000E+00  1.00800000E+00
  0.00000000E+00  1.60000000E+01  1.00800000E+00  1.00800000E+00  0.00000000E+00
  1.60000000E+01  1.00800000E+00  1.00800000E+00  0.00000000E+00  1.60000000E+01
  1.00800000E+00  1.00800000E+00  0.00000000E+00  1.60000000E+01  1.00800000E+00
  1.00800000E+00  0.00000000E+00  1.60000000E+01  1.00800000E+00  1.00800000E+00
  0.00000000E+00  1.60000000E+01  1.00800000E+00  1.00800000E+00  0.00000000E+00
  1.60000000E+01  1.00800000E+00  1.00800000E+00  0.00000000E+00  1.60000000E+01
  1.00800000E+00  1.00800000E+00  0.00000000E+00  1.60000000E+01  1.00800000E+00
  1.00800000E+00  0.00000000E+00  1.60000000E+01  1.00800000E+00  1.00800000E+00
  0.00000000E+00  1.60000000E+01  1.00800000E+00  1.00800000E+00  0.00000000E+00
  1.60000000E+01  1.00800000E+00  1.00800000E+00  0.00000000E+00  1.60000000E+01
  1.00800000E+00  1.00800000E+00  0.00000000E+00  1.60000000E+01  1.00800000E+00
  1.00800000E+00  0.00000000E+00  1.60000000E+01  1.00800000E+00  1.00800000E+00
  0.00000000E+00  1.60000000E+01  1.00800000E+00  1.00800000E+00  0.00000000E+00
  1.60000000E+01  1.00800000E+00  1.00800000E+00  0.00000000E+00  1.60000000E+01
  1.00800000E+00  1.00800000E+00  0.00000000E+00  1.60000000E+01  1.00800000E+00
  1.00800000E+00  0.00000000E+00  1.60000000E+01  1.00800000E+00  1.00800000E+00
  0.00000000E+00  1.60000000E+01  1.00800000E+00  1.00800000E+00  0.00000000E+00
  1.60000000E+01  1.00800000E+00  1.00800000E+00  0.00000000E+00  1.60000000E+01
  1.00800000E+00  1.00800000E+00  0.00000000E+00  1.60000000E+01  1.00800000E+00
  1.00800000E+00  0.00000000E+00  1.60000000E+01  1.00800000E+00  1.00800000E+00
  0.00000000E+00  1.60000000E+01  1.00800000E+00  1.00800000E+00  0.00000000E+00
  1.60000000E+01  1.00800000E+00  1.00800000E+00  0.00000000E+00  1.60000000E+01
  1.00800000E+00  1.00800000E+00  0.00000000E+00  1.60000000E+01  1.00800000E+00
  1.00800000E+00  0.00000000E+00  1.60000000E+01  1.00800000E+00  1.00800000E+00
  0.00000000E+00  1.60000000E+01  1.00800000E+00  1.00800000E+00  0.00000000E+00
  1.60000000E+01  1.00800000E+00  1.00800000E+00  0.00000000E+00  1.60000000E+01
  1.00800000E+00  1.00800000E+00  0.00000000E+00  1.60000000E+01  1.00800000E+00
  1.00800000E+00  0.00000000E+00  1.60000000E+01  1.00800000E+00  1.00800000E+00
  0.00000000E+00  1.60000000E+01  1.00800000E+00  1.00800000E+00  0.00000000E+00
  1.60000000E+01  1.00800000E+00  1.00800000E+00  0.00000000E+00  1.60000000E+01
  1.00800000E+00  1.00800000E+00  0.00000000E+00  1.60000000E+01  1.00800000E+00
  1.00800000E+00  0.00000000E+00  1.60000000E+01  1.00800000E+00  1.00800000E+00
  0.00000000E+00  1.60000000E+01  1.00800000E+00  1.00800000E+00  0.00000000E+00
  1.60000000E+01  1.00800000E+00  1.00800000E+00  0.00000000E+00  1.60000000E+01
  1.00800000E+00  1.00800000E+00  0.00000000E+00  1.60000000E+01  1.00800000E+00
  1.00800000E+00  0.00000000E+00  1.60000000E+01  1.00800000E+00  1.00800000E+00
  0.00000000E+00  1.60000000E+01  1.00800000E+00  1.00800000E+00  0.00000000E+00
  1.60000000E+01  1.00800000E+00  1.00800000E+00  0.00000000E+00  1.60000000E+01
  1.00800000E+00  1.00800000E+00  0.00000000E+00  1.60000000E+01  1.00800000E+00
  1.00800000E+00  0.00000000E+00  1.60000000E+01  1.00800000E+00  1.00800000E+00
  0.00000000E+00  1.60000000E+01  1.00800000E+00  1.00800000E+00  0.00000000E+00
  1.60000000E+01  1.00800000E+00  1.00800000E+00  0.00000000E+00  1.60000000E+01
  1.00800000E+00  1.00800000E+00  0.00000000E+00  1.60000000E+01  1.00800000E+00
  1.00800000E+00  0.00000000E+00  1.60000000E+01  1.00800000E+00  1.00800000E+00
  0.00000000E+00  1.60000000E+01  1.00800000E+00  1.00800000E+00  0.00000000E+00
  1.60000000E+01  1.00800000E+00  1.00800000E+00  0.00000000E+00  1.60000000E+01
  1.00800000E+00  1.00800000E+00  0.00000000E+00  1.60000000E+01  1.00800000E+00
  1.00800000E+00  0.00000000E+00  1.60000000E+01  1.00800000E+00  1.00800000E+00
  0.00000000E+00  1.60000000E+01  1.00800000E+00  1.00800000E+00  0.00000000E+00
  1.60000000E+01  1.00800000E+00  1.00800000E+00  0.00000000E+00  1.60000000E+01
  1.00800000E+00  1.00800000E+00  0.00000000E+00  1.60000000E+01  1.00800000E+00
  1.00800000E+00  0.00000000E+00  1.60000000E+01  1.00800000E+00  1.00800000E+00
  0.00000000E+00  1.60000000E+01  1.00800000E+00  1.00800000E+00  0.00000000E+00
  1.60000000E+01  1.00800000E+00  1.00800000E+00  0.00000000E+00  1.60000000E+01
  1.00800000E+00  1.00800000E+00  0.00000000E+00  1.60000000E+01  1.00800000E+00
  1.00800000E+00  0.00000000E+00  1.60000000E+01  1.00800000E+00  1.00800000E+00
  0.00000000E+00  1.60000000E+01  1.00800000E+00  1.00800000E+00  0.00000000E+00
  1.60000000E+01  1.00800000E+00  1.00800000E+00  0.00000000E+00  1.60000000E+01
  1.00800000E+00  1.00800000E+00  0.00000000E+00  1.60000000E+01  1.00800000E+00
  1.00800000E+00  0.00000000E+00  1.60000000E+01  1.00800000E+00  1.00800000E+00
  0.00000000E+00  1.60000000E+01  1.00800000E+00  1.00800000E+00  0.00000000E+00
  1.60000000E+01  1.00800000E+00  1.00800000E+00  0.00000000E+00  1.60000000E+01
  1.00800000E+00  1.00800000E+00  0.00000000E+00  1.60000000E+01  1.00800000E+00
  1.00800000E+00  0.00000000E+00  1.60000000E+01  1.00800000E+00  1.00800000E+00
  0.00000000E+00  1.60000000E+01  1.00800000E+00  1.00800000E+00  0.00000000E+00
  1.60000000E+01  1.00800000E+00  1.00800000E+00  0.00000000E+00  1.60000000E+01
  1.00800000E+00  1.00800000E+00  0.00000000E+00  1.60000000E+01  1.00800000E+00
  1.00800000E+00  0.00000000E+00  1.60000000E+01  1.00800000E+00  1.00800000E+00
  0.00000000E+00  1.60000000E+01  1.00800000E+00  1.00800000E+00  0.00000000E+00
  1.60000000E+01  1.00800000E+00  1.00800000E+00  0.00000000E+00  1.60000000E+01
  1.00800000E+00  1.00800000E+00  0.00000000E+00  1.60000000E+01  1.00800000E+00
  1.00800000E+00  0.00000000E+00  1.60000000E+01  1.00800000E+00  1.00800000E+00
  0.00000000E+00  1.60000000E+01  1.00800000E+00  1.00800000E+00  0.00000000E+00
  1.60000000E+01  1.00800000E+00  1.00800000E+00  0.00000000E+00  1.60000000E+01
  1.00800000E+00  1.00800000E+00  0.00000000E+00  1.60000000E+01  1.00800000E+00
  1.00800000E+00  0.00000000E+00  1.60000000E+01  1.00800000E+00  1.00800000E+00
  0.00000000E+00  1.60000000E+01  1.00800000E+00  1.00800000E+00  0.00000000E+00
  1.60000000E+01  1.00800000E+00  1.00800000E+00  0.00000000E+00  1.60000000E+01
  1.00800000E+00  1.00800000E+00  0.00000000E+00  1.60000000E+01  1.00800000E+00
  1.00800000E+00  0.00000000E+00  1.60000000E+01  1.00800000E+00  1.00800000E+00
  0.00000000E+00  1.60000000E+01  1.00800000E+00  1.00800000E+00  0.00000000E+00
  1.60000000E+01  1.00800000E+00  1.00800000E+00  0.00000000E+00  1.60000000E+01
  1.00800000E+00  1.00800000E+00  0.00000000E+00  1.60000000E+01  1.00800000E+00
  1.00800000E+00  0.00000000E+00  1.60000000E+01  1.00800000E+00  1.00800000E+00
  0.00000000E+00  1.60000000E+01  1.00800000E+00  1.00800000E+00  0.00000000E+00
  1.60000000E+01  1.00800000E+00  1.00800000E+00  0.00000000E+00  1.60000000E+01
  1.00800000E+00  1.00800000E+00  0.00000000E+00  1.60000000E+01  1.00800000E+00
  1.00800000E+00  0.00000000E+00  1.60000000E+01  1.00800000E+00  1.00800000E+00
  0.00000000E+00  1.60000000E+01  1.00800000E+00  1.00800000E+00  0.00000000E+00
  1.60000000E+01  1.00800000E+00  1.00800000E+00  0.00000000E+00  1.60000000E+01
  1.00800000E+00  1.00800000E+00  0.00000000E+00  1.60000000E+01  1.00800000E+00
  1.00800000E+00  0.00000000E+00  1.60000000E+01  1.00800000E+00  1.00800000E+00
  0.00000000E+00  1.60000000E+01  1.00800000E+00  1.00800000E+00  0.00000000E+00
  1.60000000E+01  1.00800000E+00  1.00800000E+00  0.00000000E+00  1.60000000E+01
  1.00800000E+00  1.00800000E+00  0.00000000E+00  1.60000000E+01  1.00800000E+00
  1.00800000E+00  0.00000000E+00  1.60000000E+01  1.00800000E+00  1.00800000E+00
  0.00000000E+00  1.60000000E+01  1.00800000E+00  1.00800000E+00  0.00000000E+00
  1.60000000E+01  1.00800000E+00  1.00800000E+00  0.00000000E+00  1.60000000E+01
  1.00800000E+00  1.00800000E+00  0.00000000E+00  1.60000000E+01  1.00800000E+00
  1.00800000E+00  0.00000000E+00  1.60000000E+01  1.00800000E+00  1.00800000E+00
  0.00000000E+00  1.60000000E+01  1.00800000E+00  1.00800000E+00  0.00000000E+00
  1.60000000E+01  1.00800000E+00  1.00800000E+00  0.00000000E+00  1.60000000E+01
  1.00800000E+00  1.00800000E+00  0.00000000E+00  1.60000000E+01  1.00800000E+00
  1.00800000E+00  0.00000000E+00  1.60000000E+01  1.00800000E+00  1.00800000E+00
  0.00000000E+00  1.60000000E+01  1.00800000E+00  1.00800000E+00  0.00000000E+00
  1.60000000E+01  1.00800000E+00  1.00800000E+00  0.00000000E+00  1.60000000E+01
  1.00800000E+00  1.00800000E+00  0.00000000E+00  1.60000000E+01  1.00800000E+00
  1.00800000E+00  0.00000000E+00  1.60000000E+01  1.00800000E+00  1.00800000E+00
  0.00000000E+00  1.60000000E+01  1.00800000E+00  1.00800000E+00  0.00000000E+00
  1.60000000E+01  1.00800000E+00  1.00800000E+00  0.00000000E+00  1.60000000E+01
  1.00800000E+00  1.00800000E+00  0.00000000E+00  1.60000000E+01  1.00800000E+00
  1.00800000E+00  0.00000000E+00  1.60000000E+01  1.00800000E+00  1.00800000E+00
  0.00000000E+00  1.60000000E+01  1.00800000E+00  1.00800000E+00  0.00000000E+00
  1.60000000E+01  1.00800000E+00  1.00800000E+00  0.00000000E+00  1.60000000E+01
  1.00800000E+00  1.00800000E+00  0.00000000E+00  1.60000000E+01  1.00800000E+00
  1.00800000E+00  0.00000000E+00  1.60000000E+01  1.00800000E+00  1.00800000E+00
  0.00000000E+00  1.60000000E+01  1.00800000E+00  1.00800000E+00  0.00000000E+00
  1.60000000E+01  1.00800000E+00  1.00800000E+00  0.00000000E+00  1.60000000E+01
  1.00800000E+00  1.00800000E+00  0.00000000E+00  1.60000000E+01  1.00800000E+00
  1.00800000E+00  0.00000000E+00  1.60000000E+01  1.00800000E+00  1.00800000E+00
  0.00000000E+00  1.60000000E+01  1.00800000E+00  1.00800000E+00  0.00000000E+00
  1.60000000E+01  1.00800000E+00  1.00800000E+00  0.00000000E+00  1.60000000E+01
  1.00800000E+00  1.00800000E+00  0.00000000E+00  1.60000000E+01  1.00800000E+00
  1.00800000E+00  0.00000000E+00  1.60000000E+01  1.00800000E+00  1.00800000E+00
  0.00000000E+00  1.60000000E+01  1.00800000E+00  1.00800000E+00  0.00000000E+00
  1.60000000E+01  1.00800000E+00  1.00800000E+00  0.00000000E+00  1.60000000E+01
  1.00800000E+00  1.00800000E+00  0.00000000E+00  1.60000000E+01  1.00800000E+00
  1.00800000E+00  0.00000000E+00  1.60000000E+01  1.00800000E+00  1.00800000E+00
  0.00000000E+00  1.60000000E+01  1.00800000E+00  1.00800000E+00  0.00000000E+00
  1.60000000E+01  1.00800000E+00  1.00800000E+00  0.00000000E+00  1.60000000E+01
  1.00800000E+00  1.00800000E+00  0.00000000E+00  1.60000000E+01  1.00800000E+00
  1.00800000E+00  0.00000000E+00  1.60000000E+01  1.00800000E+00  1.00800000E+00
  0.00000000E+00  1.60000000E+01  1.00800000E+00  1.00800000E+00  0.00000000E+00
  1.60000000E+01  1.00800000E+00  1.00800000E+00  0.00000000E+00  1.60000000E+01
  1.00800000E+00  1.00800000E+00  0.00000000E+00  1.60000000E+01  1.00800000E+00
  1.00800000E+00  0.00000000E+00  1.60000000E+01  1.00800000E+00  1.00800000E+00
  0.00000000E+00  1.60000000E+01  1.00800000E+00  1.00800000E+00  0.00000000E+00
  1.60000000E+01  1.00800000E+00  1.00800000E+00  0.00000000E+00  1.60000000E+01
  1.00800000E+00  1.00800000E+00  0.00000000E+00  1.60000000E+01  1.00800000E+00
  1.00800000E+00  0.00000000E+00  1.60000000E+01  1.00800000E+00  1.00800000E+00
  0.00000000E+00  1.60000000E+01  1.00800000E+00  1.00800000E+00  0.00000000E+00
  1.60000000E+01  1.00800000E+00  1.00800000E+00  0.00000000E+00  1.60000000E+01
  1.00800000E+00  1.00800000E+00  0.00000000E+00  1.60000000E+01  1.00800000E+00
  1.00800000E+00  0.00000000E+00  1.60000000E+01  1.00800000E+00  1.00800000E+00
  0.00000000E+00  1.60000000E+01  1.00800000E+00  1.00800000E+00  0.00000000E+00
  1.60000000E+01  1.00800000E+00  1.00800000E+00  0.00000000E+00  1.60000000E+01
  1.00800000E+00  1.00800000E+00  0.00000000E+00  1.60000000E+01  1.00800000E+00
  1.00800000E+00  0.00000000E+00  1.60000000E+01  1.00800000E+00  1.00800000E+00
  0.00000000E+00  1.60000000E+01  1.00800000E+00  1.00800000E+00  0.00000000E+00
  1.60000000E+01  1.00800000E+00  1.00800000E+00  0.00000000E+00  1.60000000E+01
  1.00800000E+00  1.00800000E+00  0.00000000E+00  1.60000000E+01  1.00800000E+00
  1.00800000E+00  0.00000000E+00  1.60000000E+01  1.00800000E+00  1.00800000E+00
  0.00000000E+00  1.60000000E+01  1.00800000E+00  1.00800000E+00  0.00000000E+00
  1.60000000E+01  1.00800000E+00  1.00800000E+00  0.00000000E+00  1.60000000E+01
  1.00800000E+00  1.00800000E+00  0.00000000E+00  1.60000000E+01  1.00800000E+00
  1.00800000E+00  0.00000000E+00  1.60000000E+01  1.00800000E+00  1.00800000E+00
  0.00000000E+00  1.60000000E+01  1.00800000E+00  1.00800000E+00  0.00000000E+00
  1.60000000E+01  1.00800000E+00  1.00800000E+00  0.00000000E+00  1.60000000E+01
  1.00800000E+00  1.00800000E+00  0.00000000E+00  1.60000000E+01  1.00800000E+00
  1.00800000E+00  0.00000000E+00  1.60000000E+01  1.00800000E+00  1.00800000E+00
  0.00000000E+00  1.60000000E+01  1.00800000E+00  1.00800000E+00  0.00000000E+00
  1.60000000E+01  1.00800000E+00  1.00800000E+00  0.00000000E+00  1.60000000E+01
  1.00800000E+00  1.00800000E+00  0.00000000E+00  1.60000000E+01  1.00800000E+00
  1.00800000E+00  0.00000000E+00  1.60000000E+01  1.00800000E+00  1.00800000E+00
  0.00000000E+00  1.60000000E+01  1.00800000E+00  1.00800000E+00  0.00000000E+00
  1.60000000E+01  1.00800000E+00  1.00800000E+00  0.00000000E+00  1.60000000E+01
  1.00800000E+00  1.00800000E+00  0.00000000E+00  1.60000000E+01  1.00800000E+00
  1.00800000E+00  0.00000000E+00  1.60000000E+01  1.00800000E+00  1.00800000E+00
  0.00000000E+00  1.60000000E+01  1.00800000E+00  1.00800000E+00  0.00000000E+00
  1.60000000E+01  1.00800000E+00  1.00800000E+00  0.00000000E+00  1.60000000E+01
  1.00800000E+00  1.00800000E+00  0.00000000E+00  1.60000000E+01  1.00800000E+00
  1.00800000E+00  0.00000000E+00  1.60000000E+01  1.00800000E+00  1.00800000E+00
  0.00000000E+00  1.60000000E+01  1.00800000E+00  1.00800000E+00  0.00000000E+00
  1.60000000E+01  1.00800000E+00  1.00800000E+00  0.00000000E+00  1.60000000E+01
  1.00800000E+00  1.00800000E+00  0.00000000E+00  1.60000000E+01  1.00800000E+00
  1.00800000E+00  0.00000000E+00  1.60000000E+01  1.00800000E+00  1.00800000E+00
  0.00000000E+00  1.60000000E+01  1.00800000E+00  1.00800000E+00  0.00000000E+00
  1.60000000E+01  1.00800000E+00  1.00800000E+00  0.00000000E+00  1.60000000E+01
  1.00800000E+00  1.00800000E+00  0.00000000E+00  1.60000000E+01  1.00800000E+00
  1.00800000E+00  0.00000000E+00  1.60000000E+01  1.00800000E+00  1.00800000E+00
  0.00000000E+00  1.60000000E+01  1.00800000E+00  1.00800000E+00  0.00000000E+00
  1.60000000E+01  1.00800000E+00  1.00800000E+00  0.00000000E+00  1.60000000E+01
  1.00800000E+00  1.00800000E+00  0.00000000E+00  1.60000000E+01  1.00800000E+00
  1.00800000E+00  0.00000000E+00  1.60000000E+01  1.00800000E+00  1.00800000E+00
  0.00000000E+00  1.60000000E+01  1.00800000E+00  1.00800000E+00  0.00000000E+00
  1.60000000E+01  1.00800000E+00  1.00800000E+00  0.00000000E+00  1.60000000E+01
  1.00800000E+00  1.00800000E+00  0.00000000E+00  1.60000000E+01  1.00800000E+00
  1.00800000E+00  0.00000000E+00  1.60000000E+01  1.00800000E+00  1.00800000E+00
  0.00000000E+00  1.60000000E+01  1.00800000E+00  1.00800000E+00  0.00000000E+00
  1.60000000E+01  1.00800000E+00  1.00800000E+00  0.00000000E+00  1.60000000E+01
  1.00800000E+00  1.00800000E+00  0.00000000E+00  1.60000000E+01  1.00800000E+00
  1.00800000E+00  0.00000000E+00  1.60000000E+01  1.00800000E+00  1.00800000E+00
  0.00000000E+00  1.60000000E+01  1.00800000E+00  1.00800000E+00  0.00000000E+00
  1.60000000E+01  1.00800000E+00  1.00800000E+00  0.00000000E+00  1.60000000E+01
  1.00800000E+00  1.00800000E+00  0.00000000E+00  1.60000000E+01  1.00800000E+00
  1.00800000E+00  0.00000000E+00  1.60000000E+01  1.00800000E+00  1.00800000E+00
  0.00000000E+00  1.60000000E+01  1.00800000E+00  1.00800000E+00  0.00000000E+00
  1.60000000E+01  1.00800000E+00  1.00800000E+00  0.00000000E+00  1.60000000E+01
  1.00800000E+00  1.00800000E+00  0.00000000E+00  1.60000000E+01  1.00800000E+00
  1.00800000E+00  0.00000000E+00  1.60000000E+01  1.00800000E+00  1.00800000E+00
  0.00000000E+00  1.60000000E+01  1.00800000E+00  1.00800000E+00  0.00000000E+00
  1.60000000E+01  1.00800000E+00  1.00800000E+00  0.00000000E+00  1.60000000E+01
  1.00800000E+00  1.00800000E+00  0.00000000E+00  1.60000000E+01  1.00800000E+00
  1.00800000E+00  0.00000000E+00  1.60000000E+01  1.00800000E+00  1.00800000E+00
  0.00000000E+00  1.60000000E+01  1.00800000E+00  1.00800000E+00  0.00000000E+00
  1.60000000E+01  1.00800000E+00  1.00800000E+00  0.00000000E+00  1.60000000E+01
  1.00800000E+00  1.00800000E+00  0.00000000E+00  1.60000000E+01  1.00800000E+00
  1.00800000E+00  0.00000000E+00  1.60000000E+01  1.00800000E+00  1.00800000E+00
  0.00000000E+00  1.60000000E+01  1.00800000E+00  1.00800000E+00  0.00000000E+00
  1.60000000E+01  1.00800000E+00  1.00800000E+00  0.00000000E+00  1.60000000E+01
  1.00800000E+00  1.00800000E+00  0.00000000E+00  1.60000000E+01  1.00800000E+00
  1.00800000E+00  0.00000000E+00  1.60000000E+01  1.00800000E+00  1.00800000E+00
  0.00000000E+00  1.60000000E+01  1.00800000E+00  1.00800000E+00  0.00000000E+00
  1.60000000E+01  1.00800000E+00  1.00800000E+00  0.00000000E+00  1.60000000E+01
  1.00800000E+00  1.00800000E+00  0.00000000E+00  1.60000000E+01  1.00800000E+00
  1.00800000E+00  0.00000000E+00  1.60000000E+01  1.00800000E+00  1.00800000E+00
  0.00000000E+00  1.60000000E+01  1.00800000E+00  1.00800000E+00  0.00000000E+00
  1.60000000E+01  1.00800000E+00  1.00800000E+00  0.00000000E+00  1.60000000E+01
  1.00800000E+00  1.00800000E+00  0.00000000E+00  1.60000000E+01  1.00800000E+00
  1.00800000E+00  0.00000000E+00  1.60000000E+01  1.00800000E+00  1.00800000E+00
  0.00000000E+00  1.60000000E+01  1.00800000E+00  1.00800000E+00  0.00000000E+00
  1.60000000E+01  1.00800000E+00  1.00800000E+00  0.00000000E+00  1.60000000E+01
  1.00800000E+00  1.00800000E+00  0.00000000E+00  1.60000000E+01  1.00800000E+00
  1.00800000E+00  0.00000000E+00  1.60000000E+01  1.00800000E+00  1.00800000E+00
  0.00000000E+00  1.60000000E+01  1.00800000E+00  1.00800000E+00  0.00000000E+00
  1.60000000E+01  1.00800000E+00  1.00800000E+00  0.00000000E+00  1.60000000E+01
  1.00800000E+00  1.00800000E+00  0.00000000E+00  1.60000000E+01  1.00800000E+00
  1.00800000E+00  0.00000000E+00  1.60000000E+01  1.00800000E+00  1.00800000E+00
  0.00000000E+00  1.60000000E+01  1.00800000E+00  1.00800000E+00  0.00000000E+00
  1.60000000E+01  1.00800000E+00  1.00800000E+00  0.00000000E+00  1.60000000E+01
  1.00800000E+00  1.00800000E+00  0.00000000E+00  1.60000000E+01  1.00800000E+00
  1.00800000E+00  0.00000000E+00  1.60000000E+01  1.00800000E+00  1.00800000E+00
  0.00000000E+00  1.60000000E+01  1.00800000E+00  1.00800000E+00  0.00000000E+00
  1.60000000E+01  1.00800000E+00  1.00800000E+00  0.00000000E+00  1.60000000E+01
  1.00800000E+00  1.00800000E+00  0.00000000E+00  1.60000000E+01  1.00800000E+00
  1.00800000E+00  0.00000000E+00  1.60000000E+01  1.00800000E+00  1.00800000E+00
  0.00000000E+00  1.60000000E+01  1.00800000E+00  1.00800000E+00  0.00000000E+00
  1.60000000E+01  1.00800000E+00  1.00800000E+00  0.00000000E+00  1.60000000E+01
  1.00800000E+00  1.00800000E+00  0.00000000E+00  1.60000000E+01  1.00800000E+00
  1.00800000E+00  0.00000000E+00  1.60000000E+01  1.00800000E+00  1.00800000E+00
  0.00000000E+00  1.60000000E+01  1.00800000E+00  1.00800000E+00  0.00000000E+00
  1.60000000E+01  1.00800000E+00  1.00800000E+00  0.00000000E+00  1.60000000E+01
  1.00800000E+00  1.00800000E+00  0.00000000E+00  1.60000000E+01  1.00800000E+00
  1.00800000E+00  0.00000000E+00  1.60000000E+01  1.00800000E+00  1.00800000E+00
  0.00000000E+00  1.60000000E+01  1.00800000E+00  1.00800000E+00  0.00000000E+00
  1.60000000E+01  1.00800000E+00  1.00800000E+00  0.00000000E+00  1.60000000E+01
  1.00800000E+00  1.00800000E+00  0.00000000E+00  1.60000000E+01  1.00800000E+00
  1.00800000E+00  0.00000000E+00  1.60000000E+01  1.00800000E+00  1.00800000E+00
  0.00000000E+00  1.60000000E+01  1.00800000E+00  1.00800000E+00  0.00000000E+00
  1.60000000E+01  1.00800000E+00  1.00800000E+00  0.00000000E+00  1.60000000E+01
  1.00800000E+00  1.00800000E+00  0.00000000E+00  1.60000000E+01  1.00800000E+00
  1.00800000E+00  0.00000000E+00  1.60000000E+01  1.00800000E+00  1.00800000E+00
  0.00000000E+00  1.60000000E+01  1.00800000E+00  1.00800000E+00  0.00000000E+00
  1.60000000E+01  1.00800000E+00  1.00800000E+00  0.00000000E+00  1.60000000E+01
  1.00800000E+00  1.00800000E+00  0.00000000E+00  1.60000000E+01  1.00800000E+00
  1.00800000E+00  0.00000000E+00  1.60000000E+01  1.00800000E+00  1.00800000E+00
  0.00000000E+00  1.60000000E+01  1.00800000E+00  1.00800000E+00  0.00000000E+00
  1.60000000E+01  1.00800000E+00  1.00800000E+00  0.00000000E+00  1.60000000E+01
  1.00800000E+00  1.00800000E+00  0.00000000E+00  1.60000000E+01  1.00800000E+00
  1.00800000E+00  0.00000000E+00  1.60000000E+01  1.00800000E+00  1.00800000E+00
  0.00000000E+00  1.60000000E+01  1.00800000E+00  1.00800000E+00  0.00000000E+00
  1.60000000E+01  1.00800000E+00  1.00800000E+00  0.00000000E+00  1.60000000E+01
  1.00800000E+00  1.00800000E+00  0.00000000E+00  1.60000000E+01  1.00800000E+00
  1.00800000E+00  0.00000000E+00  1.60000000E+01  1.00800000E+00  1.00800000E+00
  0.00000000E+00  1.60000000E+01  1.00800000E+00  1.00800000E+00  0.00000000E+00
  1.60000000E+01  1.00800000E+00  1.00800000E+00  0.00000000E+00  1.60000000E+01
  1.00800000E+00  1.00800000E+00  0.00000000E+00  1.60000000E+01  1.00800000E+00
  1.00800000E+00  0.00000000E+00  1.60000000E+01  1.00800000E+00  1.00800000E+00
  0.00000000E+00  1.60000000E+01  1.00800000E+00  1.00800000E+00  0.00000000E+00
  1.60000000E+01  1.00800000E+00  1.00800000E+00  0.00000000E+00  1.60000000E+01
  1.00800000E+00  1.00800000E+00  0.00000000E+00  1.60000000E+01  1.00800000E+00
  1.00800000E+00  0.00000000E+00  1.60000000E+01  1.00800000E+00  1.00800000E+00
  0.00000000E+00  1.60000000E+01  1.00800000E+00  1.00800000E+00  0.00000000E+00
  1.60000000E+01  1.00800000E+00  1.00800000E+00  0.00000000E+00  1.60000000E+01
  1.00800000E+00  1.00800000E+00  0.00000000E+00  1.60000000E+01  1.00800000E+00
  1.00800000E+00  0.00000000E+00  1.60000000E+01  1.00800000E+00  1.00800000E+00
  0.00000000E+00  1.60000000E+01  1.00800000E+00  1.00800000E+00  0.00000000E+00
  1.60000000E+01  1.00800000E+00  1.00800000E+00  0.00000000E+00  1.60000000E+01
  1.00800000E+00  1.00800000E+00  0.00000000E+00  1.60000000E+01  1.00800000E+00
  1.00800000E+00  0.00000000E+00  1.60000000E+01  1.00800000E+00  1.00800000E+00
  0.00000000E+00  1.60000000E+01  1.00800000E+00  1.00800000E+00  0.00000000E+00
  1.60000000E+01  1.00800000E+00  1.00800000E+00  0.00000000E+00  1.60000000E+01
  1.00800000E+00  1.00800000E+00  0.00000000E+00  1.60000000E+01  1.00800000E+00
  1.00800000E+00  0.00000000E+00  1.60000000E+01  1.00800000E+00  1.00800000E+00
  0.00000000E+00  1.60000000E+01  1.00800000E+00  1.00800000E+00  0.00000000E+00
  1.60000000E+01  1.00800000E+00  1.00800000E+00  0.00000000E+00  1.60000000E+01
  1.00800000E+00  1.00800000E+00  0.00000000E+00  1.60000000E+01  1.00800000E+00
  1.00800000E+00  0.00000000E+00  1.60000000E+01  1.00800000E+00  1.00800000E+00
  0.00000000E+00  1.60000000E+01  1.00800000E+00  1.00800000E+00  0.00000000E+00
  1.60000000E+01  1.00800000E+00  1.00800000E+00  0.00000000E+00  1.60000000E+01
  1.00800000E+00  1.00800000E+00  0.00000000E+00  1.60000000E+01  1.00800000E+00
  1.00800000E+00  0.00000000E+00  1.60000000E+01  1.00800000E+00  1.00800000E+00
  0.00000000E+00  1.60000000E+01  1.00800000E+00  1.00800000E+00  0.00000000E+00
  1.60000000E+01  1.00800000E+00  1.00800000E+00  0.00000000E+00  1.60000000E+01
  1.00800000E+00  1.00800000E+00  0.00000000E+00  1.60000000E+01  1.00800000E+00
  1.00800000E+00  0.00000000E+00  1.60000000E+01  1.00800000E+00  1.00800000E+00
  0.00000000E+00  1.60000000E+01  1.00800000E+00  1.00800000E+00  0.00000000E+00
  1.60000000E+01  1.00800000E+00  1.00800000E+00  0.00000000E+00  1.60000000E+01
  1.00800000E+00  1.00800000E+00  0.00000000E+00  1.60000000E+01  1.00800000E+00
  1.00800000E+00  0.00000000E+00  1.60000000E+01  1.00800000E+00  1.00800000E+00
  0.00000000E+00  1.60000000E+01  1.00800000E+00  1.00800000E+00  0.00000000E+00
  1.60000000E+01  1.00800000E+00  1.00800000E+00  0.00000000E+00  1.60000000E+01
  1.00800000E+00  1.00800000E+00  0.00000000E+00  1.60000000E+01  1.00800000E+00
  1.00800000E+00  0.00000000E+00  1.60000000E+01  1.00800000E+00  1.00800000E+00
  0.00000000E+00  1.60000000E+01  1.00800000E+00  1.00800000E+00  0.00000000E+00
  1.60000000E+01  1.00800000E+00  1.00800000E+00  0.00000000E+00  1.60000000E+01
  1.00800000E+00  1.00800000E+00  0.00000000E+00  1.60000000E+01  1.00800000E+00
  1.00800000E+00  0.00000000E+00  1.60000000E+01  1.00800000E+00  1.00800000E+00
  0.00000000E+00  1.60000000E+01  1.00800000E+00  1.00800000E+00  0.00000000E+00
  1.60000000E+01  1.00800000E+00  1.00800000E+00  0.00000000E+00  1.60000000E+01
  1.00800000E+00  1.00800000E+00  0.00000000E+00  1.60000000E+01  1.00800000E+00
  1.00800000E+00  0.00000000E+00  1.60000000E+01  1.00800000E+00  1.00800000E+00
  0.00000000E+00  1.60000000E+01  1.00800000E+00  1.00800000E+00  0.00000000E+00
  1.60000000E+01  1.00800000E+00  1.00800000E+00  0.00000000E+00  1.60000000E+01
  1.00800000E+00  1.00800000E+00  0.00000000E+00  1.60000000E+01  1.00800000E+00
  1.00800000E+00  0.00000000E+00  1.60000000E+01  1.00800000E+00  1.00800000E+00
  0.00000000E+00  1.60000000E+01  1.00800000E+00  1.00800000E+00  0.00000000E+00
  1.60000000E+01  1.00800000E+00  1.00800000E+00  0.00000000E+00  1.60000000E+01
  1.00800000E+00  1.00800000E+00  0.00000000E+00  1.60000000E+01  1.00800000E+00
  1.00800000E+00  0.00000000E+00  1.60000000E+01  1.00800000E+00  1.00800000E+00
  0.00000000E+00  1.60000000E+01  1.00800000E+00  1.00800000E+00  0.00000000E+00
  1.60000000E+01  1.00800000E+00  1.00800000E+00  0.00000000E+00  1.60000000E+01
  1.00800000E+00  1.00800000E+00  0.00000000E+00  1.60000000E+01  1.00800000E+00
  1.00800000E+00  0.00000000E+00  1.60000000E+01  1.00800000E+00  1.00800000E+00
  0.00000000E+00  1.60000000E+01  1.00800000E+00  1.00800000E+00  0.00000000E+00
  1.60000000E+01  1.00800000E+00  1.00800000E+00  0.00000000E+00  1.60000000E+01
  1.00800000E+00  1.00800000E+00  0.00000000E+00  1.60000000E+01  1.00800000E+00
  1.00800000E+00  0.00000000E+00  1.60000000E+01  1.00800000E+00  1.00800000E+00
  0.00000000E+00  1.60000000E+01  1.00800000E+00  1.00800000E+00  0.00000000E+00
  1.60000000E+01  1.00800000E+00  1.00800000E+00  0.00000000E+00  1.60000000E+01
  1.00800000E+00  1.00800000E+00  0.00000000E+00  1.60000000E+01  1.00800000E+00
  1.00800000E+00  0.00000000E+00  1.60000000E+01  1.00800000E+00  1.00800000E+00
  0.00000000E+00  1.60000000E+01  1.00800000E+00  1.00800000E+00  0.00000000E+00
  1.60000000E+01  1.00800000E+00  1.00800000E+00  0.00000000E+00  1.60000000E+01
  1.00800000E+00  1.00800000E+00  0.00000000E+00  1.60000000E+01  1.00800000E+00
  1.00800000E+00  0.00000000E+00  1.60000000E+01  1.00800000E+00  1.00800000E+00
  0.00000000E+00  1.60000000E+01  1.00800000E+00  1.00800000E+00  0.00000000E+00
  1.60000000E+01  1.00800000E+00  1.00800000E+00  0.00000000E+00  1.60000000E+01
  1.00800000E+00  1.00800000E+00  0.00000000E+00  1.60000000E+01  1.00800000E+00
  1.00800000E+00  0.00000000E+00  1.60000000E+01  1.00800000E+00  1.00800000E+00
  0.00000000E+00  1.60000000E+01  1.00800000E+00  1.00800000E+00  0.00000000E+00
  1.60000000E+01  1.00800000E+00  1.00800000E+00  0.00000000E+00  1.60000000E+01
  1.00800000E+00  1.00800000E+00  0.00000000E+00  1.60000000E+01  1.00800000E+00
  1.00800000E+00  0.00000000E+00  1.60000000E+01  1.00800000E+00  1.00800000E+00
  0.00000000E+00  1.60000000E+01  1.00800000E+00  1.00800000E+00  0.00000000E+00
  1.60000000E+01  1.00800000E+00  1.00800000E+00  0.00000000E+00  1.60000000E+01
  1.00800000E+00  1.00800000E+00  0.00000000E+00  1.60000000E+01  1.00800000E+00
  1.00800000E+00  0.00000000E+00  1.60000000E+01  1.00800000E+00  1.00800000E+00
  0.00000000E+00  1.60000000E+01  1.00800000E+00  1.00800000E+00  0.00000000E+00
  1.60000000E+01  1.00800000E+00  1.00800000E+00  0.00000000E+00  1.60000000E+01
  1.00800000E+00  1.00800000E+00  0.00000000E+00  1.60000000E+01  1.00800000E+00
  1.00800000E+00  0.00000000E+00  1.60000000E+01  1.00800000E+00  1.00800000E+00
  0.00000000E+00  1.60000000E+01  1.00800000E+00  1.00800000E+00  0.00000000E+00
  1.60000000E+01  1.00800000E+00  1.00800000E+00  0.00000000E+00  1.60000000E+01
  1.00800000E+00  1.00800000E+00  0.00000000E+00  1.60000000E+01  1.00800000E+00
  1.00800000E+00  0.00000000E+00  1.60000000E+01  1.00800000E+00  1.00800000E+00
  0.00000000E+00  1.60000000E+01  1.00800000E+00  1.00800000E+00  0.00000000E+00
  1.60000000E+01  1.00800000E+00  1.00800000E+00  0.00000000E+00  1.60000000E+01
  1.00800000E+00  1.00800000E+00  0.00000000E+00  1.60000000E+01  1.00800000E+00
  1.00800000E+00  0.00000000E+00  1.60000000E+01  1.00800000E+00  1.00800000E+00
  0.00000000E+00  1.60000000E+01  1.00800000E+00  1.00800000E+00  0.00000000E+00
  1.60000000E+01  1.00800000E+00  1.00800000E+00  0.00000000E+00  1.60000000E+01
  1.00800000E+00  1.00800000E+00  0.00000000E+00  1.60000000E+01  1.00800000E+00
  1.00800000E+00  0.00000000E+00  1.60000000E+01  1.00800000E+00  1.00800000E+00
  0.00000000E+00  1.60000000E+01  1.00800000E+00  1.00800000E+00  0.00000000E+00
  1.60000000E+01  1.00800000E+00  1.00800000E+00  0.00000000E+00  1.60000000E+01
  1.00800000E+00  1.00800000E+00  0.00000000E+00  1.60000000E+01  1.00800000E+00
  1.00800000E+00  0.00000000E+00  1.60000000E+01  1.00800000E+00  1.00800000E+00
  0.00000000E+00  1.60000000E+01  1.00800000E+00  1.00800000E+00  0.00000000E+00
  1.60000000E+01  1.00800000E+00  1.00800000E+00  0.00000000E+00  1.60000000E+01
  1.00800000E+00  1.00800000E+00  0.00000000E+00  1.60000000E+01  1.00800000E+00
  1.00800000E+00  0.00000000E+00  1.60000000E+01  1.00800000E+00  1.00800000E+00
  0.00000000E+00  1.60000000E+01  1.00800000E+00  1.00800000E+00  0.00000000E+00
  1.60000000E+01  1.00800000E+00  1.00800000E+00  0.00000000E+00  1.60000000E+01
  1.00800000E+00  1.00800000E+00  0.00000000E+00  1.60000000E+01  1.00800000E+00
  1.00800000E+00  0.00000000E+00  1.60000000E+01  1.00800000E+00  1.00800000E+00
  0.00000000E+00  1.60000000E+01  1.00800000E+00  1.00800000E+00  0.00000000E+00
  1.60000000E+01  1.00800000E+00  1.00800000E+00  0.00000000E+00  1.60000000E+01
  1.00800000E+00  1.00800000E+00  0.00000000E+00  1.60000000E+01  1.00800000E+00
  1.00800000E+00  0.00000000E+00  1.60000000E+01  1.00800000E+00  1.00800000E+00
  0.00000000E+00  1.60000000E+01  1.00800000E+00  1.00800000E+00  0.00000000E+00
  1.60000000E+01  1.00800000E+00  1.00800000E+00  0.00000000E+00  1.60000000E+01
  1.00800000E+00  1.00800000E+00  0.00000000E+00  1.60000000E+01  1.00800000E+00
  1.00800000E+00  0.00000000E+00  1.60000000E+01  1.00800000E+00  1.00800000E+00
  0.00000000E+00  1.60000000E+01  1.00800000E+00  1.00800000E+00  0.00000000E+00
  1.60000000E+01  1.00800000E+00  1.00800000E+00  0.00000000E+00  1.60000000E+01
  1.00800000E+00  1.00800000E+00  0.00000000E+00  1.60000000E+01  1.00800000E+00
  1.00800000E+00  0.00000000E+00  1.60000000E+01  1.00800000E+00  1.00800000E+00
  0.00000000E+00  1.60000000E+01  1.00800000E+00  1.00800000E+00  0.00000000E+00
  1.60000000E+01  1.00800000E+00  1.00800000E+00  0.00000000E+00  1.60000000E+01
  1.00800000E+00  1.00800000E+00  0.00000000E+00  1.60000000E+01  1.00800000E+00
  1.00800000E+00  0.00000000E+00  1.60000000E+01  1.00800000E+00  1.00800000E+00
  0.00000000E+00  1.60000000E+01  1.00800000E+00  1.00800000E+00  0.00000000E+00
  1.60000000E+01  1.00800000E+00  1.00800000E+00  0.00000000E+00  1.60000000E+01
  1.00800000E+00  1.00800000E+00  0.00000000E+00  1.60000000E+01  1.00800000E+00
  1.00800000E+00  0.00000000E+00  1.60000000E+01  1.00800000E+00  1.00800000E+00
  0.00000000E+00  1.60000000E+01  1.00800000E+00  1.00800000E+00  0.00000000E+00
  1.60000000E+01  1.00800000E+00  1.00800000E+00  0.00000000E+00  1.60000000E+01
  1.00800000E+00  1.00800000E+00  0.00000000E+00  1.60000000E+01  1.00800000E+00
  1.00800000E+00  0.00000000E+00  1.60000000E+01  1.00800000E+00  1.00800000E+00
  0.00000000E+00  1.60000000E+01  1.00800000E+00  1.00800000E+00  0.00000000E+00
  1.60000000E+01  1.00800000E+00  1.00800000E+00  0.00000000E+00  1.60000000E+01
  1.00800000E+00  1.00800000E+00  0.00000000E+00  1.60000000E+01  1.00800000E+00
  1.00800000E+00  0.00000000E+00  1.60000000E+01  1.00800000E+00  1.00800000E+00
  0.00000000E+00  1.60000000E+01  1.00800000E+00  1.00800000E+00  0.00000000E+00
  1.60000000E+01  1.00800000E+00  1.00800000E+00  0.00000000E+00  1.60000000E+01
  1.00800000E+00  1.00800000E+00  0.00000000E+00  1.60000000E+01  1.00800000E+00
  1.00800000E+00  0.00000000E+00  1.60000000E+01  1.00800000E+00  1.00800000E+00
  0.00000000E+00  1.60000000E+01  1.00800000E+00  1.00800000E+00  0.00000000E+00
  1.60000000E+01  1.00800000E+00  1.00800000E+00  0.00000000E+00  1.60000000E+01
  1.00800000E+00  1.00800000E+00  0.00000000E+00  1.60000000E+01  1.00800000E+00
  1.00800000E+00  0.00000000E+00  1.60000000E+01  1.00800000E+00  1.00800000E+00
  0.00000000E+00  1.60000000E+01  1.00800000E+00  1.00800000E+00  0.00000000E+00
  1.60000000E+01  1.00800000E+00  1.00800000E+00  0.00000000E+00  1.60000000E+01
  1.00800000E+00  1.00800000E+00  0.00000000E+00  1.60000000E+01  1.00800000E+00
  1.00800000E+00  0.00000000E+00  1.60000000E+01  1.00800000E+00  1.00800000E+00
  0.00000000E+00  1.60000000E+01  1.00800000E+00  1.00800000E+00  0.00000000E+00
  1.60000000E+01  1.00800000E+00  1.00800000E+00  0.00000000E+00  1.60000000E+01
  1.00800000E+00  1.00800000E+00  0.00000000E+00  1.60000000E+01  1.00800000E+00
  1.00800000E+00  0.00000000E+00  1.60000000E+01  1.00800000E+00  1.00800000E+00
  0.00000000E+00  1.60000000E+01  1.00800000E+00  1.00800000E+00  0.00000000E+00
  1.60000000E+01  1.00800000E+00  1.00800000E+00  0.00000000E+00  1.60000000E+01
  1.00800000E+00  1.00800000E+00  0.00000000E+00  1.60000000E+01  1.00800000E+00
  1.00800000E+00  0.00000000E+00  1.60000000E+01  1.00800000E+00  1.00800000E+00
  0.00000000E+00  1.60000000E+01  1.00800000E+00  1.00800000E+00  0.00000000E+00
  1.60000000E+01  1.00800000E+00  1.00800000E+00  0.00000000E+00  1.60000000E+01
  1.00800000E+00  1.00800000E+00  0.00000000E+00  1.60000000E+01  1.00800000E+00
  1.00800000E+00  0.00000000E+00  1.60000000E+01  1.00800000E+00  1.00800000E+00
  0.00000000E+00  1.60000000E+01  1.00800000E+00  1.00800000E+00  0.00000000E+00
  1.60000000E+01  1.00800000E+00  1.00800000E+00  0.00000000E+00  1.60000000E+01
  1.00800000E+00  1.00800000E+00  0.00000000E+00  1.60000000E+01  1.00800000E+00
  1.00800000E+00  0.00000000E+00  1.60000000E+01  1.00800000E+00  1.00800000E+00
  0.00000000E+00  1.60000000E+01  1.00800000E+00  1.00800000E+00  0.00000000E+00
  1.60000000E+01  1.00800000E+00  1.00800000E+00  0.00000000E+00  1.60000000E+01
  1.00800000E+00  1.00800000E+00  0.00000000E+00  1.60000000E+01  1.00800000E+00
  1.00800000E+00  0.00000000E+00  1.60000000E+01  1.00800000E+00  1.00800000E+00
  0.00000000E+00  1.60000000E+01  1.00800000E+00  1.00800000E+00  0.00000000E+00
  1.60000000E+01  1.00800000E+00  1.00800000E+00  0.00000000E+00  1.60000000E+01
  1.00800000E+00  1.00800000E+00  0.00000000E+00  1.60000000E+01  1.00800000E+00
  1.00800000E+00  0.00000000E+00  1.60000000E+01  1.00800000E+00  1.00800000E+00
  0.00000000E+00  1.60000000E+01  1.00800000E+00  1.00800000E+00  0.00000000E+00
  1.60000000E+01  1.00800000E+00  1.00800000E+00  0.00000000E+00  1.60000000E+01
  1.00800000E+00  1.00800000E+00  0.00000000E+00  1.60000000E+01  1.00800000E+00
  1.00800000E+00  0.00000000E+00  1.60000000E+01  1.00800000E+00  1.00800000E+00
  0.00000000E+00  1.60000000E+01  1.00800000E+00  1.00800000E+00  0.00000000E+00
  1.60000000E+01  1.00800000E+00  1.00800000E+00  0.00000000E+00  1.60000000E+01
  1.00800000E+00  1.00800000E+00  0.00000000E+00  1.60000000E+01  1.00800000E+00
  1.00800000E+00  0.00000000E+00  1.60000000E+01  1.00800000E+00  1.00800000E+00
  0.00000000E+00  1.60000000E+01  1.00800000E+00  1.00800000E+00  0.00000000E+00
  1.60000000E+01  1.00800000E+00  1.00800000E+00  0.00000000E+00  1.60000000E+01
  1.00800000E+00  1.00800000E+00  0.00000000E+00  1.60000000E+01  1.00800000E+00
  1.00800000E+00  0.00000000E+00  1.60000000E+01  1.00800000E+00  1.00800000E+00
  0.00000000E+00  1.60000000E+01  1.00800000E+00  1.00800000E+00  0.00000000E+00
  1.60000000E+01  1.00800000E+00  1.00800000E+00  0.00000000E+00  1.60000000E+01
  1.00800000E+00  1.00800000E+00  0.00000000E+00  1.60000000E+01  1.00800000E+00
  1.00800000E+00  0.00000000E+00  1.60000000E+01  1.00800000E+00  1.00800000E+00
  0.00000000E+00  1.60000000E+01  1.00800000E+00  1.00800000E+00  0.00000000E+00
  1.60000000E+01  1.00800000E+00  1.00800000E+00  0.00000000E+00  1.60000000E+01
  1.00800000E+00  1.00800000E+00  0.00000000E+00  1.60000000E+01  1.00800000E+00
  1.00800000E+00  0.00000000E+00  1.60000000E+01  1.00800000E+00  1.00800000E+00
  0.00000000E+00  1.60000000E+01  1.00800000E+00  1.00800000E+00  0.00000000E+00
  1.60000000E+01  1.00800000E+00  1.00800000E+00  0.00000000E+00  1.60000000E+01
  1.00800000E+00  1.00800000E+00  0.00000000E+00  1.60000000E+01  1.00800000E+00
  1.00800000E+00  0.00000000E+00  1.60000000E+01  1.00800000E+00  1.00800000E+00
  0.00000000E+00  1.60000000E+01  1.00800000E+00  1.00800000E+00  0.00000000E+00
  1.60000000E+01  1.00800000E+00  1.00800000E+00  0.00000000E+00  1.60000000E+01
  1.00800000E+00  1.00800000E+00  0.00000000E+00  1.60000000E+01  1.00800000E+00
  1.00800000E+00  0.00000000E+00  1.60000000E+01  1.00800000E+00  1.00800000E+00
  0.00000000E+00  1.60000000E+01  1.00800000E+00  1.00800000E+00  0.00000000E+00
  1.60000000E+01  1.00800000E+00  1.00800000E+00  0.00000000E+00  1.60000000E+01
  1.00800000E+00  1.00800000E+00  0.00000000E+00  1.60000000E+01  1.00800000E+00
  1.00800000E+00  0.00000000E+00  1.60000000E+01  1.00800000E+00  1.00800000E+00
  0.00000000E+00  1.60000000E+01  1.00800000E+00  1.00800000E+00  0.00000000E+00
  1.60000000E+01  1.00800000E+00  1.00800000E+00  0.00000000E+00  1.60000000E+01
  1.00800000E+00  1.00800000E+00  0.00000000E+00  1.60000000E+01  1.00800000E+00
  1.00800000E+00  0.00000000E+00  1.60000000E+01  1.00800000E+00  1.00800000E+00
  0.00000000E+00  1.60000000E+01  1.00800000E+00  1.00800000E+00  0.00000000E+00
  1.60000000E+01  1.00800000E+00  1.00800000E+00  0.00000000E+00  1.60000000E+01
  1.00800000E+00  1.00800000E+00  0.00000000E+00  1.60000000E+01  1.00800000E+00
  1.00800000E+00  0.00000000E+00  1.60000000E+01  1.00800000E+00  1.00800000E+00
  0.00000000E+00  1.60000000E+01  1.00800000E+00  1.00800000E+00  0.00000000E+00
  1.60000000E+01  1.00800000E+00  1.00800000E+00  0.00000000E+00  1.60000000E+01
  1.00800000E+00  1.00800000E+00  0.00000000E+00  1.60000000E+01  1.00800000E+00
  1.00800000E+00  0.00000000E+00  1.60000000E+01  1.00800000E+00  1.00800000E+00
  0.00000000E+00  1.60000000E+01  1.00800000E+00  1.00800000E+00  0.00000000E+00
  1.60000000E+01  1.00800000E+00  1.00800000E+00  0.00000000E+00  1.60000000E+01
  1.00800000E+00  1.00800000E+00  0.00000000E+00  1.60000000E+01  1.00800000E+00
  1.00800000E+00  0.00000000E+00  1.60000000E+01  1.00800000E+00  1.00800000E+00
  0.00000000E+00  1.60000000E+01  1.00800000E+00  1.00800000E+00  0.00000000E+00
  1.60000000E+01  1.00800000E+00  1.00800000E+00  0.00000000E+00  1.60000000E+01
  1.00800000E+00  1.00800000E+00  0.00000000E+00  1.60000000E+01  1.00800000E+00
  1.00800000E+00  0.00000000E+00  1.60000000E+01  1.00800000E+00  1.00800000E+00
  0.00000000E+00  1.60000000E+01  1.00800000E+00  1.00800000E+00  0.00000000E+00
  1.60000000E+01  1.00800000E+00  1.00800000E+00  0.00000000E+00  1.60000000E+01
  1.00800000E+00  1.00800000E+00  0.00000000E+00  1.60000000E+01  1.00800000E+00
  1.00800000E+00  0.00000000E+00  1.60000000E+01  1.00800000E+00  1.00800000E+00
  0.00000000E+00  1.60000000E+01  1.00800000E+00  1.00800000E+00  0.00000000E+00
  1.60000000E+01  1.00800000E+00  1.00800000E+00  0.00000000E+00  1.60000000E+01
  1.00800000E+00  1.00800000E+00  0.00000000E+00  1.60000000E+01  1.00800000E+00
  1.00800000E+00  0.00000000E+00  1.60000000E+01  1.00800000E+00  1.00800000E+00
  0.00000000E+00  1.60000000E+01  1.00800000E+00  1.00800000E+00  0.00000000E+00
  1.60000000E+01  1.00800000E+00  1.00800000E+00  0.00000000E+00  1.60000000E+01
  1.00800000E+00  1.00800000E+00  0.00000000E+00  1.60000000E+01  1.00800000E+00
  1.00800000E+00  0.00000000E+00  1.60000000E+01  1.00800000E+00  1.00800000E+00
  0.00000000E+00  1.60000000E+01  1.00800000E+00  1.00800000E+00  0.00000000E+00
  1.60000000E+01  1.00800000E+00  1.00800000E+00  0.00000000E+00  1.60000000E+01
  1.00800000E+00  1.00800000E+00  0.00000000E+00  1.60000000E+01  1.00800000E+00
  1.00800000E+00  0.00000000E+00  1.60000000E+01  1.00800000E+00  1.00800000E+00
  0.00000000E+00  1.60000000E+01  1.00800000E+00  1.00800000E+00  0.00000000E+00
  1.60000000E+01  1.00800000E+00  1.00800000E+00  0.00000000E+00  1.60000000E+01
  1.00800000E+00  1.00800000E+00  0.00000000E+00  1.60000000E+01  1.00800000E+00
  1.00800000E+00  0.00000000E+00  1.60000000E+01  1.00800000E+00  1.00800000E+00
  0.00000000E+00  1.60000000E+01  1.00800000E+00  1.00800000E+00  0.00000000E+00
  1.60000000E+01  1.00800000E+00  1.00800000E+00  0.00000000E+00  1.60000000E+01
  1.00800000E+00  1.00800000E+00  0.00000000E+00  1.60000000E+01  1.00800000E+00
  1.00800000E+00  0.00000000E+00  1.60000000E+01  1.00800000E+00  1.00800000E+00
  0.00000000E+00  1.60000000E+01  1.00800000E+00  1.00800000E+00  0.00000000E+00
  1.60000000E+01  1.00800000E+00  1.00800000E+00  0.00000000E+00  1.60000000E+01
  1.00800000E+00  1.00800000E+00  0.00000000E+00  1.60000000E+01  1.00800000E+00
  1.00800000E+00  0.00000000E+00  1.60000000E+01  1.00800000E+00  1.00800000E+00
  0.00000000E+00  1.60000000E+01  1.00800000E+00  1.00800000E+00  0.00000000E+00
  1.60000000E+01  1.00800000E+00  1.00800000E+00  0.00000000E+00  1.60000000E+01
  1.00800000E+00  1.00800000E+00  0.00000000E+00  1.60000000E+01  1.00800000E+00
  1.00800000E+00  0.00000000E+00  1.60000000E+01  1.00800000E+00  1.00800000E+00
  0.00000000E+00  1.60000000E+01  1.00800000E+00  1.00800000E+00  0.00000000E+00
  1.60000000E+01  1.00800000E+00  1.00800000E+00  0.00000000E+00  1.60000000E+01
  1.00800000E+00  1.00800000E+00  0.00000000E+00  1.60000000E+01  1.00800000E+00
  1.00800000E+00  0.00000000E+00  1.60000000E+01  1.00800000E+00  1.00800000E+00
  0.00000000E+00  1.60000000E+01  1.00800000E+00  1.00800000E+00  0.00000000E+00
  1.60000000E+01  1.00800000E+00  1.00800000E+00  0.00000000E+00  1.60000000E+01
  1.00800000E+00  1.00800000E+00  0.00000000E+00  1.60000000E+01  1.00800000E+00
  1.00800000E+00  0.00000000E+00  1.60000000E+01  1.00800000E+00  1.00800000E+00
  0.00000000E+00  1.60000000E+01  1.00800000E+00  1.00800000E+00  0.00000000E+00
  1.60000000E+01  1.00800000E+00  1.00800000E+00  0.00000000E+00  1.60000000E+01
  1.00800000E+00  1.00800000E+00  0.00000000E+00  1.60000000E+01  1.00800000E+00
  1.00800000E+00  0.00000000E+00  1.60000000E+01  1.00800000E+00  1.00800000E+00
  0.00000000E+00  1.60000000E+01  1.00800000E+00  1.00800000E+00  0.00000000E+00
  1.60000000E+01  1.00800000E+00  1.00800000E+00  0.00000000E+00  1.60000000E+01
  1.00800000E+00  1.00800000E+00  0.00000000E+00  1.60000000E+01  1.00800000E+00
  1.00800000E+00  0.00000000E+00  1.60000000E+01  1.00800000E+00  1.00800000E+00
  0.00000000E+00  1.60000000E+01  1.00800000E+00  1.00800000E+00  0.00000000E+00
  1.60000000E+01  1.00800000E+00  1.00800000E+00  0.00000000E+00  1.60000000E+01
  1.00800000E+00  1.00800000E+00  0.00000000E+00  1.60000000E+01  1.00800000E+00
  1.00800000E+00  0.00000000E+00  1.60000000E+01  1.00800000E+00  1.00800000E+00
  0.00000000E+00  1.60000000E+01  1.00800000E+00  1.00800000E+00  0.00000000E+00
  1.60000000E+01  1.00800000E+00  1.00800000E+00  0.00000000E+00  1.60000000E+01
  1.00800000E+00  1.00800000E+00  0.00000000E+00  1.60000000E+01  1.00800000E+00
  1.00800000E+00  0.00000000E+00  1.60000000E+01  1.00800000E+00  1.00800000E+00
  0.00000000E+00  1.60000000E+01  1.00800000E+00  1.00800000E+00  0.00000000E+00
  1.60000000E+01  1.00800000E+00  1.00800000E+00  0.00000000E+00  1.60000000E+01
  1.00800000E+00  1.00800000E+00  0.00000000E+00  1.60000000E+01  1.00800000E+00
  1.00800000E+00  0.00000000E+00  1.60000000E+01  1.00800000E+00  1.00800000E+00
  0.00000000E+00  1.60000000E+01  1.00800000E+00  1.00800000E+00  0.00000000E+00
  1.60000000E+01  1.00800000E+00  1.00800000E+00  0.00000000E+00  1.60000000E+01
  1.00800000E+00  1.00800000E+00  0.00000000E+00  1.60000000E+01  1.00800000E+00
  1.00800000E+00  0.00000000E+00  1.60000000E+01  1.00800000E+00  1.00800000E+00
  0.00000000E+00  1.60000000E+01  1.00800000E+00  1.00800000E+00  0.00000000E+00
  1.60000000E+01  1.00800000E+00  1.00800000E+00  0.00000000E+00  1.60000000E+01
  1.00800000E+00  1.00800000E+00  0.00000000E+00  1.60000000E+01  1.00800000E+00
  1.00800000E+00  0.00000000E+00  1.60000000E+01  1.00800000E+00  1.00800000E+00
  0.00000000E+00  1.60000000E+01  1.00800000E+00  1.00800000E+00  0.00000000E+00
  1.60000000E+01  1.00800000E+00  1.00800000E+00  0.00000000E+00  1.60000000E+01
  1.00800000E+00  1.00800000E+00  0.00000000E+00  1.60000000E+01  1.00800000E+00
  1.00800000E+00  0.00000000E+00  1.60000000E+01  1.00800000E+00  1.00800000E+00
  0.00000000E+00  1.60000000E+01  1.00800000E+00  1.00800000E+00  0.00000000E+00
  1.60000000E+01  1.00800000E+00  1.00800000E+00  0.00000000E+00  1.60000000E+01
  1.00800000E+00  1.00800000E+00  0.00000000E+00  1.60000000E+01  1.00800000E+00
  1.00800000E+00  0.00000000E+00  1.60000000E+01  1.00800000E+00  1.00800000E+00
  0.00000000E+00  1.60000000E+01  1.00800000E+00  1.00800000E+00  0.00000000E+00
  1.60000000E+01  1.00800000E+00  1.00800000E+00  0.00000000E+00  1.60000000E+01
  1.00800000E+00  1.00800000E+00  0.00000000E+00  1.60000000E+01  1.00800000E+00
  1.00800000E+00  0.00000000E+00  1.60000000E+01  1.00800000E+00  1.00800000E+00
  0.00000000E+00  1.60000000E+01  1.00800000E+00  1.00800000E+00  0.00000000E+00
  1.60000000E+01  1.00800000E+00  1.00800000E+00  0.00000000E+00  1.60000000E+01
  1.00800000E+00  1.00800000E+00  0.00000000E+00  1.60000000E+01  1.00800000E+00
  1.00800000E+00  0.00000000E+00  1.60000000E+01  1.00800000E+00  1.00800000E+00
  0.00000000E+00  1.60000000E+01  1.00800000E+00  1.00800000E+00  0.00000000E+00
  1.60000000E+01  1.00800000E+00  1.00800000E+00  0.00000000E+00  1.60000000E+01
  1.00800000E+00  1.00800000E+00  0.00000000E+00  1.60000000E+01  1.00800000E+00
  1.00800000E+00  0.00000000E+00  1.60000000E+01  1.00800000E+00  1.00800000E+00
  0.00000000E+00  1.60000000E+01  1.00800000E+00  1.00800000E+00  0.00000000E+00
  1.60000000E+01  1.00800000E+00  1.00800000E+00  0.00000000E+00  1.60000000E+01
  1.00800000E+00  1.00800000E+00  0.00000000E+00  1.60000000E+01  1.00800000E+00
  1.00800000E+00  0.00000000E+00  1.60000000E+01  1.00800000E+00  1.00800000E+00
  0.00000000E+00  1.60000000E+01  1.00800000E+00  1.00800000E+00  0.00000000E+00
  1.60000000E+01  1.00800000E+00  1.00800000E+00  0.00000000E+00  1.60000000E+01
  1.00800000E+00  1.00800000E+00  0.00000000E+00  1.60000000E+01  1.00800000E+00
  1.00800000E+00  0.00000000E+00  1.60000000E+01  1.00800000E+00  1.00800000E+00
  0.00000000E+00  1.60000000E+01  1.00800000E+00  1.00800000E+00  0.00000000E+00
  1.60000000E+01  1.00800000E+00  1.00800000E+00  0.00000000E+00  1.60000000E+01
  1.00800000E+00  1.00800000E+00  0.00000000E+00  1.60000000E+01  1.00800000E+00
  1.00800000E+00  0.00000000E+00  1.60000000E+01  1.00800000E+00  1.00800000E+00
  0.00000000E+00  1.60000000E+01  1.00800000E+00  1.00800000E+00  0.00000000E+00
  1.60000000E+01  1.00800000E+00  1.00800000E+00  0.00000000E+00  1.60000000E+01
  1.00800000E+00  1.00800000E+00  0.00000000E+00  1.60000000E+01  1.00800000E+00
  1.00800000E+00  0.00000000E+00  1.60000000E+01  1.00800000E+00  1.00800000E+00
  0.00000000E+00  1.60000000E+01  1.00800000E+00  1.00800000E+00  0.00000000E+00
  1.60000000E+01  1.00800000E+00  1.00800000E+00  0.00000000E+00  1.60000000E+01
  1.00800000E+00  1.00800000E+00  0.00000000E+00  1.60000000E+01  1.00800000E+00
  1.00800000E+00  0.00000000E+00  1.60000000E+01  1.00800000E+00  1.00800000E+00
  0.00000000E+00  1.60000000E+01  1.00800000E+00  1.00800000E+00  0.00000000E+00
  1.60000000E+01  1.00800000E+00  1.00800000E+00  0.00000000E+00  1.60000000E+01
  1.00800000E+00  1.00800000E+00  0.00000000E+00  1.60000000E+01  1.00800000E+00
  1.00800000E+00  0.00000000E+00  1.60000000E+01  1.00800000E+00  1.00800000E+00
  0.00000000E+00  1.60000000E+01  1.00800000E+00  1.00800000E+00  0.00000000E+00
  1.60000000E+01  1.00800000E+00  1.00800000E+00  0.00000000E+00  1.60000000E+01
  1.00800000E+00  1.00800000E+00  0.00000000E+00  1.60000000E+01  1.00800000E+00
  1.00800000E+00  0.00000000E+00  1.60000000E+01  1.00800000E+00  1.00800000E+00
  0.00000000E+00  1.60000000E+01  1.00800000E+00  1.00800000E+00  0.00000000E+00
  1.60000000E+01  1.00800000E+00  1.00800000E+00  0.00000000E+00  1.60000000E+01
  1.00800000E+00  1.00800000E+00  0.00000000E+00  1.60000000E+01  1.00800000E+00
  1.00800000E+00  0.00000000E+00  1.60000000E+01  1.00800000E+00  1.00800000E+00
  0.00000000E+00  1.60000000E+01  1.00800000E+00  1.00800000E+00  0.00000000E+00
  1.60000000E+01  1.00800000E+00  1.00800000E+00  0.00000000E+00  1.60000000E+01
  1.00800000E+00  1.00800000E+00  0.00000000E+00  1.60000000E+01  1.00800000E+00
  1.00800000E+00  0.00000000E+00  1.60000000E+01  1.00800000E+00  1.00800000E+00
  0.00000000E+00  1.60000000E+01  1.00800000E+00  1.00800000E+00  0.00000000E+00
  1.60000000E+01  1.00800000E+00  1.00800000E+00  0.00000000E+00  1.60000000E+01
  1.00800000E+00  1.00800000E+00  0.00000000E+00  1.60000000E+01  1.00800000E+00
  1.00800000E+00  0.00000000E+00  1.60000000E+01  1.00800000E+00  1.00800000E+00
  0.00000000E+00  1.60000000E+01  1.00800000E+00  1.00800000E+00  0.00000000E+00
  1.60000000E+01  1.00800000E+00  1.00800000E+00  0.00000000E+00  1.60000000E+01
  1.00800000E+00  1.00800000E+00  0.00000000E+00  1.60000000E+01  1.00800000E+00
  1.00800000E+00  0.00000000E+00  1.60000000E+01  1.00800000E+00  1.00800000E+00
  0.00000000E+00  1.60000000E+01  1.00800000E+00  1.00800000E+00  0.00000000E+00
  1.60000000E+01  1.00800000E+00  1.00800000E+00  0.00000000E+00  1.60000000E+01
  1.00800000E+00  1.00800000E+00  0.00000000E+00  1.60000000E+01  1.00800000E+00
  1.00800000E+00  0.00000000E+00  1.60000000E+01  1.00800000E+00  1.00800000E+00
  0.00000000E+00  1.60000000E+01  1.00800000E+00  1.00800000E+00  0.00000000E+00
  1.60000000E+01  1.00800000E+00  1.00800000E+00  0.00000000E+00  1.60000000E+01
  1.00800000E+00  1.00800000E+00  0.00000000E+00  1.60000000E+01  1.00800000E+00
  1.00800000E+00  0.00000000E+00  1.60000000E+01  1.00800000E+00  1.00800000E+00
  0.00000000E+00  1.60000000E+01  1.00800000E+00  1.00800000E+00  0.00000000E+00
  1.60000000E+01  1.00800000E+00  1.00800000E+00  0.00000000E+00  1.60000000E+01
  1.00800000E+00  1.00800000E+00  0.00000000E+00  1.60000000E+01  1.00800000E+00
  1.00800000E+00  0.00000000E+00  1.60000000E+01  1.00800000E+00  1.00800000E+00
  0.00000000E+00  1.60000000E+01  1.00800000E+00  1.00800000E+00  0.00000000E+00
  1.60000000E+01  1.00800000E+00  1.00800000E+00  0.00000000E+00  1.60000000E+01
  1.00800000E+00  1.00800000E+00  0.00000000E+00  1.60000000E+01  1.00800000E+00
  1.00800000E+00  0.00000000E+00  1.60000000E+01  1.00800000E+00  1.00800000E+00
  0.00000000E+00  1.60000000E+01  1.00800000E+00  1.00800000E+00  0.00000000E+00
  1.60000000E+01  1.00800000E+00  1.00800000E+00  0.00000000E+00  1.60000000E+01
  1.00800000E+00  1.00800000E+00  0.00000000E+00  1.60000000E+01  1.00800000E+00
  1.00800000E+00  0.00000000E+00  1.60000000E+01  1.00800000E+00  1.00800000E+00
  0.00000000E+00  1.60000000E+01  1.00800000E+00  1.00800000E+00  0.00000000E+00
  1.60000000E+01  1.00800000E+00  1.00800000E+00  0.00000000E+00  1.60000000E+01
  1.00800000E+00  1.00800000E+00  0.00000000E+00  1.60000000E+01  1.00800000E+00
  1.00800000E+00  0.00000000E+00  1.60000000E+01  1.00800000E+00  1.00800000E+00
  0.00000000E+00  1.60000000E+01  1.00800000E+00  1.00800000E+00  0.00000000E+00
  1.60000000E+01  1.00800000E+00  1.00800000E+00  0.00000000E+00  1.60000000E+01
  1.00800000E+00  1.00800000E+00  0.00000000E+00  1.60000000E+01  1.00800000E+00
  1.00800000E+00  0.00000000E+00  1.60000000E+01  1.00800000E+00  1.00800000E+00
  0.00000000E+00  1.60000000E+01  1.00800000E+00  1.00800000E+00  0.00000000E+00
  1.60000000E+01  1.00800000E+00  1.00800000E+00  0.00000000E+00  1.60000000E+01
  1.00800000E+00  1.00800000E+00  0.00000000E+00  1.60000000E+01  1.00800000E+00
  1.00800000E+00  0.00000000E+00  1.60000000E+01  1.00800000E+00  1.00800000E+00
  0.00000000E+00  1.60000000E+01  1.00800000E+00  1.00800000E+00  0.00000000E+00
  1.60000000E+01  1.00800000E+00  1.00800000E+00  0.00000000E+00  1.60000000E+01
  1.00800000E+00  1.00800000E+00  0.00000000E+00  1.60000000E+01  1.00800000E+00
  1.00800000E+00  0.00000000E+00  1.60000000E+01  1.00800000E+00  1.00800000E+00
  0.00000000E+00  1.60000000E+01  1.00800000E+00  1.00800000E+00  0.00000000E+00
  1.60000000E+01  1.00800000E+00  1.00800000E+00  0.00000000E+00  1.60000000E+01
  1.00800000E+00  1.00800000E+00  0.00000000E+00  1.60000000E+01  1.00800000E+00
  1.00800000E+00  0.00000000E+00  1.60000000E+01  1.00800000E+00  1.00800000E+00
  0.00000000E+00  1.60000000E+01  1.00800000E+00  1.00800000E+00  0.00000000E+00
  1.60000000E+01  1.00800000E+00  1.00800000E+00  0.00000000E+00  1.60000000E+01
  1.00800000E+00  1.00800000E+00  0.00000000E+00  1.60000000E+01  1.00800000E+00
  1.00800000E+00  0.00000000E+00  1.60000000E+01  1.00800000E+00  1.00800000E+00
  0.00000000E+00  1.60000000E+01  1.00800000E+00  1.00800000E+00  0.00000000E+00
  1.60000000E+01  1.00800000E+00  1.00800000E+00  0.00000000E+00  1.60000000E+01
  1.00800000E+00  1.00800000E+00  0.00000000E+00  1.60000000E+01  1.00800000E+00
  1.00800000E+00  0.00000000E+00  1.60000000E+01  1.00800000E+00  1.00800000E+00
  0.00000000E+00  1.60000000E+01  1.00800000E+00  1.00800000E+00  0.00000000E+00
  1.60000000E+01  1.00800000E+00  1.00800000E+00  0.00000000E+00  1.60000000E+01
  1.00800000E+00  1.00800000E+00  0.00000000E+00  1.60000000E+01  1.00800000E+00
  1.00800000E+00  0.00000000E+00  1.60000000E+01  1.00800000E+00  1.00800000E+00
  0.00000000E+00  1.60000000E+01  1.00800000E+00  1.00800000E+00  0.00000000E+00
  1.60000000E+01  1.00800000E+00  1.00800000E+00  0.00000000E+00  1.60000000E+01
  1.00800000E+00  1.00800000E+00  0.00000000E+00  1.60000000E+01  1.00800000E+00
  1.00800000E+00  0.00000000E+00  1.60000000E+01  1.00800000E+00  1.00800000E+00
  0.00000000E+00  1.60000000E+01  1.00800000E+00  1.00800000E+00  0.00000000E+00
  1.60000000E+01  1.00800000E+00  1.00800000E+00  0.00000000E+00  1.60000000E+01
  1.00800000E+00  1.00800000E+00  0.00000000E+00  1.60000000E+01  1.00800000E+00
  1.00800000E+00  0.00000000E+00  1.60000000E+01  1.00800000E+00  1.00800000E+00
  0.00000000E+00  1.60000000E+01  1.00800000E+00  1.00800000E+00  0.00000000E+00
  1.60000000E+01  1.00800000E+00  1.00800000E+00  0.00000000E+00  1.60000000E+01
  1.00800000E+00  1.00800000E+00  0.00000000E+00  1.60000000E+01  1.00800000E+00
  1.00800000E+00  0.00000000E+00  1.60000000E+01  1.00800000E+00  1.00800000E+00
  0.00000000E+00  1.60000000E+01  1.00800000E+00  1.00800000E+00  0.00000000E+00
  1.60000000E+01  1.00800000E+00  1.00800000E+00  0.00000000E+00  1.60000000E+01
  1.00800000E+00  1.00800000E+00  0.00000000E+00  1.60000000E+01  1.00800000E+00
  1.00800000E+00  0.00000000E+00  1.60000000E+01  1.00800000E+00  1.00800000E+00
  0.00000000E+00  1.60000000E+01  1.00800000E+00  1.00800000E+00  0.00000000E+00
  1.60000000E+01  1.00800000E+00  1.00800000E+00  0.00000000E+00  1.60000000E+01
  1.00800000E+00  1.00800000E+00  0.00000000E+00  1.60000000E+01  1.00800000E+00
  1.00800000E+00  0.00000000E+00  1.60000000E+01  1.00800000E+00  1.00800000E+00
  0.00000000E+00  1.60000000E+01  1.00800000E+00  1.00800000E+00  0.00000000E+00
  1.60000000E+01  1.00800000E+00  1.00800000E+00  0.00000000E+00  1.60000000E+01
  1.00800000E+00  1.00800000E+00  0.00000000E+00  1.60000000E+01  1.00800000E+00
  1.00800000E+00  0.00000000E+00  1.60000000E+01  1.00800000E+00  1.00800000E+00
  0.00000000E+00  1.60000000E+01  1.00800000E+00  1.00800000E+00  0.00000000E+00
  1.60000000E+01  1.00800000E+00  1.00800000E+00  0.00000000E+00  1.60000000E+01
  1.00800000E+00  1.00800000E+00  0.00000000E+00  1.60000000E+01  1.00800000E+00
  1.00800000E+00  0.00000000E+00  1.60000000E+01  1.00800000E+00  1.00800000E+00
  0.00000000E+00  1.60000000E+01  1.00800000E+00  1.00800000E+00  0.00000000E+00
  1.60000000E+01  1.00800000E+00  1.00800000E+00  0.00000000E+00  1.60000000E+01
  1.00800000E+00  1.00800000E+00  0.00000000E+00  1.60000000E+01  1.00800000E+00
  1.00800000E+00  0.00000000E+00  1.60000000E+01  1.00800000E+00  1.00800000E+00
  0.00000000E+00  1.60000000E+01  1.00800000E+00  1.00800000E+00  0.00000000E+00
  1.60000000E+01  1.00800000E+00  1.00800000E+00  0.00000000E+00  1.60000000E+01
  1.00800000E+00  1.00800000E+00  0.00000000E+00  1.60000000E+01  1.00800000E+00
  1.00800000E+00  0.00000000E+00  1.60000000E+01  1.00800000E+00  1.00800000E+00
  0.00000000E+00  1.60000000E+01  1.00800000E+00  1.00800000E+00  0.00000000E+00
  1.60000000E+01  1.00800000E+00  1.00800000E+00  0.00000000E+00  1.60000000E+01
  1.00800000E+00  1.00800000E+00  0.00000000E+00  1.60000000E+01  1.00800000E+00
  1.00800000E+00  0.00000000E+00  1.60000000E+01  1.00800000E+00  1.00800000E+00
  0.00000000E+00  1.60000000E+01  1.00800000E+00  1.00800000E+00  0.00000000E+00
  1.60000000E+01  1.00800000E+00  1.00800000E+00  0.00000000E+00  1.60000000E+01
  1.00800000E+00  1.00800000E+00  0.00000000E+00  1.60000000E+01  1.00800000E+00
  1.00800000E+00  0.00000000E+00  1.60000000E+01  1.00800000E+00  1.00800000E+00
  0.00000000E+00  1.60000000E+01  1.00800000E+00  1.00800000E+00  0.00000000E+00
  1.60000000E+01  1.00800000E+00  1.00800000E+00  0.00000000E+00  1.60000000E+01
  1.00800000E+00  1.00800000E+00  0.00000000E+00  1.60000000E+01  1.00800000E+00
  1.00800000E+00  0.00000000E+00  1.60000000E+01  1.00800000E+00  1.00800000E+00
  0.00000000E+00  1.60000000E+01  1.00800000E+00  1.00800000E+00  0.00000000E+00
  1.60000000E+01  1.00800000E+00  1.00800000E+00  0.00000000E+00  1.60000000E+01
  1.00800000E+00  1.00800000E+00  0.00000000E+00  1.60000000E+01  1.00800000E+00
  1.00800000E+00  0.00000000E+00  1.60000000E+01  1.00800000E+00  1.00800000E+00
  0.00000000E+00  1.60000000E+01  1.00800000E+00  1.00800000E+00  0.00000000E+00
  1.60000000E+01  1.00800000E+00  1.00800000E+00  0.00000000E+00  1.60000000E+01
  1.00800000E+00  1.00800000E+00  0.00000000E+00  1.60000000E+01  1.00800000E+00
  1.00800000E+00  0.00000000E+00  1.60000000E+01  1.00800000E+00  1.00800000E+00
  0.00000000E+00  1.60000000E+01  1.00800000E+00  1.00800000E+00  0.00000000E+00
  1.60000000E+01  1.00800000E+00  1.00800000E+00  0.00000000E+00  1.60000000E+01
  1.00800000E+00  1.00800000E+00  0.00000000E+00  1.60000000E+01  1.00800000E+00
  1.00800000E+00  0.00000000E+00  1.60000000E+01  1.00800000E+00  1.00800000E+00
  0.00000000E+00  1.60000000E+01  1.00800000E+00  1.00800000E+00  0.00000000E+00
  1.60000000E+01  1.00800000E+00  1.00800000E+00  0.00000000E+00  1.60000000E+01
  1.00800000E+00  1.00800000E+00  0.00000000E+00  1.60000000E+01  1.00800000E+00
  1.00800000E+00  0.00000000E+00  1.60000000E+01  1.00800000E+00  1.00800000E+00
  0.00000000E+00  1.60000000E+01  1.00800000E+00  1.00800000E+00  0.00000000E+00
  1.60000000E+01  1.00800000E+00  1.00800000E+00  0.00000000E+00  1.60000000E+01
  1.00800000E+00  1.00800000E+00  0.00000000E+00  1.60000000E+01  1.00800000E+00
  1.00800000E+00  0.00000000E+00  1.60000000E+01  1.00800000E+00  1.00800000E+00
  0.00000000E+00  1.60000000E+01  1.00800000E+00  1.00800000E+00  0.00000000E+00
  1.60000000E+01  1.00800000E+00  1.00800000E+00  0.00000000E+00  1.60000000E+01
  1.00800000E+00  1.00800000E+00  0.00000000E+00  1.60000000E+01  1.00800000E+00
  1.00800000E+00  0.00000000E+00  1.60000000E+01  1.00800000E+00  1.00800000E+00
  0.00000000E+00  1.60000000E+01  1.00800000E+00  1.00800000E+00  0.00000000E+00
  1.60000000E+01  1.00800000E+00  1.00800000E+00  0.00000000E+00  1.60000000E+01
  1.00800000E+00  1.00800000E+00  0.00000000E+00  1.60000000E+01  1.00800000E+00
  1.00800000E+00  0.00000000E+00  1.60000000E+01  1.00800000E+00  1.00800000E+00
  0.00000000E+00  1.60000000E+01  1.00800000E+00  1.00800000E+00  0.00000000E+00
  1.60000000E+01  1.00800000E+00  1.00800000E+00  0.00000000E+00  1.60000000E+01
  1.00800000E+00  1.00800000E+00  0.00000000E+00  1.60000000E+01  1.00800000E+00
  1.00800000E+00  0.00000000E+00  1.60000000E+01  1.00800000E+00  1.00800000E+00
  0.00000000E+00  1.60000000E+01  1.00800000E+00  1.00800000E+00  0.00000000E+00
  1.60000000E+01  1.00800000E+00  1.00800000E+00  0.00000000E+00  1.60000000E+01
  1.00800000E+00  1.00800000E+00  0.00000000E+00  1.60000000E+01  1.00800000E+00
  1.00800000E+00  0.00000000E+00  1.60000000E+01  1.00800000E+00  1.00800000E+00
  0.00000000E+00  1.60000000E+01  1.00800000E+00  1.00800000E+00  0.00000000E+00
  1.60000000E+01  1.00800000E+00  1.00800000E+00  0.00000000E+00  1.60000000E+01
  1.00800000E+00  1.00800000E+00  0.00000000E+00  1.60000000E+01  1.00800000E+00
  1.00800000E+00  0.00000000E+00  1.60000000E+01  1.00800000E+00  1.00800000E+00
  0.00000000E+00  1.60000000E+01  1.00800000E+00  1.00800000E+00  0.00000000E+00
  1.60000000E+01  1.00800000E+00  1.00800000E+00  0.00000000E+00  1.60000000E+01
  1.00800000E+00  1.00800000E+00  0.00000000E+00  1.60000000E+01  1.00800000E+00
  1.00800000E+00  0.00000000E+00  1.60000000E+01  1.00800000E+00  1.00800000E+00
  0.00000000E+00  1.60000000E+01  1.00800000E+00  1.00800000E+00  0.00000000E+00
  1.60000000E+01  1.00800000E+00  1.00800000E+00  0.00000000E+00  1.60000000E+01
  1.00800000E+00  1.00800000E+00  0.00000000E+00  1.60000000E+01  1.00800000E+00
  1.00800000E+00  0.00000000E+00  1.60000000E+01  1.00800000E+00  1.00800000E+00
  0.00000000E+00  1.60000000E+01  1.00800000E+00  1.00800000E+00  0.00000000E+00
  1.60000000E+01  1.00800000E+00  1.00800000E+00  0.00000000E+00  1.60000000E+01
  1.00800000E+00  1.00800000E+00  0.00000000E+00  1.60000000E+01  1.00800000E+00
  1.00800000E+00  0.00000000E+00  1.60000000E+01  1.00800000E+00  1.00800000E+00
  0.00000000E+00  1.60000000E+01  1.00800000E+00  1.00800000E+00  0.00000000E+00
  1.60000000E+01  1.00800000E+00  1.00800000E+00  0.00000000E+00  1.60000000E+01
  1.00800000E+00  1.00800000E+00  0.00000000E+00  1.60000000E+01  1.00800000E+00
  1.00800000E+00  0.00000000E+00  1.60000000E+01  1.00800000E+00  1.00800000E+00
  0.00000000E+00  1.60000000E+01  1.00800000E+00  1.00800000E+00  0.00000000E+00
  1.60000000E+01  1.00800000E+00  1.00800000E+00  0.00000000E+00  1.60000000E+01
  1.00800000E+00  1.00800000E+00  0.00000000E+00  1.60000000E+01  1.00800000E+00
  1.00800000E+00  0.00000000E+00  1.60000000E+01  1.00800000E+00  1.00800000E+00
  0.00000000E+00  1.60000000E+01  1.00800000E+00  1.00800000E+00  0.00000000E+00
  1.60000000E+01  1.00800000E+00  1.00800000E+00  0.00000000E+00  1.60000000E+01
  1.00800000E+00  1.00800000E+00  0.00000000E+00  1.60000000E+01  1.00800000E+00
  1.00800000E+00  0.00000000E+00  1.60000000E+01  1.00800000E+00  1.00800000E+00
  0.00000000E+00  1.60000000E+01  1.00800000E+00  1.00800000E+00  0.00000000E+00
  1.60000000E+01  1.00800000E+00  1.00800000E+00  0.00000000E+00  1.60000000E+01
  1.00800000E+00  1.00800000E+00  0.00000000E+00  1.60000000E+01  1.00800000E+00
  1.00800000E+00  0.00000000E+00  1.60000000E+01  1.00800000E+00  1.00800000E+00
  0.00000000E+00  1.60000000E+01  1.00800000E+00  1.00800000E+00  0.00000000E+00
  1.60000000E+01  1.00800000E+00  1.00800000E+00  0.00000000E+00  1.60000000E+01
  1.00800000E+00  1.00800000E+00  0.00000000E+00  1.60000000E+01  1.00800000E+00
  1.00800000E+00  0.00000000E+00  1.60000000E+01  1.00800000E+00  1.00800000E+00
  0.00000000E+00  1.60000000E+01  1.00800000E+00  1.00800000E+00  0.00000000E+00
  1.60000000E+01  1.00800000E+00  1.00800000E+00  0.00000000E+00  1.60000000E+01
  1.00800000E+00  1.00800000E+00  0.00000000E+00  1.60000000E+01  1.00800000E+00
  1.00800000E+00  0.00000000E+00  1.60000000E+01  1.00800000E+00  1.00800000E+00
  0.00000000E+00  1.60000000E+01  1.00800000E+00  1.00800000E+00  0.00000000E+00
  1.60000000E+01  1.00800000E+00  1.00800000E+00  0.00000000E+00  1.60000000E+01
  1.00800000E+00  1.00800000E+00  0.00000000E+00  1.60000000E+01  1.00800000E+00
  1.00800000E+00  0.00000000E+00  1.60000000E+01  1.00800000E+00  1.00800000E+00
  0.00000000E+00  1.60000000E+01  1.00800000E+00  1.00800000E+00  0.00000000E+00
  1.60000000E+01  1.00800000E+00  1.00800000E+00  0.00000000E+00  1.60000000E+01
  1.00800000E+00  1.00800000E+00  0.00000000E+00  1.60000000E+01  1.00800000E+00
  1.00800000E+00  0.00000000E+00  1.60000000E+01  1.00800000E+00  1.00800000E+00
  0.00000000E+00  1.60000000E+01  1.00800000E+00  1.00800000E+00  0.00000000E+00
  1.60000000E+01  1.00800000E+00  1.00800000E+00  0.00000000E+00  1.60000000E+01
  1.00800000E+00  1.00800000E+00  0.00000000E+00  1.60000000E+01  1.00800000E+00
  1.00800000E+00  0.00000000E+00  1.60000000E+01  1.00800000E+00  1.00800000E+00
  0.00000000E+00  1.60000000E+01  1.00800000E+00  1.00800000E+00  0.00000000E+00
  1.60000000E+01  1.00800000E+00  1.00800000E+00  0.00000000E+00  1.60000000E+01
  1.00800000E+00  1.00800000E+00  0.00000000E+00  1.60000000E+01  1.00800000E+00
  1.00800000E+00  0.00000000E+00  1.60000000E+01  1.00800000E+00  1.00800000E+00
  0.00000000E+00  1.60000000E+01  1.00800000E+00  1.00800000E+00  0.00000000E+00
  1.60000000E+01  1.00800000E+00  1.00800000E+00  0.00000000E+00  1.60000000E+01
  1.00800000E+00  1.00800000E+00  0.00000000E+00  1.60000000E+01  1.00800000E+00
  1.00800000E+00  0.00000000E+00  1.60000000E+01  1.00800000E+00  1.00800000E+00
  0.00000000E+00  1.60000000E+01  1.00800000E+00  1.00800000E+00  0.00000000E+00
  1.60000000E+01  1.00800000E+00  1.00800000E+00  0.00000000E+00  1.60000000E+01
  1.00800000E+00  1.00800000E+00  0.00000000E+00  1.60000000E+01  1.00800000E+00
  1.00800000E+00  0.00000000E+00  1.60000000E+01  1.00800000E+00  1.00800000E+00
  0.00000000E+00  1.60000000E+01  1.00800000E+00  1.00800000E+00  0.00000000E+00
  1.60000000E+01  1.00800000E+00  1.00800000E+00  0.00000000E+00  1.60000000E+01
  1.00800000E+00  1.00800000E+00  0.00000000E+00  1.60000000E+01  1.00800000E+00
  1.00800000E+00  0.00000000E+00  1.60000000E+01  1.00800000E+00  1.00800000E+00
  0.00000000E+00  1.60000000E+01  1.00800000E+00  1.00800000E+00  0.00000000E+00
  1.60000000E+01  1.00800000E+00  1.00800000E+00  0.00000000E+00  1.60000000E+01
  1.00800000E+00  1.00800000E+00  0.00000000E+00  1.60000000E+01  1.00800000E+00
  1.00800000E+00  0.00000000E+00  1.60000000E+01  1.00800000E+00  1.00800000E+00
  0.00000000E+00  1.60000000E+01  1.00800000E+00  1.00800000E+00  0.00000000E+00
  1.60000000E+01  1.00800000E+00  1.00800000E+00  0.00000000E+00  1.60000000E+01
  1.00800000E+00  1.00800000E+00  0.00000000E+00  1.60000000E+01  1.00800000E+00
  1.00800000E+00  0.00000000E+00  1.60000000E+01  1.00800000E+00  1.00800000E+00
  0.00000000E+00  1.60000000E+01  1.00800000E+00  1.00800000E+00  0.00000000E+00
  1.60000000E+01  1.00800000E+00  1.00800000E+00  0.00000000E+00  1.60000000E+01
  1.00800000E+00  1.00800000E+00  0.00000000E+00  1.60000000E+01  1.00800000E+00
  1.00800000E+00  0.00000000E+00  1.60000000E+01  1.00800000E+00  1.00800000E+00
  0.00000000E+00  1.60000000E+01  1.00800000E+00  1.00800000E+00  0.00000000E+00
  1.60000000E+01  1.00800000E+00  1.00800000E+00  0.00000000E+00  1.60000000E+01
  1.00800000E+00  1.00800000E+00  0.00000000E+00  1.60000000E+01  1.00800000E+00
  1.00800000E+00  0.00000000E+00  1.60000000E+01  1.00800000E+00  1.00800000E+00
  0.00000000E+00  1.60000000E+01  1.00800000E+00  1.00800000E+00  0.00000000E+00
  1.60000000E+01  1.00800000E+00  1.00800000E+00  0.00000000E+00  1.60000000E+01
  1.00800000E+00  1.00800000E+00  0.00000000E+00  1.60000000E+01  1.00800000E+00
  1.00800000E+00  0.00000000E+00  1.60000000E+01  1.00800000E+00  1.00800000E+00
  0.00000000E+00  1.60000000E+01  1.00800000E+00  1.00800000E+00  0.00000000E+00
  1.60000000E+01  1.00800000E+00  1.00800000E+00  0.00000000E+00  1.60000000E+01
  1.00800000E+00  1.00800000E+00  0.00000000E+00  1.60000000E+01  1.00800000E+00
  1.00800000E+00  0.00000000E+00  1.60000000E+01  1.00800000E+00  1.00800000E+00
  0.00000000E+00  1.60000000E+01  1.00800000E+00  1.00800000E+00  0.00000000E+00
  1.60000000E+01  1.00800000E+00  1.00800000E+00  0.00000000E+00  1.60000000E+01
  1.00800000E+00  1.00800000E+00  0.00000000E+00  1.60000000E+01  1.00800000E+00
  1.00800000E+00  0.00000000E+00  1.60000000E+01  1.00800000E+00  1.00800000E+00
  0.00000000E+00  1.60000000E+01  1.00800000E+00  1.00800000E+00  0.00000000E+00
  1.60000000E+01  1.00800000E+00  1.00800000E+00  0.00000000E+00  1.60000000E+01
  1.00800000E+00  1.00800000E+00  0.00000000E+00  1.60000000E+01  1.00800000E+00
  1.00800000E+00  0.00000000E+00  1.60000000E+01  1.00800000E+00  1.00800000E+00
  0.00000000E+00  1.60000000E+01  1.00800000E+00  1.00800000E+00  0.00000000E+00
  1.60000000E+01  1.00800000E+00  1.00800000E+00  0.00000000E+00  1.60000000E+01
  1.00800000E+00  1.00800000E+00  0.00000000E+00  1.60000000E+01  1.00800000E+00
  1.00800000E+00  0.00000000E+00  1.60000000E+01  1.00800000E+00  1.00800000E+00
  0.00000000E+00  1.60000000E+01  1.00800000E+00  1.00800000E+00  0.00000000E+00
  1.60000000E+01  1.00800000E+00  1.00800000E+00  0.00000000E+00  1.60000000E+01
  1.00800000E+00  1.00800000E+00  0.00000000E+00  1.60000000E+01  1.00800000E+00
  1.00800000E+00  0.00000000E+00  1.60000000E+01  1.00800000E+00  1.00800000E+00
  0.00000000E+00  1.60000000E+01  1.00800000E+00  1.00800000E+00  0.00000000E+00
  1.60000000E+01  1.00800000E+00  1.00800000E+00  0.00000000E+00  1.60000000E+01
  1.00800000E+00  1.00800000E+00  0.00000000E+00  1.60000000E+01  1.00800000E+00
  1.00800000E+00  0.00000000E+00  1.60000000E+01  1.00800000E+00  1.00800000E+00
  0.00000000E+00  1.60000000E+01  1.00800000E+00  1.00800000E+00  0.00000000E+00
  1.60000000E+01  1.00800000E+00  1.00800000E+00  0.00000000E+00  1.60000000E+01
  1.00800000E+00  1.00800000E+00  0.00000000E+00  1.60000000E+01  1.00800000E+00
  1.00800000E+00  0.00000000E+00  1.60000000E+01  1.00800000E+00  1.00800000E+00
  0.00000000E+00  1.60000000E+01  1.00800000E+00  1.00800000E+00  0.00000000E+00
  1.60000000E+01  1.00800000E+00  1.00800000E+00  0.00000000E+00  1.60000000E+01
  1.00800000E+00  1.00800000E+00  0.00000000E+00  1.60000000E+01  1.00800000E+00
  1.00800000E+00  0.00000000E+00  1.60000000E+01  1.00800000E+00  1.00800000E+00
  0.00000000E+00  1.60000000E+01  1.00800000E+00  1.00800000E+00  0.00000000E+00
  1.60000000E+01  1.00800000E+00  1.00800000E+00  0.00000000E+00  1.60000000E+01
  1.00800000E+00  1.00800000E+00  0.00000000E+00  1.60000000E+01  1.00800000E+00
  1.00800000E+00  0.00000000E+00  1.60000000E+01  1.00800000E+00  1.00800000E+00
  0.00000000E+00  1.60000000E+01  1.00800000E+00  1.00800000E+00  0.00000000E+00
  1.60000000E+01  1.00800000E+00  1.00800000E+00  0.00000000E+00  1.60000000E+01
  1.00800000E+00  1.00800000E+00  0.00000000E+00  1.60000000E+01  1.00800000E+00
  1.00800000E+00  0.00000000E+00  1.60000000E+01  1.00800000E+00  1.00800000E+00
  0.00000000E+00  1.60000000E+01  1.00800000E+00  1.00800000E+00  0.00000000E+00
  1.60000000E+01  1.00800000E+00  1.00800000E+00  0.00000000E+00  1.60000000E+01
  1.00800000E+00  1.00800000E+00  0.00000000E+00  1.60000000E+01  1.00800000E+00
  1.00800000E+00  0.00000000E+00  1.60000000E+01  1.00800000E+00  1.00800000E+00
  0.00000000E+00  1.60000000E+01  1.00800000E+00  1.00800000E+00  0.00000000E+00
  1.60000000E+01  1.00800000E+00  1.00800000E+00  0.00000000E+00  1.60000000E+01
  1.00800000E+00  1.00800000E+00  0.00000000E+00  1.60000000E+01  1.00800000E+00
  1.00800000E+00  0.00000000E+00  1.60000000E+01  1.00800000E+00  1.00800000E+00
  0.00000000E+00  1.60000000E+01  1.00800000E+00  1.00800000E+00  0.00000000E+00
  1.60000000E+01  1.00800000E+00  1.00800000E+00  0.00000000E+00  1.60000000E+01
  1.00800000E+00  1.00800000E+00  0.00000000E+00  1.60000000E+01  1.00800000E+00
  1.00800000E+00  0.00000000E+00  1.60000000E+01  1.00800000E+00  1.00800000E+00
  0.00000000E+00  1.60000000E+01  1.00800000E+00  1.00800000E+00  0.00000000E+00
  1.60000000E+01  1.00800000E+00  1.00800000E+00  0.00000000E+00  1.60000000E+01
  1.00800000E+00  1.00800000E+00  0.00000000E+00  1.60000000E+01  1.00800000E+00
  1.00800000E+00  0.00000000E+00  1.60000000E+01  1.00800000E+00  1.00800000E+00
  0.00000000E+00  1.60000000E+01  1.00800000E+00  1.00800000E+00  0.00000000E+00
  1.60000000E+01  1.00800000E+00  1.00800000E+00  0.00000000E+00  1.60000000E+01
  1.00800000E+00  1.00800000E+00  0.00000000E+00  1.60000000E+01  1.00800000E+00
  1.00800000E+00  0.00000000E+00  1.60000000E+01  1.00800000E+00  1.00800000E+00
  0.00000000E+00  1.60000000E+01  1.00800000E+00  1.00800000E+00  0.00000000E+00
  1.60000000E+01  1.00800000E+00  1.00800000E+00  0.00000000E+00  1.60000000E+01
  1.00800000E+00  1.00800000E+00  0.00000000E+00  1.60000000E+01  1.00800000E+00
  1.00800000E+00  0.00000000E+00  1.60000000E+01  1.00800000E+00  1.00800000E+00
  0.00000000E+00  1.60000000E+01  1.00800000E+00  1.00800000E+00  0.00000000E+00
  1.60000000E+01  1.00800000E+00  1.00800000E+00  0.00000000E+00  1.60000000E+01
  1.00800000E+00  1.00800000E+00  0.00000000E+00  1.60000000E+01  1.00800000E+00
  1.00800000E+00  0.00000000E+00  1.60000000E+01  1.00800000E+00  1.00800000E+00
  0.00000000E+00  1.60000000E+01  1.00800000E+00  1.00800000E+00  0.00000000E+00
  1.60000000E+01  1.00800000E+00  1.00800000E+00  0.00000000E+00  1.60000000E+01
  1.00800000E+00  1.00800000E+00  0.00000000E+00  1.60000000E+01  1.00800000E+00
  1.00800000E+00  0.00000000E+00  1.60000000E+01  1.00800000E+00  1.00800000E+00
  0.00000000E+00  1.60000000E+01  1.00800000E+00  1.00800000E+00  0.00000000E+00
  1.60000000E+01  1.00800000E+00  1.00800000E+00  0.00000000E+00  1.60000000E+01
  1.00800000E+00  1.00800000E+00  0.00000000E+00  1.60000000E+01  1.00800000E+00
  1.00800000E+00  0.00000000E+00  1.60000000E+01  1.00800000E+00  1.00800000E+00
  0.00000000E+00  1.60000000E+01  1.00800000E+00  1.00800000E+00  0.00000000E+00
  1.60000000E+01  1.00800000E+00  1.00800000E+00  0.00000000E+00  1.60000000E+01
  1.00800000E+00  1.00800000E+00  0.00000000E+00  1.60000000E+01  1.00800000E+00
  1.00800000E+00  0.00000000E+00  1.60000000E+01  1.00800000E+00  1.00800000E+00
  0.00000000E+00  1.60000000E+01  1.00800000E+00  1.00800000E+00  0.00000000E+00
  1.60000000E+01  1.00800000E+00  1.00800000E+00  0.00000000E+00  1.60000000E+01
  1.00800000E+00  1.00800000E+00  0.00000000E+00  1.60000000E+01  1.00800000E+00
  1.00800000E+00  0.00000000E+00  1.60000000E+01  1.00800000E+00  1.00800000E+00
  0.00000000E+00  1.60000000E+01  1.00800000E+00  1.00800000E+00  0.00000000E+00
  1.60000000E+01  1.00800000E+00  1.00800000E+00  0.00000000E+00  1.60000000E+01
  1.00800000E+00  1.00800000E+00  0.00000000E+00  1.60000000E+01  1.00800000E+00
  1.00800000E+00  0.00000000E+00  1.60000000E+01  1.00800000E+00  1.00800000E+00
  0.00000000E+00  1.60000000E+01  1.00800000E+00  1.00800000E+00  0.00000000E+00
  1.60000000E+01  1.00800000E+00  1.00800000E+00  0.00000000E+00  1.60000000E+01
  1.00800000E+00  1.00800000E+00  0.00000000E+00  1.60000000E+01  1.00800000E+00
  1.00800000E+00  0.00000000E+00  1.60000000E+01  1.00800000E+00  1.00800000E+00
  0.00000000E+00  1.60000000E+01  1.00800000E+00  1.00800000E+00  0.00000000E+00
  1.60000000E+01  1.00800000E+00  1.00800000E+00  0.00000000E+00  1.60000000E+01
  1.00800000E+00  1.00800000E+00  0.00000000E+00  1.60000000E+01  1.00800000E+00
  1.00800000E+00  0.00000000E+00  1.60000000E+01  1.00800000E+00  1.00800000E+00
  0.00000000E+00  1.60000000E+01  1.00800000E+00  1.00800000E+00  0.00000000E+00
  1.60000000E+01  1.00800000E+00  1.00800000E+00  0.00000000E+00  1.60000000E+01
  1.00800000E+00  1.00800000E+00  0.00000000E+00  1.60000000E+01  1.00800000E+00
  1.00800000E+00  0.00000000E+00  1.60000000E+01  1.00800000E+00  1.00800000E+00
  0.00000000E+00  1.60000000E+01  1.00800000E+00  1.00800000E+00  0.00000000E+00
  1.60000000E+01  1.00800000E+00  1.00800000E+00  0.00000000E+00  1.60000000E+01
  1.00800000E+00  1.00800000E+00  0.00000000E+00  1.60000000E+01  1.00800000E+00
  1.00800000E+00  0.00000000E+00  1.60000000E+01  1.00800000E+00  1.00800000E+00
  0.00000000E+00  1.60000000E+01  1.00800000E+00  1.00800000E+00  0.00000000E+00
  1.60000000E+01  1.00800000E+00  1.00800000E+00  0.00000000E+00  1.60000000E+01
  1.00800000E+00  1.00800000E+00  0.00000000E+00  1.60000000E+01  1.00800000E+00
  1.00800000E+00  0.00000000E+00  1.60000000E+01  1.00800000E+00  1.00800000E+00
  0.00000000E+00  1.60000000E+01  1.00800000E+00  1.00800000E+00  0.00000000E+00
  1.60000000E+01  1.00800000E+00  1.00800000E+00  0.00000000E+00  1.60000000E+01
  1.00800000E+00  1.00800000E+00  0.00000000E+00  1.60000000E+01  1.00800000E+00
  1.00800000E+00  0.00000000E+00  1.60000000E+01  1.00800000E+00  1.00800000E+00
  0.00000000E+00  1.60000000E+01  1.00800000E+00  1.00800000E+00  0.00000000E+00
  1.60000000E+01  1.00800000E+00  1.00800000E+00  0.00000000E+00  1.60000000E+01
  1.00800000E+00  1.00800000E+00  0.00000000E+00  1.60000000E+01  1.00800000E+00
  1.00800000E+00  0.00000000E+00  1.60000000E+01  1.00800000E+00  1.00800000E+00
  0.00000000E+00  1.60000000E+01  1.00800000E+00  1.00800000E+00  0.00000000E+00
  1.60000000E+01  1.00800000E+00  1.00800000E+00  0.00000000E+00  1.60000000E+01
  1.00800000E+00  1.00800000E+00  0.00000000E+00  1.60000000E+01  1.00800000E+00
  1.00800000E+00  0.00000000E+00  1.60000000E+01  1.00800000E+00  1.00800000E+00
  0.00000000E+00  1.60000000E+01  1.00800000E+00  1.00800000E+00  0.00000000E+00
  1.60000000E+01  1.00800000E+00  1.00800000E+00  0.00000000E+00  1.60000000E+01
  1.00800000E+00  1.00800000E+00  0.00000000E+00  1.60000000E+01  1.00800000E+00
  1.00800000E+00  0.00000000E+00  1.60000000E+01  1.00800000E+00  1.00800000E+00
  0.00000000E+00  1.60000000E+01  1.00800000E+00  1.00800000E+00  0.00000000E+00
  1.60000000E+01  1.00800000E+00  1.00800000E+00  0.00000000E+00  1.60000000E+01
  1.00800000E+00  1.00800000E+00  0.00000000E+00  1.60000000E+01  1.00800000E+00
  1.00800000E+00  0.00000000E+00  1.60000000E+01  1.00800000E+00  1.00800000E+00
  0.00000000E+00  1.60000000E+01  1.00800000E+00  1.00800000E+00  0.00000000E+00
  1.60000000E+01  1.00800000E+00  1.00800000E+00  0.00000000E+00  1.60000000E+01
  1.00800000E+00  1.00800000E+00  0.00000000E+00  1.60000000E+01  1.00800000E+00
  1.00800000E+00  0.00000000E+00  1.60000000E+01  1.00800000E+00  1.00800000E+00
  0.00000000E+00  1.60000000E+01  1.00800000E+00  1.00800000E+00  0.00000000E+00
  1.60000000E+01  1.00800000E+00  1.00800000E+00  0.00000000E+00  1.60000000E+01
  1.00800000E+00  1.00800000E+00  0.00000000E+00  1.60000000E+01  1.00800000E+00
  1.00800000E+00  0.00000000E+00  1.60000000E+01  1.00800000E+00  1.00800000E+00
  0.00000000E+00  1.60000000E+01  1.00800000E+00  1.00800000E+00  0.00000000E+00
  1.60000000E+01  1.00800000E+00  1.00800000E+00  0.00000000E+00  1.60000000E+01
  1.00800000E+00  1.00800000E+00  0.00000000E+00  1.60000000E+01  1.00800000E+00
  1.00800000E+00  0.00000000E+00  1.60000000E+01  1.00800000E+00  1.00800000E+00
  0.00000000E+00  1.60000000E+01  1.00800000E+00  1.00800000E+00  0.00000000E+00
  1.60000000E+01  1.00800000E+00  1.00800000E+00  0.00000000E+00  1.60000000E+01
  1.00800000E+00  1.00800000E+00  0.00000000E+00  1.60000000E+01  1.00800000E+00
  1.00800000E+00  0.00000000E+00  1.60000000E+01  1.00800000E+00  1.00800000E+00
  0.00000000E+00  1.60000000E+01  1.00800000E+00  1.00800000E+00  0.00000000E+00
  1.60000000E+01  1.00800000E+00  1.00800000E+00  0.00000000E+00  1.60000000E+01
  1.00800000E+00  1.00800000E+00  0.00000000E+00  1.60000000E+01  1.00800000E+00
  1.00800000E+00  0.00000000E+00  1.60000000E+01  1.00800000E+00  1.00800000E+00
  0.00000000E+00  1.60000000E+01  1.00800000E+00  1.00800000E+00  0.00000000E+00
  1.60000000E+01  1.00800000E+00  1.00800000E+00  0.00000000E+00  1.60000000E+01
  1.00800000E+00  1.00800000E+00  0.00000000E+00  1.60000000E+01  1.00800000E+00
  1.00800000E+00  0.00000000E+00  1.60000000E+01  1.00800000E+00  1.00800000E+00
  0.00000000E+00  1.60000000E+01  1.00800000E+00  1.00800000E+00  0.00000000E+00
  1.60000000E+01  1.00800000E+00  1.00800000E+00  0.00000000E+00  1.60000000E+01
  1.00800000E+00  1.00800000E+00  0.00000000E+00  1.60000000E+01  1.00800000E+00
  1.00800000E+00  0.00000000E+00  1.60000000E+01  1.00800000E+00  1.00800000E+00
  0.00000000E+00  1.60000000E+01  1.00800000E+00  1.00800000E+00  0.00000000E+00
  1.60000000E+01  1.00800000E+00  1.00800000E+00  0.00000000E+00  1.60000000E+01
  1.00800000E+00  1.00800000E+00  0.00000000E+00  1.60000000E+01  1.00800000E+00
  1.00800000E+00  0.00000000E+00  1.60000000E+01  1.00800000E+00  1.00800000E+00
  0.00000000E+00  1.60000000E+01  1.00800000E+00  1.00800000E+00  0.00000000E+00
  1.60000000E+01  1.00800000E+00  1.00800000E+00  0.00000000E+00  1.60000000E+01
  1.00800000E+00  1.00800000E+00  0.00000000E+00  1.60000000E+01  1.00800000E+00
  1.00800000E+00  0.00000000E+00  1.60000000E+01  1.00800000E+00  1.00800000E+00
  0.00000000E+00  1.60000000E+01  1.00800000E+00  1.00800000E+00  0.00000000E+00
  1.60000000E+01  1.00800000E+00  1.00800000E+00  0.00000000E+00  1.60000000E+01
  1.00800000E+00  1.00800000E+00  0.00000000E+00  1.60000000E+01  1.00800000E+00
  1.00800000E+00  0.00000000E+00  1.60000000E+01  1.00800000E+00  1.00800000E+00
  0.00000000E+00  1.60000000E+01  1.00800000E+00  1.00800000E+00  0.00000000E+00
  1.60000000E+01  1.00800000E+00  1.00800000E+00  0.00000000E+00  1.60000000E+01
  1.00800000E+00  1.00800000E+00  0.00000000E+00  1.60000000E+01  1.00800000E+00
  1.00800000E+00  0.00000000E+00  1.60000000E+01  1.00800000E+00  1.00800000E+00
  0.00000000E+00  1.60000000E+01  1.00800000E+00  1.00800000E+00  0.00000000E+00
  1.60000000E+01  1.00800000E+00  1.00800000E+00  0.00000000E+00  1.60000000E+01
  1.00800000E+00  1.00800000E+00  0.00000000E+00  1.60000000E+01  1.00800000E+00
  1.00800000E+00  0.00000000E+00  1.60000000E+01  1.00800000E+00  1.00800000E+00
  0.00000000E+00  1.60000000E+01  1.00800000E+00  1.00800000E+00  0.00000000E+00
  1.60000000E+01  1.00800000E+00  1.00800000E+00  0.00000000E+00  1.60000000E+01
  1.00800000E+00  1.00800000E+00  0.00000000E+00  1.60000000E+01  1.00800000E+00
  1.00800000E+00  0.00000000E+00  1.60000000E+01  1.00800000E+00  1.00800000E+00
  0.00000000E+00  1.60000000E+01  1.00800000E+00  1.00800000E+00  0.00000000E+00
  1.60000000E+01  1.00800000E+00  1.00800000E+00  0.00000000E+00  1.60000000E+01
  1.00800000E+00  1.00800000E+00  0.00000000E+00  1.60000000E+01  1.00800000E+00
  1.00800000E+00  0.00000000E+00  1.60000000E+01  1.00800000E+00  1.00800000E+00
  0.00000000E+00  1.60000000E+01  1.00800000E+00  1.00800000E+00  0.00000000E+00
  1.60000000E+01  1.00800000E+00  1.00800000E+00  0.00000000E+00  1.60000000E+01
  1.00800000E+00  1.00800000E+00  0.00000000E+00  1.60000000E+01  1.00800000E+00
  1.00800000E+00  0.00000000E+00  1.60000000E+01  1.00800000E+00  1.00800000E+00
  0.00000000E+00  1.60000000E+01  1.00800000E+00  1.00800000E+00  0.00000000E+00
  1.60000000E+01  1.00800000E+00  1.00800000E+00  0.00000000E+00  1.60000000E+01
  1.00800000E+00  1.00800000E+00  0.00000000E+00  1.60000000E+01  1.00800000E+00
  1.00800000E+00  0.00000000E+00  1.60000000E+01  1.00800000E+00  1.00800000E+00
  0.00000000E+00  1.60000000E+01  1.00800000E+00  1.00800000E+00  0.00000000E+00
  1.60000000E+01  1.00800000E+00  1.00800000E+00  0.00000000E+00  1.60000000E+01
  1.00800000E+00  1.00800000E+00  0.00000000E+00  1.60000000E+01  1.00800000E+00
  1.00800000E+00  0.00000000E+00  1.60000000E+01  1.00800000E+00  1.00800000E+00
  0.00000000E+00  1.60000000E+01  1.00800000E+00  1.00800000E+00  0.00000000E+00
  1.60000000E+01  1.00800000E+00  1.00800000E+00  0.00000000E+00  1.60000000E+01
  1.00800000E+00  1.00800000E+00  0.00000000E+00  1.60000000E+01  1.00800000E+00
  1.00800000E+00  0.00000000E+00  1.60000000E+01  1.00800000E+00  1.00800000E+00
  0.00000000E+00  1.60000000E+01  1.00800000E+00  1.00800000E+00  0.00000000E+00
  1.60000000E+01  1.00800000E+00  1.00800000E+00  0.00000000E+00  1.60000000E+01
  1.00800000E+00  1.00800000E+00  0.00000000E+00  1.60000000E+01  1.00800000E+00
  1.00800000E+00  0.00000000E+00  1.60000000E+01  1.00800000E+00  1.00800000E+00
  0.00000000E+00  1.60000000E+01  1.00800000E+00  1.00800000E+00  0.00000000E+00
  1.60000000E+01  1.00800000E+00  1.00800000E+00  0.00000000E+00  1.60000000E+01
  1.00800000E+00  1.00800000E+00  0.00000000E+00  1.60000000E+01  1.00800000E+00
  1.00800000E+00  0.00000000E+00  1.60000000E+01  1.00800000E+00  1.00800000E+00
  0.00000000E+00  1.60000000E+01  1.00800000E+00  1.00800000E+00  0.00000000E+00
  1.60000000E+01  1.00800000E+00  1.00800000E+00  0.00000000E+00  1.60000000E+01
  1.00800000E+00  1.00800000E+00  0.00000000E+00  1.60000000E+01  1.00800000E+00
  1.00800000E+00  0.00000000E+00  1.60000000E+01  1.00800000E+00  1.00800000E+00
  0.00000000E+00  1.60000000E+01  1.00800000E+00  1.00800000E+00  0.00000000E+00
  1.60000000E+01  1.00800000E+00  1.00800000E+00  0.00000000E+00  1.60000000E+01
  1.00800000E+00  1.00800000E+00  0.00000000E+00  1.60000000E+01  1.00800000E+00
  1.00800000E+00  0.00000000E+00  1.60000000E+01  1.00800000E+00  1.00800000E+00
  0.00000000E+00  1.60000000E+01  1.00800000E+00  1.00800000E+00  0.00000000E+00
  1.60000000E+01  1.00800000E+00  1.00800000E+00  0.00000000E+00  1.60000000E+01
  1.00800000E+00  1.00800000E+00  0.00000000E+00  1.60000000E+01  1.00800000E+00
  1.00800000E+00  0.00000000E+00  1.60000000E+01  1.00800000E+00  1.00800000E+00
  0.00000000E+00  1.60000000E+01  1.00800000E+00  1.00800000E+00  0.00000000E+00
  1.60000000E+01  1.00800000E+00  1.00800000E+00  0.00000000E+00  1.60000000E+01
  1.00800000E+00  1.00800000E+00  0.00000000E+00  1.60000000E+01  1.00800000E+00
  1.00800000E+00  0.00000000E+00  1.60000000E+01  1.00800000E+00  1.00800000E+00
  0.00000000E+00  1.60000000E+01  1.00800000E+00  1.00800000E+00  0.00000000E+00
  1.60000000E+01  1.00800000E+00  1.00800000E+00  0.00000000E+00  1.60000000E+01
  1.00800000E+00  1.00800000E+00  0.00000000E+00  1.60000000E+01  1.00800000E+00
  1.00800000E+00  0.00000000E+00  1.60000000E+01  1.00800000E+00  1.00800000E+00
  0.00000000E+00  1.60000000E+01  1.00800000E+00  1.00800000E+00  0.00000000E+00
  1.60000000E+01  1.00800000E+00  1.00800000E+00  0.00000000E+00  1.60000000E+01
  1.00800000E+00  1.00800000E+00  0.00000000E+00  1.60000000E+01  1.00800000E+00
  1.00800000E+00  0.00000000E+00  1.60000000E+01  1.00800000E+00  1.00800000E+00
  0.00000000E+00  1.60000000E+01  1.00800000E+00  1.00800000E+00  0.00000000E+00
  1.60000000E+01  1.00800000E+00  1.00800000E+00  0.00000000E+00  1.60000000E+01
  1.00800000E+00  1.00800000E+00  0.00000000E+00  1.60000000E+01  1.00800000E+00
  1.00800000E+00  0.00000000E+00  1.60000000E+01  1.00800000E+00  1.00800000E+00
  0.00000000E+00  1.60000000E+01  1.00800000E+00  1.00800000E+00  0.00000000E+00
  1.60000000E+01  1.00800000E+00  1.00800000E+00  0.00000000E+00  1.60000000E+01
  1.00800000E+00  1.00800000E+00  0.00000000E+00  1.60000000E+01  1.00800000E+00
  1.00800000E+00  0.00000000E+00  1.60000000E+01  1.00800000E+00  1.00800000E+00
  0.00000000E+00  1.60000000E+01  1.00800000E+00  1.00800000E+00  0.00000000E+00
  1.60000000E+01  1.00800000E+00  1.00800000E+00  0.00000000E+00  1.60000000E+01
  1.00800000E+00  1.00800000E+00  0.00000000E+00  1.60000000E+01  1.00800000E+00
  1.00800000E+00  0.00000000E+00  1.60000000E+01  1.00800000E+00  1.00800000E+00
  0.00000000E+00  1.60000000E+01  1.00800000E+00  1.00800000E+00  0.00000000E+00
  1.60000000E+01  1.00800000E+00  1.00800000E+00  0.00000000E+00  1.60000000E+01
  1.00800000E+00  1.00800000E+00  0.00000000E+00  1.60000000E+01  1.00800000E+00
  1.00800000E+00  0.00000000E+00  1.60000000E+01  1.00800000E+00  1.00800000E+00
  0.00000000E+00  1.60000000E+01  1.00800000E+00  1.00800000E+00  0.00000000E+00
  1.60000000E+01  1.00800000E+00  1.00800000E+00  0.00000000E+00  1.60000000E+01
  1.00800000E+00  1.00800000E+00  0.00000000E+00  1.60000000E+01  1.00800000E+00
  1.00800000E+00  0.00000000E+00  1.60000000E+01  1.00800000E+00  1.00800000E+00
  0.00000000E+00  1.60000000E+01  1.00800000E+00  1.00800000E+00  0.00000000E+00
  1.60000000E+01  1.00800000E+00  1.00800000E+00  0.00000000E+00  1.60000000E+01
  1.00800000E+00  1.00800000E+00  0.00000000E+00  1.60000000E+01  1.00800000E+00
  1.00800000E+00  0.00000000E+00  1.60000000E+01  1.00800000E+00  1.00800000E+00
  0.00000000E+00  1.60000000E+01  1.00800000E+00  1.00800000E+00  0.00000000E+00
  1.60000000E+01  1.00800000E+00  1.00800000E+00  0.00000000E+00  1.60000000E+01
  1.00800000E+00  1.00800000E+00  0.00000000E+00  1.60000000E+01  1.00800000E+00
  1.00800000E+00  0.00000000E+00  1.60000000E+01  1.00800000E+00  1.00800000E+00
  0.00000000E+00  1.60000000E+01  1.00800000E+00  1.00800000E+00  0.00000000E+00
  1.60000000E+01  1.00800000E+00  1.00800000E+00  0.00000000E+00  1.60000000E+01
  1.00800000E+00  1.00800000E+00  0.00000000E+00  1.60000000E+01  1.00800000E+00
  1.00800000E+00  0.00000000E+00  1.60000000E+01  1.00800000E+00  1.00800000E+00
  0.00000000E+00  1.60000000E+01  1.00800000E+00  1.00800000E+00  0.00000000E+00
  1.60000000E+01  1.00800000E+00  1.00800000E+00  0.00000000E+00  1.60000000E+01
  1.00800000E+00  1.00800000E+00  0.00000000E+00  1.60000000E+01  1.00800000E+00
  1.00800000E+00  0.00000000E+00  1.60000000E+01  1.00800000E+00  1.00800000E+00
  0.00000000E+00  1.60000000E+01  1.00800000E+00  1.00800000E+00  0.00000000E+00
  1.60000000E+01  1.00800000E+00  1.00800000E+00  0.00000000E+00  1.60000000E+01
  1.00800000E+00  1.00800000E+00  0.00000000E+00  1.60000000E+01  1.00800000E+00
  1.00800000E+00  0.00000000E+00  1.60000000E+01  1.00800000E+00  1.00800000E+00
  0.00000000E+00  1.60000000E+01  1.00800000E+00  1.00800000E+00  0.00000000E+00
  1.60000000E+01  1.00800000E+00  1.00800000E+00  0.00000000E+00  1.60000000E+01
  1.00800000E+00  1.00800000E+00  0.00000000E+00  1.60000000E+01  1.00800000E+00
  1.00800000E+00  0.00000000E+00  1.60000000E+01  1.00800000E+00  1.00800000E+00
  0.00000000E+00  1.60000000E+01  1.00800000E+00  1.00800000E+00  0.00000000E+00
  1.60000000E+01  1.00800000E+00  1.00800000E+00  0.00000000E+00  1.60000000E+01
  1.00800000E+00  1.00800000E+00  0.00000000E+00  1.60000000E+01  1.00800000E+00
  1.00800000E+00  0.00000000E+00  1.60000000E+01  1.00800000E+00  1.00800000E+00
  0.00000000E+00  1.60000000E+01  1.00800000E+00  1.00800000E+00  0.00000000E+00
  1.60000000E+01  1.00800000E+00  1.00800000E+00  0.00000000E+00  1.60000000E+01
  1.00800000E+00  1.00800000E+00  0.00000000E+00  1.60000000E+01  1.00800000E+00
  1.00800000E+00  0.00000000E+00  1.60000000E+01  1.00800000E+00  1.00800000E+00
  0.00000000E+00  1.60000000E+01  1.00800000E+00  1.00800000E+00  0.00000000E+00
  1.60000000E+01  1.00800000E+00  1.00800000E+00  0.00000000E+00  1.60000000E+01
  1.00800000E+00  1.00800000E+00  0.00000000E+00  1.60000000E+01  1.00800000E+00
  1.00800000E+00  0.00000000E+00  1.60000000E+01  1.00800000E+00  1.00800000E+00
  0.00000000E+00  1.60000000E+01  1.00800000E+00  1.00800000E+00  0.00000000E+00
  1.60000000E+01  1.00800000E+00  1.00800000E+00  0.00000000E+00  1.60000000E+01
  1.00800000E+00  1.00800000E+00  0.00000000E+00  1.60000000E+01  1.00800000E+00
  1.00800000E+00  0.00000000E+00  1.60000000E+01  1.00800000E+00  1.00800000E+00
  0.00000000E+00  1.60000000E+01  1.00800000E+00  1.00800000E+00  0.00000000E+00
  1.60000000E+01  1.00800000E+00  1.00800000E+00  0.00000000E+00  1.60000000E+01
  1.00800000E+00  1.00800000E+00  0.00000000E+00  1.60000000E+01  1.00800000E+00
  1.00800000E+00  0.00000000E+00  1.60000000E+01  1.00800000E+00  1.00800000E+00
  0.00000000E+00  1.60000000E+01  1.00800000E+00  1.00800000E+00  0.00000000E+00
  1.60000000E+01  1.00800000E+00  1.00800000E+00  0.00000000E+00  1.60000000E+01
  1.00800000E+00  1.00800000E+00  0.00000000E+00  1.60000000E+01  1.00800000E+00
  1.00800000E+00  0.00000000E+00  1.60000000E+01  1.00800000E+00  1.00800000E+00
  0.00000000E+00  1.60000000E+01  1.00800000E+00  1.00800000E+00  0.00000000E+00
  1.60000000E+01  1.00800000E+00  1.00800000E+00  0.00000000E+00  1.60000000E+01
  1.00800000E+00  1.00800000E+00  0.00000000E+00  1.60000000E+01  1.00800000E+00
  1.00800000E+00  0.00000000E+00  1.60000000E+01  1.00800000E+00  1.00800000E+00
  0.00000000E+00  1.60000000E+01  1.00800000E+00  1.00800000E+00  0.00000000E+00
  1.60000000E+01  1.00800000E+00  1.00800000E+00  0.00000000E+00  1.60000000E+01
  1.00800000E+00  1.00800000E+00  0.00000000E+00  1.60000000E+01  1.00800000E+00
  1.00800000E+00  0.00000000E+00  1.60000000E+01  1.00800000E+00  1.00800000E+00
  0.00000000E+00  1.60000000E+01  1.00800000E+00  1.00800000E+00  0.00000000E+00
  1.60000000E+01  1.00800000E+00  1.00800000E+00  0.00000000E+00  1.60000000E+01
  1.00800000E+00  1.00800000E+00  0.00000000E+00  1.60000000E+01  1.00800000E+00
  1.00800000E+00  0.00000000E+00  1.60000000E+01  1.00800000E+00  1.00800000E+00
  0.00000000E+00  1.60000000E+01  1.00800000E+00  1.00800000E+00  0.00000000E+00
  1.60000000E+01  1.00800000E+00  1.00800000E+00  0.00000000E+00  1.60000000E+01
  1.00800000E+00  1.00800000E+00  0.00000000E+00  1.60000000E+01  1.00800000E+00
  1.00800000E+00  0.00000000E+00  1.60000000E+01  1.00800000E+00  1.00800000E+00
  0.00000000E+00  1.60000000E+01  1.00800000E+00  1.00800000E+00  0.00000000E+00
  1.60000000E+01  1.00800000E+00  1.00800000E+00  0.00000000E+00  1.60000000E+01
  1.00800000E+00  1.00800000E+00  0.00000000E+00  1.60000000E+01  1.00800000E+00
  1.00800000E+00  0.00000000E+00  1.60000000E+01  1.00800000E+00  1.00800000E+00
  0.00000000E+00  1.60000000E+01  1.00800000E+00  1.00800000E+00  0.00000000E+00
  1.60000000E+01  1.00800000E+00  1.00800000E+00  0.00000000E+00  1.60000000E+01
  1.00800000E+00  1.00800000E+00  0.00000000E+00  1.60000000E+01  1.00800000E+00
  1.00800000E+00  0.00000000E+00  1.60000000E+01  1.00800000E+00  1.00800000E+00
  0.00000000E+00  1.60000000E+01  1.00800000E+00  1.00800000E+00  0.00000000E+00
  1.60000000E+01  1.00800000E+00  1.00800000E+00  0.00000000E+00  1.60000000E+01
  1.00800000E+00  1.00800000E+00  0.00000000E+00  1.60000000E+01  1.00800000E+00
  1.00800000E+00  0.00000000E+00  1.60000000E+01  1.00800000E+00  1.00800000E+00
  0.00000000E+00  1.60000000E+01  1.00800000E+00  1.00800000E+00  0.00000000E+00
  1.60000000E+01  1.00800000E+00  1.00800000E+00  0.00000000E+00  1.60000000E+01
  1.00800000E+00  1.00800000E+00  0.00000000E+00  1.60000000E+01  1.00800000E+00
  1.00800000E+00  0.00000000E+00  1.60000000E+01  1.00800000E+00  1.00800000E+00
  0.00000000E+00  1.60000000E+01  1.00800000E+00  1.00800000E+00  0.00000000E+00
  1.60000000E+01  1.00800000E+00  1.00800000E+00  0.00000000E+00  1.60000000E+01
  1.00800000E+00  1.00800000E+00  0.00000000E+00  1.60000000E+01  1.00800000E+00
  1.00800000E+00  0.00000000E+00  1.60000000E+01  1.00800000E+00  1.00800000E+00
  0.00000000E+00  1.60000000E+01  1.00800000E+00  1.00800000E+00  0.00000000E+00
  1.60000000E+01  1.00800000E+00  1.00800000E+00  0.00000000E+00  1.60000000E+01
  1.00800000E+00  1.00800000E+00  0.00000000E+00  1.60000000E+01  1.00800000E+00
  1.00800000E+00  0.00000000E+00  1.60000000E+01  1.00800000E+00  1.00800000E+00
  0.00000000E+00  1.60000000E+01  1.00800000E+00  1.00800000E+00  0.00000000E+00
  1.60000000E+01  1.00800000E+00  1.00800000E+00  0.00000000E+00  1.60000000E+01
  1.00800000E+00  1.00800000E+00  0.00000000E+00  1.60000000E+01  1.00800000E+00
  1.00800000E+00  0.00000000E+00  1.60000000E+01  1.00800000E+00  1.00800000E+00
  0.00000000E+00  1.60000000E+01  1.00800000E+00  1.00800000E+00  0.00000000E+00
  1.60000000E+01  1.00800000E+00  1.00800000E+00  0.00000000E+00  1.60000000E+01
  1.00800000E+00  1.00800000E+00  0.00000000E+00  1.60000000E+01  1.00800000E+00
  1.00800000E+00  0.00000000E+00  1.60000000E+01  1.00800000E+00  1.00800000E+00
  0.00000000E+00  1.60000000E+01  1.00800000E+00  1.00800000E+00  0.00000000E+00
  1.60000000E+01  1.00800000E+00  1.00800000E+00  0.00000000E+00  1.60000000E+01
  1.00800000E+00  1.00800000E+00  0.00000000E+00  1.60000000E+01  1.00800000E+00
  1.00800000E+00  0.00000000E+00  1.60000000E+01  1.00800000E+00  1.00800000E+00
  0.00000000E+00  1.60000000E+01  1.00800000E+00  1.00800000E+00  0.00000000E+00
  1.60000000E+01  1.00800000E+00  1.00800000E+00  0.00000000E+00  1.60000000E+01
  1.00800000E+00  1.00800000E+00  0.00000000E+00  1.60000000E+01  1.00800000E+00
  1.00800000E+00  0.00000000E+00  1.60000000E+01  1.00800000E+00  1.00800000E+00
  0.00000000E+00  1.60000000E+01  1.00800000E+00  1.00800000E+00  0.00000000E+00
  1.60000000E+01  1.00800000E+00  1.00800000E+00  0.00000000E+00  1.60000000E+01
  1.00800000E+00  1.00800000E+00  0.00000000E+00  1.60000000E+01  1.00800000E+00
  1.00800000E+00  0.00000000E+00  1.60000000E+01  1.00800000E+00  1.00800000E+00
  0.00000000E+00  1.60000000E+01  1.00800000E+00  1.00800000E+00  0.00000000E+00
  1.60000000E+01  1.00800000E+00  1.00800000E+00  0.00000000E+00  1.60000000E+01
  1.00800000E+00  1.00800000E+00  0.00000000E+00  1.60000000E+01  1.00800000E+00
  1.00800000E+00  0.00000000E+00  1.60000000E+01  1.00800000E+00  1.00800000E+00
  0.00000000E+00  1.60000000E+01  1.00800000E+00  1.00800000E+00  0.00000000E+00
  1.60000000E+01  1.00800000E+00  1.00800000E+00  0.00000000E+00  1.60000000E+01
  1.00800000E+00  1.00800000E+00  0.00000000E+00  1.60000000E+01  1.00800000E+00
  1.00800000E+00  0.00000000E+00  1.60000000E+01  1.00800000E+00  1.00800000E+00
  0.00000000E+00  1.60000000E+01  1.00800000E+00  1.00800000E+00  0.00000000E+00
  1.60000000E+01  1.00800000E+00  1.00800000E+00  0.00000000E+00  1.60000000E+01
  1.00800000E+00  1.00800000E+00  0.00000000E+00  1.60000000E+01  1.00800000E+00
  1.00800000E+00  0.00000000E+00  1.60000000E+01  1.00800000E+00  1.00800000E+00
  0.00000000E+00  1.60000000E+01  1.00800000E+00  1.00800000E+00  0.00000000E+00
  1.60000000E+01  1.00800000E+00  1.00800000E+00  0.00000000E+00  1.60000000E+01
  1.00800000E+00  1.00800000E+00  0.00000000E+00  1.60000000E+01  1.00800000E+00
  1.00800000E+00  0.00000000E+00  1.60000000E+01  1.00800000E+00  1.00800000E+00
  0.00000000E+00  1.60000000E+01  1.00800000E+00  1.00800000E+00  0.00000000E+00
  1.60000000E+01  1.00800000E+00  1.00800000E+00  0.00000000E+00  1.60000000E+01
  1.00800000E+00  1.00800000E+00  0.00000000E+00  1.60000000E+01  1.00800000E+00
  1.00800000E+00  0.00000000E+00  1.60000000E+01  1.00800000E+00  1.00800000E+00
  0.00000000E+00  1.60000000E+01  1.00800000E+00  1.00800000E+00  0.00000000E+00
  1.60000000E+01  1.00800000E+00  1.00800000E+00  0.00000000E+00  1.60000000E+01
  1.00800000E+00  1.00800000E+00  0.00000000E+00  1.60000000E+01  1.00800000E+00
  1.00800000E+00  0.00000000E+00  1.60000000E+01  1.00800000E+00  1.00800000E+00
  0.00000000E+00  1.60000000E+01  1.00800000E+00  1.00800000E+00  0.00000000E+00
  1.60000000E+01  1.00800000E+00  1.00800000E+00  0.00000000E+00  1.60000000E+01
  1.00800000E+00  1.00800000E+00  0.00000000E+00  1.60000000E+01  1.00800000E+00
  1.00800000E+00  0.00000000E+00  1.60000000E+01  1.00800000E+00  1.00800000E+00
  0.00000000E+00  1.60000000E+01  1.00800000E+00  1.00800000E+00  0.00000000E+00
  1.60000000E+01  1.00800000E+00  1.00800000E+00  0.00000000E+00  1.60000000E+01
  1.00800000E+00  1.00800000E+00  0.00000000E+00  1.60000000E+01  1.00800000E+00
  1.00800000E+00  0.00000000E+00  1.60000000E+01  1.00800000E+00  1.00800000E+00
  0.00000000E+00  1.60000000E+01  1.00800000E+00  1.00800000E+00  0.00000000E+00
  1.60000000E+01  1.00800000E+00  1.00800000E+00  0.00000000E+00  1.60000000E+01
  1.00800000E+00  1.00800000E+00  0.00000000E+00  1.60000000E+01  1.00800000E+00
  1.00800000E+00  0.00000000E+00  1.60000000E+01  1.00800000E+00  1.00800000E+00
  0.00000000E+00  1.60000000E+01  1.00800000E+00  1.00800000E+00  0.00000000E+00
  1.60000000E+01  1.00800000E+00  1.00800000E+00  0.00000000E+00  1.60000000E+01
  1.00800000E+00  1.00800000E+00  0.00000000E+00  1.60000000E+01  1.00800000E+00
  1.00800000E+00  0.00000000E+00  1.60000000E+01  1.00800000E+00  1.00800000E+00
  0.00000000E+00  1.60000000E+01  1.00800000E+00  1.00800000E+00  0.00000000E+00
  1.60000000E+01  1.00800000E+00  1.00800000E+00  0.00000000E+00  1.60000000E+01
  1.00800000E+00  1.00800000E+00  0.00000000E+00  1.60000000E+01  1.00800000E+00
  1.00800000E+00  0.00000000E+00  1.60000000E+01  1.00800000E+00  1.00800000E+00
  0.00000000E+00  1.60000000E+01  1.00800000E+00  1.00800000E+00  0.00000000E+00
  1.60000000E+01  1.00800000E+00  1.00800000E+00  0.00000000E+00  1.60000000E+01
  1.00800000E+00  1.00800000E+00  0.00000000E+00  1.60000000E+01  1.00800000E+00
  1.00800000E+00  0.00000000E+00  1.60000000E+01  1.00800000E+00  1.00800000E+00
  0.00000000E+00  1.60000000E+01  1.00800000E+00  1.00800000E+00  0.00000000E+00
  1.60000000E+01  1.00800000E+00  1.00800000E+00  0.00000000E+00  1.60000000E+01
  1.00800000E+00  1.00800000E+00  0.00000000E+00  1.60000000E+01  1.00800000E+00
  1.00800000E+00  0.00000000E+00  1.60000000E+01  1.00800000E+00  1.00800000E+00
  0.00000000E+00  1.60000000E+01  1.00800000E+00  1.00800000E+00  0.00000000E+00
  1.60000000E+01  1.00800000E+00  1.00800000E+00  0.00000000E+00  1.60000000E+01
  1.00800000E+00  1.00800000E+00  0.00000000E+00  1.60000000E+01  1.00800000E+00
  1.00800000E+00  0.00000000E+00  1.60000000E+01  1.00800000E+00  1.00800000E+00
  0.00000000E+00  1.60000000E+01  1.00800000E+00  1.00800000E+00  0.00000000E+00
  1.60000000E+01  1.00800000E+00  1.00800000E+00  0.00000000E+00  1.60000000E+01
  1.00800000E+00  1.00800000E+00  0.00000000E+00  1.60000000E+01  1.00800000E+00
  1.00800000E+00  0.00000000E+00  1.60000000E+01  1.00800000E+00  1.00800000E+00
  0.00000000E+00  1.60000000E+01  1.00800000E+00  1.00800000E+00  0.00000000E+00
  1.60000000E+01  1.00800000E+00  1.00800000E+00  0.00000000E+00  1.60000000E+01
  1.00800000E+00  1.00800000E+00  0.00000000E+00  1.60000000E+01  1.00800000E+00
  1.00800000E+00  0.00000000E+00  1.60000000E+01  1.00800000E+00  1.00800000E+00
  0.00000000E+00  1.60000000E+01  1.00800000E+00  1.00800000E+00  0.00000000E+00
  1.60000000E+01  1.00800000E+00  1.00800000E+00  0.00000000E+00  1.60000000E+01
  1.00800000E+00  1.00800000E+00  0.00000000E+00  1.60000000E+01  1.00800000E+00
  1.00800000E+00  0.00000000E+00  1.60000000E+01  1.00800000E+00  1.00800000E+00
  0.00000000E+00  1.60000000E+01  1.00800000E+00  1.00800000E+00  0.00000000E+00
  1.60000000E+01  1.00800000E+00  1.00800000E+00  0.00000000E+00  1.60000000E+01
  1.00800000E+00  1.00800000E+00  0.00000000E+00  1.60000000E+01  1.00800000E+00
  1.00800000E+00  0.00000000E+00  1.60000000E+01  1.00800000E+00  1.00800000E+00
  0.00000000E+00  1.60000000E+01  1.00800000E+00  1.00800000E+00  0.00000000E+00
  1.60000000E+01  1.00800000E+00  1.00800000E+00  0.00000000E+00  1.60000000E+01
  1.00800000E+00  1.00800000E+00  0.00000000E+00  1.60000000E+01  1.00800000E+00
  1.00800000E+00  0.00000000E+00  1.60000000E+01  1.00800000E+00  1.00800000E+00
  0.00000000E+00  1.60000000E+01  1.00800000E+00  1.00800000E+00  0.00000000E+00
  1.60000000E+01  1.00800000E+00  1.00800000E+00  0.00000000E+00  1.60000000E+01
  1.00800000E+00  1.00800000E+00  0.00000000E+00  1.60000000E+01  1.00800000E+00
  1.00800000E+00  0.00000000E+00  1.60000000E+01  1.00800000E+00  1.00800000E+00
  0.00000000E+00  1.60000000E+01  1.00800000E+00  1.00800000E+00  0.00000000E+00
  1.60000000E+01  1.00800000E+00  1.00800000E+00  0.00000000E+00  1.60000000E+01
  1.00800000E+00  1.00800000E+00  0.00000000E+00  1.60000000E+01  1.00800000E+00
  1.00800000E+00  0.00000000E+00  1.60000000E+01  1.00800000E+00  1.00800000E+00
  0.00000000E+00  1.60000000E+01  1.00800000E+00  1.00800000E+00  0.00000000E+00
  1.60000000E+01  1.00800000E+00  1.00800000E+00  0.00000000E+00  1.60000000E+01
  1.00800000E+00  1.00800000E+00  0.00000000E+00  1.60000000E+01  1.00800000E+00
  1.00800000E+00  0.00000000E+00  1.60000000E+01  1.00800000E+00  1.00800000E+00
  0.00000000E+00  1.60000000E+01  1.00800000E+00  1.00800000E+00  0.00000000E+00
  1.60000000E+01  1.00800000E+00  1.00800000E+00  0.00000000E+00  1.60000000E+01
  1.00800000E+00  1.00800000E+00  0.00000000E+00  1.60000000E+01  1.00800000E+00
  1.00800000E+00  0.00000000E+00  1.60000000E+01  1.00800000E+00  1.00800000E+00
  0.00000000E+00  1.60000000E+01  1.00800000E+00  1.00800000E+00  0.00000000E+00
  1.60000000E+01  1.00800000E+00  1.00800000E+00  0.00000000E+00  1.60000000E+01
  1.00800000E+00  1.00800000E+00  0.00000000E+00  1.60000000E+01  1.00800000E+00
  1.00800000E+00  0.00000000E+00  1.60000000E+01  1.00800000E+00  1.00800000E+00
  0.00000000E+00  1.60000000E+01  1.00800000E+00  1.00800000E+00  0.00000000E+00
  1.60000000E+01  1.00800000E+00  1.00800000E+00  0.00000000E+00  1.60000000E+01
  1.00800000E+00  1.00800000E+00  0.00000000E+00  1.60000000E+01  1.00800000E+00
  1.00800000E+00  0.00000000E+00  1.60000000E+01  1.00800000E+00  1.00800000E+00
  0.00000000E+00  1.60000000E+01  1.00800000E+00  1.00800000E+00  0.00000000E+00
  1.60000000E+01  1.00800000E+00  1.00800000E+00  0.00000000E+00  1.60000000E+01
  1.00800000E+00  1.00800000E+00  0.00000000E+00  1.60000000E+01  1.00800000E+00
  1.00800000E+00  0.00000000E+00  1.60000000E+01  1.00800000E+00  1.00800000E+00
  0.00000000E+00  1.60000000E+01  1.00800000E+00  1.00800000E+00  0.00000000E+00
  1.60000000E+01  1.00800000E+00  1.00800000E+00  0.00000000E+00  1.60000000E+01
  1.00800000E+00  1.00800000E+00  0.00000000E+00  1.60000000E+01  1.00800000E+00
  1.00800000E+00  0.00000000E+00  1.60000000E+01  1.00800000E+00  1.00800000E+00
  0.00000000E+00  1.60000000E+01  1.00800000E+00  1.00800000E+00  0.00000000E+00
  1.60000000E+01  1.00800000E+00  1.00800000E+00  0.00000000E+00  1.60000000E+01
  1.00800000E+00  1.00800000E+00  0.00000000E+00  1.60000000E+01  1.00800000E+00
  1.00800000E+00  0.00000000E+00  1.60000000E+01  1.00800000E+00  1.00800000E+00
  0.00000000E+00  1.60000000E+01  1.00800000E+00  1.00800000E+00  0.00000000E+00
  1.60000000E+01  1.00800000E+00  1.00800000E+00  0.00000000E+00  1.60000000E+01
  1.00800000E+00  1.00800000E+00  0.00000000E+00  1.60000000E+01  1.00800000E+00
  1.00800000E+00  0.00000000E+00  1.60000000E+01  1.00800000E+00  1.00800000E+00
  0.00000000E+00  1.60000000E+01  1.00800000E+00  1.00800000E+00  0.00000000E+00
  1.60000000E+01  1.00800000E+00  1.00800000E+00  0.00000000E+00  1.60000000E+01
  1.00800000E+00  1.00800000E+00  0.00000000E+00  1.60000000E+01  1.00800000E+00
  1.00800000E+00  0.00000000E+00  1.60000000E+01  1.00800000E+00  1.00800000E+00
  0.00000000E+00  1.60000000E+01  1.00800000E+00  1.00800000E+00  0.00000000E+00
  1.60000000E+01  1.00800000E+00  1.00800000E+00  0.00000000E+00  1.60000000E+01
  1.00800000E+00  1.00800000E+00  0.00000000E+00  1.60000000E+01  1.00800000E+00
  1.00800000E+00  0.00000000E+00  1.60000000E+01  1.00800000E+00  1.00800000E+00
  0.00000000E+00  1.60000000E+01  1.00800000E+00  1.00800000E+00  0.00000000E+00
  1.60000000E+01  1.00800000E+00  1.00800000E+00  0.00000000E+00  1.60000000E+01
  1.00800000E+00  1.00800000E+00  0.00000000E+00  1.60000000E+01  1.00800000E+00
  1.00800000E+00  0.00000000E+00  1.60000000E+01  1.00800000E+00  1.00800000E+00
  0.00000000E+00  1.60000000E+01  1.00800000E+00  1.00800000E+00  0.00000000E+00
  1.60000000E+01  1.00800000E+00  1.00800000E+00  0.00000000E+00  1.60000000E+01
  1.00800000E+00  1.00800000E+00  0.00000000E+00  1.60000000E+01  1.00800000E+00
  1.00800000E+00  0.00000000E+00  1.60000000E+01  1.00800000E+00  1.00800000E+00
  0.00000000E+00  1.60000000E+01  1.00800000E+00  1.00800000E+00  0.00000000E+00
  1.60000000E+01  1.00800000E+00  1.00800000E+00  0.00000000E+00  1.60000000E+01
  1.00800000E+00  1.00800000E+00  0.00000000E+00  1.60000000E+01  1.00800000E+00
  1.00800000E+00  0.00000000E+00  1.60000000E+01  1.00800000E+00  1.00800000E+00
  0.00000000E+00  1.60000000E+01  1.00800000E+00  1.00800000E+00  0.00000000E+00
  1.60000000E+01  1.00800000E+00  1.00800000E+00  0.00000000E+00  1.60000000E+01
  1.00800000E+00  1.00800000E+00  0.00000000E+00  1.60000000E+01  1.00800000E+00
  1.00800000E+00  0.00000000E+00  1.60000000E+01  1.00800000E+00  1.00800000E+00
  0.00000000E+00  1.60000000E+01  1.00800000E+00  1.00800000E+00  0.00000000E+00
  1.60000000E+01  1.00800000E+00  1.00800000E+00  0.00000000E+00  1.60000000E+01
  1.00800000E+00  1.00800000E+00  0.00000000E+00  1.60000000E+01  1.00800000E+00
  1.00800000E+00  0.00000000E+00  1.60000000E+01  1.00800000E+00  1.00800000E+00
  0.00000000E+00  1.60000000E+01  1.00800000E+00  1.00800000E+00  0.00000000E+00
  1.60000000E+01  1.00800000E+00  1.00800000E+00  0.00000000E+00  1.60000000E+01
  1.00800000E+00  1.00800000E+00  0.00000000E+00  1.60000000E+01  1.00800000E+00
  1.00800000E+00  0.00000000E+00  1.60000000E+01  1.00800000E+00  1.00800000E+00
  0.00000000E+00  1.60000000E+01  1.00800000E+00  1.00800000E+00  0.00000000E+00
  1.60000000E+01  1.00800000E+00  1.00800000E+00  0.00000000E+00  1.60000000E+01
  1.00800000E+00  1.00800000E+00  0.00000000E+00  1.60000000E+01  1.00800000E+00
  1.00800000E+00  0.00000000E+00  1.60000000E+01  1.00800000E+00  1.00800000E+00
  0.00000000E+00  1.60000000E+01  1.00800000E+00  1.00800000E+00  0.00000000E+00
  1.60000000E+01  1.00800000E+00  1.00800000E+00  0.00000000E+00  1.60000000E+01
  1.00800000E+00  1.00800000E+00  0.00000000E+00  1.60000000E+01  1.00800000E+00
  1.00800000E+00  0.00000000E+00  1.60000000E+01  1.00800000E+00  1.00800000E+00
  0.00000000E+00  1.60000000E+01  1.00800000E+00  1.00800000E+00  0.00000000E+00
  1.60000000E+01  1.00800000E+00  1.00800000E+00  0.00000000E+00  1.60000000E+01
  1.00800000E+00  1.00800000E+00  0.00000000E+00  1.60000000E+01  1.00800000E+00
  1.00800000E+00  0.00000000E+00  1.60000000E+01  1.00800000E+00  1.00800000E+00
  0.00000000E+00  1.60000000E+01  1.00800000E+00  1.00800000E+00  0.00000000E+00
  1.60000000E+01  1.00800000E+00  1.00800000E+00  0.00000000E+00  1.60000000E+01
  1.00800000E+00  1.00800000E+00  0.00000000E+00  1.60000000E+01  1.00800000E+00
  1.00800000E+00  0.00000000E+00  1.60000000E+01  1.00800000E+00  1.00800000E+00
  0.00000000E+00  1.60000000E+01  1.00800000E+00  1.00800000E+00  0.00000000E+00
  1.60000000E+01  1.00800000E+00  1.00800000E+00  0.00000000E+00  1.60000000E+01
  1.00800000E+00  1.00800000E+00  0.00000000E+00  1.60000000E+01  1.00800000E+00
  1.00800000E+00  0.00000000E+00  1.60000000E+01  1.00800000E+00  1.00800000E+00
  0.00000000E+00  1.60000000E+01  1.00800000E+00  1.00800000E+00  0.00000000E+00
  1.60000000E+01  1.00800000E+00  1.00800000E+00  0.00000000E+00  1.60000000E+01
  1.00800000E+00  1.00800000E+00  0.00000000E+00  1.60000000E+01  1.00800000E+00
  1.00800000E+00  0.00000000E+00  1.60000000E+01  1.00800000E+00  1.00800000E+00
  0.00000000E+00  1.60000000E+01  1.00800000E+00  1.00800000E+00  0.00000000E+00
  1.60000000E+01  1.00800000E+00  1.00800000E+00  0.00000000E+00  1.60000000E+01
  1.00800000E+00  1.00800000E+00  0.00000000E+00  1.60000000E+01  1.00800000E+00
  1.00800000E+00  0.00000000E+00  1.60000000E+01  1.00800000E+00  1.00800000E+00
  0.00000000E+00  1.60000000E+01  1.00800000E+00  1.00800000E+00  0.00000000E+00
  1.60000000E+01  1.00800000E+00  1.00800000E+00  0.00000000E+00  1.60000000E+01
  1.00800000E+00  1.00800000E+00  0.00000000E+00  1.60000000E+01  1.00800000E+00
  1.00800000E+00  0.00000000E+00  1.60000000E+01  1.00800000E+00  1.00800000E+00
  0.00000000E+00  1.60000000E+01  1.00800000E+00  1.00800000E+00  0.00000000E+00
  1.60000000E+01  1.00800000E+00  1.00800000E+00  0.00000000E+00  1.60000000E+01
  1.00800000E+00  1.00800000E+00  0.00000000E+00  1.60000000E+01  1.00800000E+00
  1.00800000E+00  0.00000000E+00  1.60000000E+01  1.00800000E+00  1.00800000E+00
  0.00000000E+00  1.60000000E+01  1.00800000E+00  1.00800000E+00  0.00000000E+00
  1.60000000E+01  1.00800000E+00  1.00800000E+00  0.00000000E+00  1.60000000E+01
  1.00800000E+00  1.00800000E+00  0.00000000E+00  1.60000000E+01  1.00800000E+00
  1.00800000E+00  0.00000000E+00  1.60000000E+01  1.00800000E+00  1.00800000E+00
  0.00000000E+00  1.60000000E+01  1.00800000E+00  1.00800000E+00  0.00000000E+00
  1.60000000E+01  1.00800000E+00  1.00800000E+00  0.00000000E+00  1.60000000E+01
  1.00800000E+00  1.00800000E+00  0.00000000E+00  1.60000000E+01  1.00800000E+00
  1.00800000E+00  0.00000000E+00  1.60000000E+01  1.00800000E+00  1.00800000E+00
  0.00000000E+00  1.60000000E+01  1.00800000E+00  1.00800000E+00  0.00000000E+00
  1.60000000E+01  1.00800000E+00  1.00800000E+00  0.00000000E+00  1.60000000E+01
  1.00800000E+00  1.00800000E+00  0.00000000E+00  1.60000000E+01  1.00800000E+00
  1.00800000E+00  0.00000000E+00  1.60000000E+01  1.00800000E+00  1.00800000E+00
  0.00000000E+00  1.60000000E+01  1.00800000E+00  1.00800000E+00  0.00000000E+00
  1.60000000E+01  1.00800000E+00  1.00800000E+00  0.00000000E+00  1.60000000E+01
  1.00800000E+00  1.00800000E+00  0.00000000E+00  1.60000000E+01  1.00800000E+00
  1.00800000E+00  0.00000000E+00  1.60000000E+01  1.00800000E+00  1.00800000E+00
  0.00000000E+00  1.60000000E+01  1.00800000E+00  1.00800000E+00  0.00000000E+00
  1.60000000E+01  1.00800000E+00  1.00800000E+00  0.00000000E+00  1.60000000E+01
  1.00800000E+00  1.00800000E+00  0.00000000E+00  1.60000000E+01  1.00800000E+00
  1.00800000E+00  0.00000000E+00  1.60000000E+01  1.00800000E+00  1.00800000E+00
  0.00000000E+00  1.60000000E+01  1.00800000E+00  1.00800000E+00  0.00000000E+00
  1.60000000E+01  1.00800000E+00  1.00800000E+00  0.00000000E+00  1.60000000E+01
  1.00800000E+00  1.00800000E+00  0.00000000E+00  1.60000000E+01  1.00800000E+00
  1.00800000E+00  0.00000000E+00  1.60000000E+01  1.00800000E+00  1.00800000E+00
  0.00000000E+00  1.60000000E+01  1.00800000E+00  1.00800000E+00  0.00000000E+00
  1.60000000E+01  1.00800000E+00  1.00800000E+00  0.00000000E+00  1.60000000E+01
  1.00800000E+00  1.00800000E+00  0.00000000E+00  1.60000000E+01  1.00800000E+00
  1.00800000E+00  0.00000000E+00  1.60000000E+01  1.00800000E+00  1.00800000E+00
  0.00000000E+00  1.60000000E+01  1.00800000E+00  1.00800000E+00  0.00000000E+00
  1.60000000E+01  1.00800000E+00  1.00800000E+00  0.00000000E+00  1.60000000E+01
  1.00800000E+00  1.00800000E+00  0.00000000E+00  1.60000000E+01  1.00800000E+00
  1.00800000E+00  0.00000000E+00  1.60000000E+01  1.00800000E+00  1.00800000E+00
  0.00000000E+00  1.60000000E+01  1.00800000E+00  1.00800000E+00  0.00000000E+00
  1.60000000E+01  1.00800000E+00  1.00800000E+00  0.00000000E+00  1.60000000E+01
  1.00800000E+00  1.00800000E+00  0.00000000E+00  1.60000000E+01  1.00800000E+00
  1.00800000E+00  0.00000000E+00  1.60000000E+01  1.00800000E+00  1.00800000E+00
  0.00000000E+00  1.60000000E+01  1.00800000E+00  1.00800000E+00  0.00000000E+00
  1.60000000E+01  1.00800000E+00  1.00800000E+00  0.00000000E+00  1.60000000E+01
  1.00800000E+00  1.00800000E+00  0.00000000E+00  1.60000000E+01  1.00800000E+00
  1.00800000E+00  0.00000000E+00  1.60000000E+01  1.00800000E+00  1.00800000E+00
  0.00000000E+00  1.60000000E+01  1.00800000E+00  1.00800000E+00  0.00000000E+00
  1.60000000E+01  1.00800000E+00  1.00800000E+00  0.00000000E+00  1.60000000E+01
  1.00800000E+00  1.00800000E+00  0.00000000E+00  1.60000000E+01  1.00800000E+00
  1.00800000E+00  0.00000000E+00  1.60000000E+01  1.00800000E+00  1.00800000E+00
  0.00000000E+00  1.60000000E+01  1.00800000E+00  1.00800000E+00  0.00000000E+00
  1.60000000E+01  1.00800000E+00  1.00800000E+00  0.00000000E+00  1.60000000E+01
  1.00800000E+00  1.00800000E+00  0.00000000E+00  1.60000000E+01  1.00800000E+00
  1.00800000E+00  0.00000000E+00  1.60000000E+01  1.00800000E+00  1.00800000E+00
  0.00000000E+00  1.60000000E+01  1.00800000E+00  1.00800000E+00  0.00000000E+00
  1.60000000E+01  1.00800000E+00  1.00800000E+00  0.00000000E+00  1.60000000E+01
  1.00800000E+00  1.00800000E+00  0.00000000E+00  1.60000000E+01  1.00800000E+00
  1.00800000E+00  0.00000000E+00  1.60000000E+01  1.00800000E+00  1.00800000E+00
  0.00000000E+00  1.60000000E+01  1.00800000E+00  1.00800000E+00  0.00000000E+00
  1.60000000E+01  1.00800000E+00  1.00800000E+00  0.00000000E+00  1.60000000E+01
  1.00800000E+00  1.00800000E+00  0.00000000E+00  1.60000000E+01  1.00800000E+00
  1.00800000E+00  0.00000000E+00  1.60000000E+01  1.00800000E+00  1.00800000E+00
  0.00000000E+00  1.60000000E+01  1.00800000E+00  1.00800000E+00  0.00000000E+00
  1.60000000E+01  1.00800000E+00  1.00800000E+00  0.00000000E+00  1.60000000E+01
  1.00800000E+00  1.00800000E+00  0.00000000E+00  1.60000000E+01  1.00800000E+00
  1.00800000E+00  0.00000000E+00  1.60000000E+01  1.00800000E+00  1.00800000E+00
  0.00000000E+00  1.60000000E+01  1.00800000E+00  1.00800000E+00  0.00000000E+00
  1.60000000E+01  1.00800000E+00  1.00800000E+00  0.00000000E+00  1.60000000E+01
  1.00800000E+00  1.00800000E+00  0.00000000E+00  1.60000000E+01  1.00800000E+00
  1.00800000E+00  0.00000000E+00  1.60000000E+01  1.00800000E+00  1.00800000E+00
  0.00000000E+00  1.60000000E+01  1.00800000E+00  1.00800000E+00  0.00000000E+00
  1.60000000E+01  1.00800000E+00  1.00800000E+00  0.00000000E+00  1.60000000E+01
  1.00800000E+00  1.00800000E+00  0.00000000E+00  1.60000000E+01  1.00800000E+00
  1.00800000E+00  0.00000000E+00  1.60000000E+01  1.00800000E+00  1.00800000E+00
  0.00000000E+00  1.60000000E+01  1.00800000E+00  1.00800000E+00  0.00000000E+00
  1.60000000E+01  1.00800000E+00  1.00800000E+00  0.00000000E+00  1.60000000E+01
  1.00800000E+00  1.00800000E+00  0.00000000E+00  1.60000000E+01  1.00800000E+00
  1.00800000E+00  0.00000000E+00  1.60000000E+01  1.00800000E+00  1.00800000E+00
  0.00000000E+00  1.60000000E+01  1.00800000E+00  1.00800000E+00  0.00000000E+00
  1.60000000E+01  1.00800000E+00  1.00800000E+00  0.00000000E+00  1.60000000E+01
  1.00800000E+00  1.00800000E+00  0.00000000E+00  1.60000000E+01  1.00800000E+00
  1.00800000E+00  0.00000000E+00  1.60000000E+01  1.00800000E+00  1.00800000E+00
  0.00000000E+00  1.60000000E+01  1.00800000E+00  1.00800000E+00  0.00000000E+00
  1.60000000E+01  1.00800000E+00  1.00800000E+00  0.00000000E+00  1.60000000E+01
  1.00800000E+00  1.00800000E+00  0.00000000E+00  1.60000000E+01  1.00800000E+00
  1.00800000E+00  0.00000000E+00  1.60000000E+01  1.00800000E+00  1.00800000E+00
  0.00000000E+00  1.60000000E+01  1.00800000E+00  1.00800000E+00  0.00000000E+00
  1.60000000E+01  1.00800000E+00  1.00800000E+00  0.00000000E+00  1.60000000E+01
  1.00800000E+00  1.00800000E+00  0.00000000E+00  1.60000000E+01  1.00800000E+00
  1.00800000E+00  0.00000000E+00  1.60000000E+01  1.00800000E+00  1.00800000E+00
  0.00000000E+00  1.60000000E+01  1.00800000E+00  1.00800000E+00  0.00000000E+00
  1.60000000E+01  1.00800000E+00  1.00800000E+00  0.00000000E+00  1.60000000E+01
  1.00800000E+00  1.00800000E+00  0.00000000E+00  1.60000000E+01  1.00800000E+00
  1.00800000E+00  0.00000000E+00  1.60000000E+01  1.00800000E+00  1.00800000E+00
  0.00000000E+00  1.60000000E+01  1.00800000E+00  1.00800000E+00  0.00000000E+00
  1.60000000E+01  1.00800000E+00  1.00800000E+00  0.00000000E+00  1.60000000E+01
  1.00800000E+00  1.00800000E+00  0.00000000E+00  1.60000000E+01  1.00800000E+00
  1.00800000E+00  0.00000000E+00  1.60000000E+01  1.00800000E+00  1.00800000E+00
  0.00000000E+00  1.60000000E+01  1.00800000E+00  1.00800000E+00  0.00000000E+00
  1.60000000E+01  1.00800000E+00  1.00800000E+00  0.00000000E+00  1.60000000E+01
  1.00800000E+00  1.00800000E+00  0.00000000E+00  1.60000000E+01  1.00800000E+00
  1.00800000E+00  0.00000000E+00  1.60000000E+01  1.00800000E+00  1.00800000E+00
  0.00000000E+00  1.60000000E+01  1.00800000E+00  1.00800000E+00  0.00000000E+00
  1.60000000E+01  1.00800000E+00  1.00800000E+00  0.00000000E+00  1.60000000E+01
  1.00800000E+00  1.00800000E+00  0.00000000E+00  1.60000000E+01  1.00800000E+00
  1.00800000E+00  0.00000000E+00  1.60000000E+01  1.00800000E+00  1.00800000E+00
  0.00000000E+00  1.60000000E+01  1.00800000E+00  1.00800000E+00  0.00000000E+00
  1.60000000E+01  1.00800000E+00  1.00800000E+00  0.00000000E+00  1.60000000E+01
  1.00800000E+00  1.00800000E+00  0.00000000E+00  1.60000000E+01  1.00800000E+00
  1.00800000E+00  0.00000000E+00  1.60000000E+01  1.00800000E+00  1.00800000E+00
  0.00000000E+00  1.60000000E+01  1.00800000E+00  1.00800000E+00  0.00000000E+00
  1.60000000E+01  1.00800000E+00  1.00800000E+00  0.00000000E+00  1.60000000E+01
  1.00800000E+00  1.00800000E+00  0.00000000E+00  1.60000000E+01  1.00800000E+00
  1.00800000E+00  0.00000000E+00  1.60000000E+01  1.00800000E+00  1.00800000E+00
  0.00000000E+00  1.60000000E+01  1.00800000E+00  1.00800000E+00  0.00000000E+00
  1.60000000E+01  1.00800000E+00  1.00800000E+00  0.00000000E+00  1.60000000E+01
  1.00800000E+00  1.00800000E+00  0.00000000E+00  1.60000000E+01  1.00800000E+00
  1.00800000E+00  0.00000000E+00  1.60000000E+01  1.00800000E+00  1.00800000E+00
  0.00000000E+00  1.60000000E+01  1.00800000E+00  1.00800000E+00  0.00000000E+00
  1.60000000E+01  1.00800000E+00  1.00800000E+00  0.00000000E+00  1.60000000E+01
  1.00800000E+00  1.00800000E+00  0.00000000E+00  1.60000000E+01  1.00800000E+00
  1.00800000E+00  0.00000000E+00  1.60000000E+01  1.00800000E+00  1.00800000E+00
  0.00000000E+00  1.60000000E+01  1.00800000E+00  1.00800000E+00  0.00000000E+00
  1.60000000E+01  1.00800000E+00  1.00800000E+00  0.00000000E+00  1.60000000E+01
  1.00800000E+00  1.00800000E+00  0.00000000E+00  1.60000000E+01  1.00800000E+00
  1.00800000E+00  0.00000000E+00  1.60000000E+01  1.00800000E+00  1.00800000E+00
  0.00000000E+00  1.60000000E+01  1.00800000E+00  1.00800000E+00  0.00000000E+00
  1.60000000E+01  1.00800000E+00  1.00800000E+00  0.00000000E+00  1.60000000E+01
  1.00800000E+00  1.00800000E+00  0.00000000E+00  1.60000000E+01  1.00800000E+00
  1.00800000E+00  0.00000000E+00  1.60000000E+01  1.00800000E+00  1.00800000E+00
  0.00000000E+00  1.60000000E+01  1.00800000E+00  1.00800000E+00  0.00000000E+00
  1.60000000E+01  1.00800000E+00  1.00800000E+00  0.00000000E+00  1.60000000E+01
  1.00800000E+00  1.00800000E+00  0.00000000E+00  1.60000000E+01  1.00800000E+00
  1.00800000E+00  0.00000000E+00  1.60000000E+01  1.00800000E+00  1.00800000E+00
  0.00000000E+00  1.60000000E+01  1.00800000E+00  1.00800000E+00  0.00000000E+00
  1.60000000E+01  1.00800000E+00  1.00800000E+00  0.00000000E+00  1.60000000E+01
  1.00800000E+00  1.00800000E+00  0.00000000E+00  1.60000000E+01  1.00800000E+00
  1.00800000E+00  0.00000000E+00  1.60000000E+01  1.00800000E+00  1.00800000E+00
  0.00000000E+00  1.60000000E+01  1.00800000E+00  1.00800000E+00  0.00000000E+00
  1.60000000E+01  1.00800000E+00  1.00800000E+00  0.00000000E+00  1.60000000E+01
  1.00800000E+00  1.00800000E+00  0.00000000E+00  1.60000000E+01  1.00800000E+00
  1.00800000E+00  0.00000000E+00  1.60000000E+01  1.00800000E+00  1.00800000E+00
  0.00000000E+00  1.60000000E+01  1.00800000E+00  1.00800000E+00  0.00000000E+00
  1.60000000E+01  1.00800000E+00  1.00800000E+00  0.00000000E+00  1.60000000E+01
  1.00800000E+00  1.00800000E+00  0.00000000E+00  1.60000000E+01  1.00800000E+00
  1.00800000E+00  0.00000000E+00  1.60000000E+01  1.00800000E+00  1.00800000E+00
  0.00000000E+00  1.60000000E+01  1.00800000E+00  1.00800000E+00  0.00000000E+00
  1.60000000E+01  1.00800000E+00  1.00800000E+00  0.00000000E+00  1.60000000E+01
  1.00800000E+00  1.00800000E+00  0.00000000E+00  1.60000000E+01  1.00800000E+00
  1.00800000E+00  0.00000000E+00  1.60000000E+01  1.00800000E+00  1.00800000E+00
  0.00000000E+00  1.60000000E+01  1.00800000E+00  1.00800000E+00  0.00000000E+00
  1.60000000E+01  1.00800000E+00  1.00800000E+00  0.00000000E+00  1.60000000E+01
  1.00800000E+00  1.00800000E+00  0.00000000E+00  1.60000000E+01  1.00800000E+00
  1.00800000E+00  0.00000000E+00  1.60000000E+01  1.00800000E+00  1.00800000E+00
  0.00000000E+00  1.60000000E+01  1.00800000E+00  1.00800000E+00  0.00000000E+00
  1.60000000E+01  1.00800000E+00  1.00800000E+00  0.00000000E+00  1.60000000E+01
  1.00800000E+00  1.00800000E+00  0.00000000E+00  1.60000000E+01  1.00800000E+00
  1.00800000E+00  0.00000000E+00  1.60000000E+01  1.00800000E+00  1.00800000E+00
  0.00000000E+00  1.60000000E+01  1.00800000E+00  1.00800000E+00  0.00000000E+00
  1.60000000E+01  1.00800000E+00  1.00800000E+00  0.00000000E+00  1.60000000E+01
  1.00800000E+00  1.00800000E+00  0.00000000E+00  1.60000000E+01  1.00800000E+00
  1.00800000E+00  0.00000000E+00  1.60000000E+01  1.00800000E+00  1.00800000E+00
  0.00000000E+00  1.60000000E+01  1.00800000E+00  1.00800000E+00  0.00000000E+00
  1.60000000E+01  1.00800000E+00  1.00800000E+00  0.00000000E+00  1.60000000E+01
  1.00800000E+00  1.00800000E+00  0.00000000E+00  1.60000000E+01  1.00800000E+00
  1.00800000E+00  0.00000000E+00  1.60000000E+01  1.00800000E+00  1.00800000E+00
  0.00000000E+00  1.60000000E+01  1.00800000E+00  1.00800000E+00  0.00000000E+00
  1.60000000E+01  1.00800000E+00  1.00800000E+00  0.00000000E+00  1.60000000E+01
  1.00800000E+00  1.00800000E+00  0.00000000E+00  1.60000000E+01  1.00800000E+00
  1.00800000E+00  0.00000000E+00  1.60000000E+01  1.00800000E+00  1.00800000E+00
  0.00000000E+00  1.60000000E+01  1.00800000E+00  1.00800000E+00  0.00000000E+00
  1.60000000E+01  1.00800000E+00  1.00800000E+00  0.00000000E+00  1.60000000E+01
  1.00800000E+00  1.00800000E+00  0.00000000E+00  1.60000000E+01  1.00800000E+00
  1.00800000E+00  0.00000000E+00  1.60000000E+01  1.00800000E+00  1.00800000E+00
  0.00000000E+00  1.60000000E+01  1.00800000E+00  1.00800000E+00  0.00000000E+00
  1.60000000E+01  1.00800000E+00  1.00800000E+00  0.00000000E+00  1.60000000E+01
  1.00800000E+00  1.00800000E+00  0.00000000E+00  1.60000000E+01  1.00800000E+00
  1.00800000E+00  0.00000000E+00  1.60000000E+01  1.00800000E+00  1.00800000E+00
  0.00000000E+00  1.60000000E+01  1.00800000E+00  1.00800000E+00  0.00000000E+00
  1.60000000E+01  1.00800000E+00  1.00800000E+00  0.00000000E+00  1.60000000E+01
  1.00800000E+00  1.00800000E+00  0.00000000E+00  1.60000000E+01  1.00800000E+00
  1.00800000E+00  0.00000000E+00  1.60000000E+01  1.00800000E+00  1.00800000E+00
  0.00000000E+00  1.60000000E+01  1.00800000E+00  1.00800000E+00  0.00000000E+00
  1.60000000E+01  1.00800000E+00  1.00800000E+00  0.00000000E+00  1.60000000E+01
  1.00800000E+00  1.00800000E+00  0.00000000E+00  1.60000000E+01  1.00800000E+00
  1.00800000E+00  0.00000000E+00  1.60000000E+01  1.00800000E+00  1.00800000E+00
  0.00000000E+00  1.60000000E+01  1.00800000E+00  1.00800000E+00  0.00000000E+00
  1.60000000E+01  1.00800000E+00  1.00800000E+00  0.00000000E+00  1.60000000E+01
  1.00800000E+00  1.00800000E+00  0.00000000E+00  1.60000000E+01  1.00800000E+00
  1.00800000E+00  0.00000000E+00  1.60000000E+01  1.00800000E+00  1.00800000E+00
  0.00000000E+00  1.60000000E+01  1.00800000E+00  1.00800000E+00  0.00000000E+00
  1.60000000E+01  1.00800000E+00  1.00800000E+00  0.00000000E+00  1.60000000E+01
  1.00800000E+00  1.00800000E+00  0.00000000E+00  1.60000000E+01  1.00800000E+00
  1.00800000E+00  0.00000000E+00  1.60000000E+01  1.00800000E+00  1.00800000E+00
  0.00000000E+00  1.60000000E+01  1.00800000E+00  1.00800000E+00  0.00000000E+00
  1.60000000E+01  1.00800000E+00  1.00800000E+00  0.00000000E+00  1.60000000E+01
  1.00800000E+00  1.00800000E+00  0.00000000E+00  1.60000000E+01  1.00800000E+00
  1.00800000E+00  0.00000000E+00  1.60000000E+01  1.00800000E+00  1.00800000E+00
  0.00000000E+00  1.60000000E+01  1.00800000E+00  1.00800000E+00  0.00000000E+00
  1.60000000E+01  1.00800000E+00  1.00800000E+00  0.00000000E+00  1.60000000E+01
  1.00800000E+00  1.00800000E+00  0.00000000E+00  1.60000000E+01  1.00800000E+00
  1.00800000E+00  0.00000000E+00  1.60000000E+01  1.00800000E+00  1.00800000E+00
  0.00000000E+00  1.60000000E+01  1.00800000E+00  1.00800000E+00  0.00000000E+00
  1.60000000E+01  1.00800000E+00  1.00800000E+00  0.00000000E+00  1.60000000E+01
  1.00800000E+00  1.00800000E+00  0.00000000E+00  1.60000000E+01  1.00800000E+00
  1.00800000E+00  0.00000000E+00  1.60000000E+01  1.00800000E+00  1.00800000E+00
  0.00000000E+00  1.60000000E+01  1.00800000E+00  1.00800000E+00  0.00000000E+00
  1.60000000E+01  1.00800000E+00  1.00800000E+00  0.00000000E+00  1.60000000E+01
  1.00800000E+00  1.00800000E+00  0.00000000E+00  1.60000000E+01  1.00800000E+00
  1.00800000E+00  0.00000000E+00  1.60000000E+01  1.00800000E+00  1.00800000E+00
  0.00000000E+00  1.60000000E+01  1.00800000E+00  1.00800000E+00  0.00000000E+00
  1.60000000E+01  1.00800000E+00  1.00800000E+00  0.00000000E+00  1.60000000E+01
  1.00800000E+00  1.00800000E+00  0.00000000E+00  1.60000000E+01  1.00800000E+00
  1.00800000E+00  0.00000000E+00  1.60000000E+01  1.00800000E+00  1.00800000E+00
  0.00000000E+00  1.60000000E+01  1.00800000E+00  1.00800000E+00  0.00000000E+00
  1.60000000E+01  1.00800000E+00  1.00800000E+00  0.00000000E+00  1.60000000E+01
  1.00800000E+00  1.00800000E+00  0.00000000E+00  1.60000000E+01  1.00800000E+00
  1.00800000E+00  0.00000000E+00  1.60000000E+01  1.00800000E+00  1.00800000E+00
  0.00000000E+00  1.60000000E+01  1.00800000E+00  1.00800000E+00  0.00000000E+00
  1.60000000E+01  1.00800000E+00  1.00800000E+00  0.00000000E+00  1.60000000E+01
  1.00800000E+00  1.00800000E+00  0.00000000E+00  1.60000000E+01  1.00800000E+00
  1.00800000E+00  0.00000000E+00  1.60000000E+01  1.00800000E+00  1.00800000E+00
  0.00000000E+00  1.60000000E+01  1.00800000E+00  1.00800000E+00  0.00000000E+00
  1.60000000E+01  1.00800000E+00  1.00800000E+00  0.00000000E+00  1.60000000E+01
  1.00800000E+00  1.00800000E+00  0.00000000E+00  1.60000000E+01  1.00800000E+00
  1.00800000E+00  0.00000000E+00  1.60000000E+01  1.00800000E+00  1.00800000E+00
  0.00000000E+00  1.60000000E+01  1.00800000E+00  1.00800000E+00  0.00000000E+00
  1.60000000E+01  1.00800000E+00  1.00800000E+00  0.00000000E+00  1.60000000E+01
  1.00800000E+00  1.00800000E+00  0.00000000E+00  1.60000000E+01  1.00800000E+00
  1.00800000E+00  0.00000000E+00  1.60000000E+01  1.00800000E+00  1.00800000E+00
  0.00000000E+00  1.60000000E+01  1.00800000E+00  1.00800000E+00  0.00000000E+00
  1.60000000E+01  1.00800000E+00  1.00800000E+00  0.00000000E+00  1.60000000E+01
  1.00800000E+00  1.00800000E+00  0.00000000E+00  1.60000000E+01  1.00800000E+00
  1.00800000E+00  0.00000000E+00  1.60000000E+01  1.00800000E+00  1.00800000E+00
  0.00000000E+00  1.60000000E+01  1.00800000E+00  1.00800000E+00  0.00000000E+00
  1.60000000E+01  1.00800000E+00  1.00800000E+00  0.00000000E+00  1.60000000E+01
  1.00800000E+00  1.00800000E+00  0.00000000E+00  1.60000000E+01  1.00800000E+00
  1.00800000E+00  0.00000000E+00  1.60000000E+01  1.00800000E+00  1.00800000E+00
  0.00000000E+00  1.60000000E+01  1.00800000E+00  1.00800000E+00  0.00000000E+00
  1.60000000E+01  1.00800000E+00  1.00800000E+00  0.00000000E+00  1.60000000E+01
  1.00800000E+00  1.00800000E+00  0.00000000E+00  1.60000000E+01  1.00800000E+00
  1.00800000E+00  0.00000000E+00  1.60000000E+01  1.00800000E+00  1.00800000E+00
  0.00000000E+00  1.60000000E+01  1.00800000E+00  1.00800000E+00  0.00000000E+00
  1.60000000E+01  1.00800000E+00  1.00800000E+00  0.00000000E+00  1.60000000E+01
  1.00800000E+00  1.00800000E+00  0.00000000E+00  1.60000000E+01  1.00800000E+00
  1.00800000E+00  0.00000000E+00  1.60000000E+01  1.00800000E+00  1.00800000E+00
  0.00000000E+00  1.60000000E+01  1.00800000E+00  1.00800000E+00  0.00000000E+00
  1.60000000E+01  1.00800000E+00  1.00800000E+00  0.00000000E+00  1.60000000E+01
  1.00800000E+00  1.00800000E+00  0.00000000E+00  1.60000000E+01  1.00800000E+00
  1.00800000E+00  0.00000000E+00  1.60000000E+01  1.00800000E+00  1.00800000E+00
  0.00000000E+00  1.60000000E+01  1.00800000E+00  1.00800000E+00  0.00000000E+00
  1.60000000E+01  1.00800000E+00  1.00800000E+00  0.00000000E+00  1.60000000E+01
  1.00800000E+00  1.00800000E+00  0.00000000E+00  1.60000000E+01  1.00800000E+00
  1.00800000E+00  0.00000000E+00  1.60000000E+01  1.00800000E+00  1.00800000E+00
  0.00000000E+00  1.60000000E+01  1.00800000E+00  1.00800000E+00  0.00000000E+00
  1.60000000E+01  1.00800000E+00  1.00800000E+00  0.00000000E+00  1.60000000E+01
  1.00800000E+00  1.00800000E+00  0.00000000E+00  1.60000000E+01  1.00800000E+00
  1.00800000E+00  0.00000000E+00  1.60000000E+01  1.00800000E+00  1.00800000E+00
  0.00000000E+00  1.60000000E+01  1.00800000E+00  1.00800000E+00  0.00000000E+00
  1.60000000E+01  1.00800000E+00  1.00800000E+00  0.00000000E+00  1.60000000E+01
  1.00800000E+00  1.00800000E+00  0.00000000E+00  1.60000000E+01  1.00800000E+00
  1.00800000E+00  0.00000000E+00  1.60000000E+01  1.00800000E+00  1.00800000E+00
  0.00000000E+00  1.60000000E+01  1.00800000E+00  1.00800000E+00  0.00000000E+00
  1.60000000E+01  1.00800000E+00  1.00800000E+00  0.00000000E+00  1.60000000E+01
  1.00800000E+00  1.00800000E+00  0.00000000E+00  1.60000000E+01  1.00800000E+00
  1.00800000E+00  0.00000000E+00  1.60000000E+01  1.00800000E+00  1.00800000E+00
  0.00000000E+00  1.60000000E+01  1.00800000E+00  1.00800000E+00  0.00000000E+00
  1.60000000E+01  1.00800000E+00  1.00800000E+00  0.00000000E+00  1.60000000E+01
  1.00800000E+00  1.00800000E+00  0.00000000E+00  1.60000000E+01  1.00800000E+00
  1.00800000E+00  0.00000000E+00  1.60000000E+01  1.00800000E+00  1.00800000E+00
  0.00000000E+00  1.60000000E+01  1.00800000E+00  1.00800000E+00  0.00000000E+00
  1.60000000E+01  1.00800000E+00  1.00800000E+00  0.00000000E+00  1.60000000E+01
  1.00800000E+00  1.00800000E+00  0.00000000E+00  1.60000000E+01  1.00800000E+00
  1.00800000E+00  0.00000000E+00  1.60000000E+01  1.00800000E+00  1.00800000E+00
  0.00000000E+00  1.60000000E+01  1.00800000E+00  1.00800000E+00  0.00000000E+00
  1.60000000E+01  1.00800000E+00  1.00800000E+00  0.00000000E+00  1.60000000E+01
  1.00800000E+00  1.00800000E+00  0.00000000E+00  1.60000000E+01  1.00800000E+00
  1.00800000E+00  0.00000000E+00  1.60000000E+01  1.00800000E+00  1.00800000E+00
  0.00000000E+00  1.60000000E+01  1.00800000E+00  1.00800000E+00  0.00000000E+00
  1.60000000E+01  1.00800000E+00  1.00800000E+00  0.00000000E+00  1.60000000E+01
  1.00800000E+00  1.00800000E+00  0.00000000E+00  1.60000000E+01  1.00800000E+00
  1.00800000E+00  0.00000000E+00  1.60000000E+01  1.00800000E+00  1.00800000E+00
  0.00000000E+00  1.60000000E+01  1.00800000E+00  1.00800000E+00  0.00000000E+00
  1.60000000E+01  1.00800000E+00  1.00800000E+00  0.00000000E+00  1.60000000E+01
  1.00800000E+00  1.00800000E+00  0.00000000E+00  1.60000000E+01  1.00800000E+00
  1.00800000E+00  0.00000000E+00  1.60000000E+01  1.00800000E+00  1.00800000E+00
  0.00000000E+00  1.60000000E+01  1.00800000E+00  1.00800000E+00  0.00000000E+00
  1.60000000E+01  1.00800000E+00  1.00800000E+00  0.00000000E+00  1.60000000E+01
  1.00800000E+00  1.00800000E+00  0.00000000E+00  1.60000000E+01  1.00800000E+00
  1.00800000E+00  0.00000000E+00  1.60000000E+01  1.00800000E+00  1.00800000E+00
  0.00000000E+00  1.60000000E+01  1.00800000E+00  1.00800000E+00  0.00000000E+00
  1.60000000E+01  1.00800000E+00  1.00800000E+00  0.00000000E+00  1.60000000E+01
  1.00800000E+00  1.00800000E+00  0.00000000E+00  1.60000000E+01  1.00800000E+00
  1.00800000E+00  0.00000000E+00  1.60000000E+01  1.00800000E+00  1.00800000E+00
  0.00000000E+00  1.60000000E+01  1.00800000E+00  1.00800000E+00  0.00000000E+00
  1.60000000E+01  1.00800000E+00  1.00800000E+00  0.00000000E+00  1.60000000E+01
  1.00800000E+00  1.00800000E+00  0.00000000E+00  1.60000000E+01  1.00800000E+00
  1.00800000E+00  0.00000000E+00  1.60000000E+01  1.00800000E+00  1.00800000E+00
  0.00000000E+00  1.60000000E+01  1.00800000E+00  1.00800000E+00  0.00000000E+00
  1.60000000E+01  1.00800000E+00  1.00800000E+00  0.00000000E+00  1.60000000E+01
  1.00800000E+00  1.00800000E+00  0.00000000E+00  1.60000000E+01  1.00800000E+00
  1.00800000E+00  0.00000000E+00  1.60000000E+01  1.00800000E+00  1.00800000E+00
  0.00000000E+00  1.60000000E+01  1.00800000E+00  1.00800000E+00  0.00000000E+00
  1.60000000E+01  1.00800000E+00  1.00800000E+00  0.00000000E+00  1.60000000E+01
  1.00800000E+00  1.00800000E+00  0.00000000E+00  1.60000000E+01  1.00800000E+00
  1.00800000E+00  0.00000000E+00  1.60000000E+01  1.00800000E+00  1.00800000E+00
  0.00000000E+00  1.60000000E+01  1.00800000E+00  1.00800000E+00  0.00000000E+00
  1.60000000E+01  1.00800000E+00  1.00800000E+00  0.00000000E+00  1.60000000E+01
  1.00800000E+00  1.00800000E+00  0.00000000E+00  1.60000000E+01  1.00800000E+00
  1.00800000E+00  0.00000000E+00  1.60000000E+01  1.00800000E+00  1.00800000E+00
  0.00000000E+00  1.60000000E+01  1.00800000E+00  1.00800000E+00  0.00000000E+00
  1.60000000E+01  1.00800000E+00  1.00800000E+00  0.00000000E+00  1.60000000E+01
  1.00800000E+00  1.00800000E+00  0.00000000E+00  1.60000000E+01  1.00800000E+00
  1.00800000E+00  0.00000000E+00  1.60000000E+01  1.00800000E+00  1.00800000E+00
  0.00000000E+00  1.60000000E+01  1.00800000E+00  1.00800000E+00  0.00000000E+00
  1.60000000E+01  1.00800000E+00  1.00800000E+00  0.00000000E+00  1.60000000E+01
  1.00800000E+00  1.00800000E+00  0.00000000E+00  1.60000000E+01  1.00800000E+00
  1.00800000E+00  0.00000000E+00  1.60000000E+01  1.00800000E+00  1.00800000E+00
  0.00000000E+00  1.60000000E+01  1.00800000E+00  1.00800000E+00  0.00000000E+00
  1.60000000E+01  1.00800000E+00  1.00800000E+00  0.00000000E+00  1.60000000E+01
  1.00800000E+00  1.00800000E+00  0.00000000E+00  1.60000000E+01  1.00800000E+00
  1.00800000E+00  0.00000000E+00  1.60000000E+01  1.00800000E+00  1.00800000E+00
  0.00000000E+00  1.60000000E+01  1.00800000E+00  1.00800000E+00  0.00000000E+00
  1.60000000E+01  1.00800000E+00  1.00800000E+00  0.00000000E+00  1.60000000E+01
  1.00800000E+00  1.00800000E+00  0.00000000E+00  1.60000000E+01  1.00800000E+00
  1.00800000E+00  0.00000000E+00  1.60000000E+01  1.00800000E+00  1.00800000E+00
  0.00000000E+00  1.60000000E+01  1.00800000E+00  1.00800000E+00  0.00000000E+00
  1.60000000E+01  1.00800000E+00  1.00800000E+00  0.00000000E+00  1.60000000E+01
  1.00800000E+00  1.00800000E+00  0.00000000E+00  1.60000000E+01  1.00800000E+00
  1.00800000E+00  0.00000000E+00  1.60000000E+01  1.00800000E+00  1.00800000E+00
  0.00000000E+00  1.60000000E+01  1.00800000E+00  1.00800000E+00  0.00000000E+00
  1.60000000E+01  1.00800000E+00  1.00800000E+00  0.00000000E+00  1.60000000E+01
  1.00800000E+00  1.00800000E+00  0.00000000E+00  1.60000000E+01  1.00800000E+00
  1.00800000E+00  0.00000000E+00  1.60000000E+01  1.00800000E+00  1.00800000E+00
  0.00000000E+00  1.60000000E+01  1.00800000E+00  1.00800000E+00  0.00000000E+00
  1.60000000E+01  1.00800000E+00  1.00800000E+00  0.00000000E+00  1.60000000E+01
  1.00800000E+00  1.00800000E+00  0.00000000E+00  1.60000000E+01  1.00800000E+00
  1.00800000E+00  0.00000000E+00  1.60000000E+01  1.00800000E+00  1.00800000E+00
  0.00000000E+00  1.60000000E+01  1.00800000E+00  1.00800000E+00  0.00000000E+00
  1.60000000E+01  1.00800000E+00  1.00800000E+00  0.00000000E+00  1.60000000E+01
  1.00800000E+00  1.00800000E+00  0.00000000E+00  1.60000000E+01  1.00800000E+00
  1.00800000E+00  0.00000000E+00  1.60000000E+01  1.00800000E+00  1.00800000E+00
  0.00000000E+00  1.60000000E+01  1.00800000E+00  1.00800000E+00  0.00000000E+00
  1.60000000E+01  1.00800000E+00  1.00800000E+00  0.00000000E+00  1.60000000E+01
  1.00800000E+00  1.00800000E+00  0.00000000E+00  1.60000000E+01  1.00800000E+00
  1.00800000E+00  0.00000000E+00  1.60000000E+01  1.00800000E+00  1.00800000E+00
  0.00000000E+00  1.60000000E+01  1.00800000E+00  1.00800000E+00  0.00000000E+00
  1.60000000E+01  1.00800000E+00  1.00800000E+00  0.00000000E+00  1.60000000E+01
  1.00800000E+00  1.00800000E+00  0.00000000E+00  1.60000000E+01  1.00800000E+00
  1.00800000E+00  0.00000000E+00  1.60000000E+01  1.00800000E+00  1.00800000E+00
  0.00000000E+00  1.60000000E+01  1.00800000E+00  1.00800000E+00  0.00000000E+00
  1.60000000E+01  1.00800000E+00  1.00800000E+00  0.00000000E+00  1.60000000E+01
  1.00800000E+00  1.00800000E+00  0.00000000E+00  1.60000000E+01  1.00800000E+00
  1.00800000E+00  0.00000000E+00  1.60000000E+01  1.00800000E+00  1.00800000E+00
  0.00000000E+00  1.60000000E+01  1.00800000E+00  1.00800000E+00  0.00000000E+00
  1.60000000E+01  1.00800000E+00  1.00800000E+00  0.00000000E+00  1.60000000E+01
  1.00800000E+00  1.00800000E+00  0.00000000E+00  1.60000000E+01  1.00800000E+00
  1.00800000E+00  0.00000000E+00  1.60000000E+01  1.00800000E+00  1.00800000E+00
  0.00000000E+00  1.60000000E+01  1.00800000E+00  1.00800000E+00  0.00000000E+00
  1.60000000E+01  1.00800000E+00  1.00800000E+00  0.00000000E+00  1.60000000E+01
  1.00800000E+00  1.00800000E+00  0.00000000E+00  1.60000000E+01  1.00800000E+00
  1.00800000E+00  0.00000000E+00  1.60000000E+01  1.00800000E+00  1.00800000E+00
  0.00000000E+00  1.60000000E+01  1.00800000E+00  1.00800000E+00  0.00000000E+00
  1.60000000E+01  1.00800000E+00  1.00800000E+00  0.00000000E+00  1.60000000E+01
  1.00800000E+00  1.00800000E+00  0.00000000E+00  1.60000000E+01  1.00800000E+00
  1.00800000E+00  0.00000000E+00  1.60000000E+01  1.00800000E+00  1.00800000E+00
  0.00000000E+00  1.60000000E+01  1.00800000E+00  1.00800000E+00  0.00000000E+00
  1.60000000E+01  1.00800000E+00  1.00800000E+00  0.00000000E+00  1.60000000E+01
  1.00800000E+00  1.00800000E+00  0.00000000E+00  1.60000000E+01  1.00800000E+00
  1.00800000E+00  0.00000000E+00  1.60000000E+01  1.00800000E+00  1.00800000E+00
  0.00000000E+00  1.60000000E+01  1.00800000E+00  1.00800000E+00  0.00000000E+00
  1.60000000E+01  1.00800000E+00  1.00800000E+00  0.00000000E+00  1.60000000E+01
  1.00800000E+00  1.00800000E+00  0.00000000E+00  1.60000000E+01  1.00800000E+00
  1.00800000E+00  0.00000000E+00  1.60000000E+01  1.00800000E+00  1.00800000E+00
  0.00000000E+00  1.60000000E+01  1.00800000E+00  1.00800000E+00  0.00000000E+00
  1.60000000E+01  1.00800000E+00  1.00800000E+00  0.00000000E+00  1.60000000E+01
  1.00800000E+00  1.00800000E+00  0.00000000E+00  1.60000000E+01  1.00800000E+00
  1.00800000E+00  0.00000000E+00  1.60000000E+01  1.00800000E+00  1.00800000E+00
  0.00000000E+00  1.60000000E+01  1.00800000E+00  1.00800000E+00  0.00000000E+00
  1.60000000E+01  1.00800000E+00  1.00800000E+00  0.00000000E+00  1.60000000E+01
  1.00800000E+00  1.00800000E+00  0.00000000E+00  1.60000000E+01  1.00800000E+00
  1.00800000E+00  0.00000000E+00  1.60000000E+01  1.00800000E+00  1.00800000E+00
  0.00000000E+00  1.60000000E+01  1.00800000E+00  1.00800000E+00  0.00000000E+00
  1.60000000E+01  1.00800000E+00  1.00800000E+00  0.00000000E+00  1.60000000E+01
  1.00800000E+00  1.00800000E+00  0.00000000E+00  1.60000000E+01  1.00800000E+00
  1.00800000E+00  0.00000000E+00  1.60000000E+01  1.00800000E+00  1.00800000E+00
  0.00000000E+00  1.60000000E+01  1.00800000E+00  1.00800000E+00  0.00000000E+00
  1.60000000E+01  1.00800000E+00  1.00800000E+00  0.00000000E+00  1.60000000E+01
  1.00800000E+00  1.00800000E+00  0.00000000E+00  1.60000000E+01  1.00800000E+00
  1.00800000E+00  0.00000000E+00  1.60000000E+01  1.00800000E+00  1.00800000E+00
  0.00000000E+00  1.60000000E+01  1.00800000E+00  1.00800000E+00  0.00000000E+00
  1.60000000E+01  1.00800000E+00  1.00800000E+00  0.00000000E+00  1.60000000E+01
  1.00800000E+00  1.00800000E+00  0.00000000E+00  1.60000000E+01  1.00800000E+00
  1.00800000E+00  0.00000000E+00  1.60000000E+01  1.00800000E+00  1.00800000E+00
  0.00000000E+00  1.60000000E+01  1.00800000E+00  1.00800000E+00  0.00000000E+00
  1.60000000E+01  1.00800000E+00  1.00800000E+00  0.00000000E+00  1.60000000E+01
  1.00800000E+00  1.00800000E+00  0.00000000E+00  1.60000000E+01  1.00800000E+00
  1.00800000E+00  0.00000000E+00  1.60000000E+01  1.00800000E+00  1.00800000E+00
  0.00000000E+00  1.60000000E+01  1.00800000E+00  1.00800000E+00  0.00000000E+00
  1.60000000E+01  1.00800000E+00  1.00800000E+00  0.00000000E+00  1.60000000E+01
  1.00800000E+00  1.00800000E+00  0.00000000E+00  1.60000000E+01  1.00800000E+00
  1.00800000E+00  0.00000000E+00  1.60000000E+01  1.00800000E+00  1.00800000E+00
  0.00000000E+00  1.60000000E+01  1.00800000E+00  1.00800000E+00  0.00000000E+00
  1.60000000E+01  1.00800000E+00  1.00800000E+00  0.00000000E+00  1.60000000E+01
  1.00800000E+00  1.00800000E+00  0.00000000E+00  1.60000000E+01  1.00800000E+00
  1.00800000E+00  0.00000000E+00  1.60000000E+01  1.00800000E+00  1.00800000E+00
  0.00000000E+00  1.60000000E+01  1.00800000E+00  1.00800000E+00  0.00000000E+00
  1.60000000E+01  1.00800000E+00  1.00800000E+00  0.00000000E+00  1.60000000E+01
  1.00800000E+00  1.00800000E+00  0.00000000E+00  1.60000000E+01  1.00800000E+00
  1.00800000E+00  0.00000000E+00  1.60000000E+01  1.00800000E+00  1.00800000E+00
  0.00000000E+00  1.60000000E+01  1.00800000E+00  1.00800000E+00  0.00000000E+00
  1.60000000E+01  1.00800000E+00  1.00800000E+00  0.00000000E+00  1.60000000E+01
  1.00800000E+00  1.00800000E+00  0.00000000E+00  1.60000000E+01  1.00800000E+00
  1.00800000E+00  0.00000000E+00  1.60000000E+01  1.00800000E+00  1.00800000E+00
  0.00000000E+00  1.60000000E+01  1.00800000E+00  1.00800000E+00  0.00000000E+00
  1.60000000E+01  1.00800000E+00  1.00800000E+00  0.00000000E+00  1.60000000E+01
  1.00800000E+00  1.00800000E+00  0.00000000E+00  1.60000000E+01  1.00800000E+00
  1.00800000E+00  0.00000000E+00  1.60000000E+01  1.00800000E+00  1.00800000E+00
  0.00000000E+00  1.60000000E+01  1.00800000E+00  1.00800000E+00  0.00000000E+00
  1.60000000E+01  1.00800000E+00  1.00800000E+00  0.00000000E+00  1.60000000E+01
  1.00800000E+00  1.00800000E+00  0.00000000E+00  1.60000000E+01  1.00800000E+00
  1.00800000E+00  0.00000000E+00  1.60000000E+01  1.00800000E+00  1.00800000E+00
  0.00000000E+00  1.60000000E+01  1.00800000E+00  1.00800000E+00  0.00000000E+00
  1.60000000E+01  1.00800000E+00  1.00800000E+00  0.00000000E+00  1.60000000E+01
  1.00800000E+00  1.00800000E+00  0.00000000E+00  1.60000000E+01  1.00800000E+00
  1.00800000E+00  0.00000000E+00  1.60000000E+01  1.00800000E+00  1.00800000E+00
  0.00000000E+00  1.60000000E+01  1.00800000E+00  1.00800000E+00  0.00000000E+00
  1.60000000E+01  1.00800000E+00  1.00800000E+00  0.00000000E+00  1.60000000E+01
  1.00800000E+00  1.00800000E+00  0.00000000E+00  1.60000000E+01  1.00800000E+00
  1.00800000E+00  0.00000000E+00  1.60000000E+01  1.00800000E+00  1.00800000E+00
  0.00000000E+00  1.60000000E+01  1.00800000E+00  1.00800000E+00  0.00000000E+00
  1.60000000E+01  1.00800000E+00  1.00800000E+00  0.00000000E+00  1.60000000E+01
  1.00800000E+00  1.00800000E+00  0.00000000E+00  1.60000000E+01  1.00800000E+00
  1.00800000E+00  0.00000000E+00  1.60000000E+01  1.00800000E+00  1.00800000E+00
  0.00000000E+00  1.60000000E+01  1.00800000E+00  1.00800000E+00  0.00000000E+00
  1.60000000E+01  1.00800000E+00  1.00800000E+00  0.00000000E+00  1.60000000E+01
  1.00800000E+00  1.00800000E+00  0.00000000E+00  1.60000000E+01  1.00800000E+00
  1.00800000E+00  0.00000000E+00  1.60000000E+01  1.00800000E+00  1.00800000E+00
  0.00000000E+00  1.60000000E+01  1.00800000E+00  1.00800000E+00  0.00000000E+00
  1.60000000E+01  1.00800000E+00  1.00800000E+00  0.00000000E+00  1.60000000E+01
  1.00800000E+00  1.00800000E+00  0.00000000E+00  1.60000000E+01  1.00800000E+00
  1.00800000E+00  0.00000000E+00  1.60000000E+01  1.00800000E+00  1.00800000E+00
  0.00000000E+00  1.60000000E+01  1.00800000E+00  1.00800000E+00  0.00000000E+00
  1.60000000E+01  1.00800000E+00  1.00800000E+00  0.00000000E+00  1.60000000E+01
  1.00800000E+00  1.00800000E+00  0.00000000E+00  1.60000000E+01  1.00800000E+00
  1.00800000E+00  0.00000000E+00  1.60000000E+01  1.00800000E+00  1.00800000E+00
  0.00000000E+00  1.60000000E+01  1.00800000E+00  1.00800000E+00  0.00000000E+00
  1.60000000E+01  1.00800000E+00  1.00800000E+00  0.00000000E+00  1.60000000E+01
  1.00800000E+00  1.00800000E+00  0.00000000E+00  1.60000000E+01  1.00800000E+00
  1.00800000E+00  0.00000000E+00  1.60000000E+01  1.00800000E+00  1.00800000E+00
  0.00000000E+00  1.60000000E+01  1.00800000E+00  1.00800000E+00  0.00000000E+00
  1.60000000E+01  1.00800000E+00  1.00800000E+00  0.00000000E+00  1.60000000E+01
  1.00800000E+00  1.00800000E+00  0.00000000E+00  1.60000000E+01  1.00800000E+00
  1.00800000E+00  0.00000000E+00  1.60000000E+01  1.00800000E+00  1.00800000E+00
  0.00000000E+00  1.60000000E+01  1.00800000E+00  1.00800000E+00  0.00000000E+00
  1.60000000E+01  1.00800000E+00  1.00800000E+00  0.00000000E+00  1.60000000E+01
  1.00800000E+00  1.00800000E+00  0.00000000E+00  1.60000000E+01  1.00800000E+00
  1.00800000E+00  0.00000000E+00  1.60000000E+01  1.00800000E+00  1.00800000E+00
  0.00000000E+00  1.60000000E+01  1.00800000E+00  1.00800000E+00  0.00000000E+00
  1.60000000E+01  1.00800000E+00  1.00800000E+00  0.00000000E+00  1.60000000E+01
  1.00800000E+00  1.00800000E+00  0.00000000E+00  1.60000000E+01  1.00800000E+00
  1.00800000E+00  0.00000000E+00  1.60000000E+01  1.00800000E+00  1.00800000E+00
  0.00000000E+00  1.60000000E+01  1.00800000E+00  1.00800000E+00  0.00000000E+00
  1.60000000E+01  1.00800000E+00  1.00800000E+00  0.00000000E+00  1.60000000E+01
  1.00800000E+00  1.00800000E+00  0.00000000E+00  1.60000000E+01  1.00800000E+00
  1.00800000E+00  0.00000000E+00  1.60000000E+01  1.00800000E+00  1.00800000E+00
  0.00000000E+00  1.60000000E+01  1.00800000E+00  1.00800000E+00  0.00000000E+00
  1.60000000E+01  1.00800000E+00  1.00800000E+00  0.00000000E+00  1.60000000E+01
  1.00800000E+00  1.00800000E+00  0.00000000E+00  1.60000000E+01  1.00800000E+00
  1.00800000E+00  0.00000000E+00  1.60000000E+01  1.00800000E+00  1.00800000E+00
  0.00000000E+00  1.60000000E+01  1.00800000E+00  1.00800000E+00  0.00000000E+00
  1.60000000E+01  1.00800000E+00  1.00800000E+00  0.00000000E+00  1.60000000E+01
  1.00800000E+00  1.00800000E+00  0.00000000E+00  1.60000000E+01  1.00800000E+00
  1.00800000E+00  0.00000000E+00  1.60000000E+01  1.00800000E+00  1.00800000E+00
  0.00000000E+00  1.60000000E+01  1.00800000E+00  1.00800000E+00  0.00000000E+00
  1.60000000E+01  1.00800000E+00  1.00800000E+00  0.00000000E+00  1.60000000E+01
  1.00800000E+00  1.00800000E+00  0.00000000E+00  1.60000000E+01  1.00800000E+00
  1.00800000E+00  0.00000000E+00  1.60000000E+01  1.00800000E+00  1.00800000E+00
  0.00000000E+00  1.60000000E+01  1.00800000E+00  1.00800000E+00  0.00000000E+00
  1.60000000E+01  1.00800000E+00  1.00800000E+00  0.00000000E+00  1.60000000E+01
  1.00800000E+00  1.00800000E+00  0.00000000E+00  1.60000000E+01  1.00800000E+00
  1.00800000E+00  0.00000000E+00  1.60000000E+01  1.00800000E+00  1.00800000E+00
  0.00000000E+00  1.60000000E+01  1.00800000E+00  1.00800000E+00  0.00000000E+00
  1.60000000E+01  1.00800000E+00  1.00800000E+00  0.00000000E+00  1.60000000E+01
  1.00800000E+00  1.00800000E+00  0.00000000E+00  1.60000000E+01  1.00800000E+00
  1.00800000E+00  0.00000000E+00  1.60000000E+01  1.00800000E+00  1.00800000E+00
  0.00000000E+00  1.60000000E+01  1.00800000E+00  1.00800000E+00  0.00000000E+00
  1.60000000E+01  1.00800000E+00  1.00800000E+00  0.00000000E+00  1.60000000E+01
  1.00800000E+00  1.00800000E+00  0.00000000E+00  1.60000000E+01  1.00800000E+00
  1.00800000E+00  0.00000000E+00  1.60000000E+01  1.00800000E+00  1.00800000E+00
  0.00000000E+00  1.60000000E+01  1.00800000E+00  1.00800000E+00  0.00000000E+00
  1.60000000E+01  1.00800000E+00  1.00800000E+00  0.00000000E+00  1.60000000E+01
  1.00800000E+00  1.00800000E+00  0.00000000E+00  1.60000000E+01  1.00800000E+00
  1.00800000E+00  0.00000000E+00  1.60000000E+01  1.00800000E+00  1.00800000E+00
  0.00000000E+00  1.60000000E+01  1.00800000E+00  1.00800000E+00  0.00000000E+00
  1.60000000E+01  1.00800000E+00  1.00800000E+00  0.00000000E+00  1.60000000E+01
  1.00800000E+00  1.00800000E+00  0.00000000E+00  1.60000000E+01  1.00800000E+00
  1.00800000E+00  0.00000000E+00  1.60000000E+01  1.00800000E+00  1.00800000E+00
  0.00000000E+00  1.60000000E+01  1.00800000E+00  1.00800000E+00  0.00000000E+00
  1.60000000E+01  1.00800000E+00  1.00800000E+00  0.00000000E+00  1.60000000E+01
  1.00800000E+00  1.00800000E+00  0.00000000E+00  1.60000000E+01  1.00800000E+00
  1.00800000E+00  0.00000000E+00  1.60000000E+01  1.00800000E+00  1.00800000E+00
  0.00000000E+00  1.60000000E+01  1.00800000E+00  1.00800000E+00  0.00000000E+00
  1.60000000E+01  1.00800000E+00  1.00800000E+00  0.00000000E+00  1.60000000E+01
  1.00800000E+00  1.00800000E+00  0.00000000E+00  1.60000000E+01  1.00800000E+00
  1.00800000E+00  0.00000000E+00  1.60000000E+01  1.00800000E+00  1.00800000E+00
  0.00000000E+00  1.60000000E+01  1.00800000E+00  1.00800000E+00  0.00000000E+00
  1.60000000E+01  1.00800000E+00  1.00800000E+00  0.00000000E+00  1.60000000E+01
  1.00800000E+00  1.00800000E+00  0.00000000E+00  1.60000000E+01  1.00800000E+00
  1.00800000E+00  0.00000000E+00  1.60000000E+01  1.00800000E+00  1.00800000E+00
  0.00000000E+00  1.60000000E+01  1.00800000E+00  1.00800000E+00  0.00000000E+00
  1.60000000E+01  1.00800000E+00  1.00800000E+00  0.00000000E+00  1.60000000E+01
  1.00800000E+00  1.00800000E+00  0.00000000E+00  1.60000000E+01  1.00800000E+00
  1.00800000E+00  0.00000000E+00  1.60000000E+01  1.00800000E+00  1.00800000E+00
  0.00000000E+00  1.60000000E+01  1.00800000E+00  1.00800000E+00  0.00000000E+00
  1.60000000E+01  1.00800000E+00  1.00800000E+00  0.00000000E+00  1.60000000E+01
  1.00800000E+00  1.00800000E+00  0.00000000E+00  1.60000000E+01  1.00800000E+00
  1.00800000E+00  0.00000000E+00  1.60000000E+01  1.00800000E+00  1.00800000E+00
  0.00000000E+00  1.60000000E+01  1.00800000E+00  1.00800000E+00  0.00000000E+00
  1.60000000E+01  1.00800000E+00  1.00800000E+00  0.00000000E+00  1.60000000E+01
  1.00800000E+00  1.00800000E+00  0.00000000E+00  1.60000000E+01  1.00800000E+00
  1.00800000E+00  0.00000000E+00  1.60000000E+01  1.00800000E+00  1.00800000E+00
  0.00000000E+00  1.60000000E+01  1.00800000E+00  1.00800000E+00  0.00000000E+00
  1.60000000E+01  1.00800000E+00  1.00800000E+00  0.00000000E+00  1.60000000E+01
  1.00800000E+00  1.00800000E+00  0.00000000E+00  1.60000000E+01  1.00800000E+00
  1.00800000E+00  0.00000000E+00  1.60000000E+01  1.00800000E+00  1.00800000E+00
  0.00000000E+00  1.60000000E+01  1.00800000E+00  1.00800000E+00  0.00000000E+00
  1.60000000E+01  1.00800000E+00  1.00800000E+00  0.00000000E+00  1.60000000E+01
  1.00800000E+00  1.00800000E+00  0.00000000E+00  1.60000000E+01  1.00800000E+00
  1.00800000E+00  0.00000000E+00  1.60000000E+01  1.00800000E+00  1.00800000E+00
  0.00000000E+00  1.60000000E+01  1.00800000E+00  1.00800000E+00  0.00000000E+00
  1.60000000E+01  1.00800000E+00  1.00800000E+00  0.00000000E+00  1.60000000E+01
  1.00800000E+00  1.00800000E+00  0.00000000E+00  1.60000000E+01  1.00800000E+00
  1.00800000E+00  0.00000000E+00  1.60000000E+01  1.00800000E+00  1.00800000E+00
  0.00000000E+00  1.60000000E+01  1.00800000E+00  1.00800000E+00  0.00000000E+00
  1.60000000E+01  1.00800000E+00  1.00800000E+00  0.00000000E+00  1.60000000E+01
  1.00800000E+00  1.00800000E+00  0.00000000E+00  1.60000000E+01  1.00800000E+00
  1.00800000E+00  0.00000000E+00  1.60000000E+01  1.00800000E+00  1.00800000E+00
  0.00000000E+00  1.60000000E+01  1.00800000E+00  1.00800000E+00  0.00000000E+00
  1.60000000E+01  1.00800000E+00  1.00800000E+00  0.00000000E+00  1.60000000E+01
  1.00800000E+00  1.00800000E+00  0.00000000E+00  1.60000000E+01  1.00800000E+00
  1.00800000E+00  0.00000000E+00  1.60000000E+01  1.00800000E+00  1.00800000E+00
  0.00000000E+00  1.60000000E+01  1.00800000E+00  1.00800000E+00  0.00000000E+00
  1.60000000E+01  1.00800000E+00  1.00800000E+00  0.00000000E+00  1.60000000E+01
  1.00800000E+00  1.00800000E+00  0.00000000E+00  1.60000000E+01  1.00800000E+00
  1.00800000E+00  0.00000000E+00  1.60000000E+01  1.00800000E+00  1.00800000E+00
  0.00000000E+00  1.60000000E+01  1.00800000E+00  1.00800000E+00  0.00000000E+00
  1.60000000E+01  1.00800000E+00  1.00800000E+00  0.00000000E+00  1.60000000E+01
  1.00800000E+00  1.00800000E+00  0.00000000E+00  1.60000000E+01  1.00800000E+00
  1.00800000E+00  0.00000000E+00  1.60000000E+01  1.00800000E+00  1.00800000E+00
  0.00000000E+00  1.60000000E+01  1.00800000E+00  1.00800000E+00  0.00000000E+00
  1.60000000E+01  1.00800000E+00  1.00800000E+00  0.00000000E+00  1.60000000E+01
  1.00800000E+00  1.00800000E+00  0.00000000E+00  1.60000000E+01  1.00800000E+00
  1.00800000E+00  0.00000000E+00  1.60000000E+01  1.00800000E+00  1.00800000E+00
  0.00000000E+00  1.60000000E+01  1.00800000E+00  1.00800000E+00  0.00000000E+00
  1.60000000E+01  1.00800000E+00  1.00800000E+00  0.00000000E+00  1.60000000E+01
  1.00800000E+00  1.00800000E+00  0.00000000E+00  1.60000000E+01  1.00800000E+00
  1.00800000E+00  0.00000000E+00  1.60000000E+01  1.00800000E+00  1.00800000E+00
  0.00000000E+00  1.60000000E+01  1.00800000E+00  1.00800000E+00  0.00000000E+00
  1.60000000E+01  1.00800000E+00  1.00800000E+00  0.00000000E+00  1.60000000E+01
  1.00800000E+00  1.00800000E+00  0.00000000E+00  1.60000000E+01  1.00800000E+00
  1.00800000E+00  0.00000000E+00  1.60000000E+01  1.00800000E+00  1.00800000E+00
  0.00000000E+00  1.60000000E+01  1.00800000E+00  1.00800000E+00  0.00000000E+00
  1.60000000E+01  1.00800000E+00  1.00800000E+00  0.00000000E+00  1.60000000E+01
  1.00800000E+00  1.00800000E+00  0.00000000E+00  1.60000000E+01  1.00800000E+00
  1.00800000E+00  0.00000000E+00  1.60000000E+01  1.00800000E+00  1.00800000E+00
  0.00000000E+00  1.60000000E+01  1.00800000E+00  1.00800000E+00  0.00000000E+00
  1.60000000E+01  1.00800000E+00  1.00800000E+00  0.00000000E+00  1.60000000E+01
  1.00800000E+00  1.00800000E+00  0.00000000E+00  1.60000000E+01  1.00800000E+00
  1.00800000E+00  0.00000000E+00  1.60000000E+01  1.00800000E+00  1.00800000E+00
  0.00000000E+00  1.60000000E+01  1.00800000E+00  1.00800000E+00  0.00000000E+00
  1.60000000E+01  1.00800000E+00  1.00800000E+00  0.00000000E+00  1.60000000E+01
  1.00800000E+00  1.00800000E+00  0.00000000E+00  1.60000000E+01  1.00800000E+00
  1.00800000E+00  0.00000000E+00  1.60000000E+01  1.00800000E+00  1.00800000E+00
  0.00000000E+00  1.60000000E+01  1.00800000E+00  1.00800000E+00  0.00000000E+00
  1.60000000E+01  1.00800000E+00  1.00800000E+00  0.00000000E+00  1.60000000E+01
  1.00800000E+00  1.00800000E+00  0.00000000E+00  1.60000000E+01  1.00800000E+00
  1.00800000E+00  0.00000000E+00  1.60000000E+01  1.00800000E+00  1.00800000E+00
  0.00000000E+00  1.60000000E+01  1.00800000E+00  1.00800000E+00  0.00000000E+00
  1.60000000E+01  1.00800000E+00  1.00800000E+00  0.00000000E+00  1.60000000E+01
  1.00800000E+00  1.00800000E+00  0.00000000E+00  1.60000000E+01  1.00800000E+00
  1.00800000E+00  0.00000000E+00  1.60000000E+01  1.00800000E+00  1.00800000E+00
  0.00000000E+00  1.60000000E+01  1.00800000E+00  1.00800000E+00  0.00000000E+00
  1.60000000E+01  1.00800000E+00  1.00800000E+00  0.00000000E+00  1.60000000E+01
  1.00800000E+00  1.00800000E+00  0.00000000E+00  1.60000000E+01  1.00800000E+00
  1.00800000E+00  0.00000000E+00  1.60000000E+01  1.00800000E+00  1.00800000E+00
  0.00000000E+00  1.60000000E+01  1.00800000E+00  1.00800000E+00  0.00000000E+00
  1.60000000E+01  1.00800000E+00  1.00800000E+00  0.00000000E+00  1.60000000E+01
  1.00800000E+00  1.00800000E+00  0.00000000E+00  1.60000000E+01  1.00800000E+00
  1.00800000E+00  0.00000000E+00  1.60000000E+01  1.00800000E+00  1.00800000E+00
  0.00000000E+00  1.60000000E+01  1.00800000E+00  1.00800000E+00  0.00000000E+00
  1.60000000E+01  1.00800000E+00  1.00800000E+00  0.00000000E+00  1.60000000E+01
  1.00800000E+00  1.00800000E+00  0.00000000E+00  1.60000000E+01  1.00800000E+00
  1.00800000E+00  0.00000000E+00  1.60000000E+01  1.00800000E+00  1.00800000E+00
  0.00000000E+00  1.60000000E+01  1.00800000E+00  1.00800000E+00  0.00000000E+00
  1.60000000E+01  1.00800000E+00  1.00800000E+00  0.00000000E+00  1.60000000E+01
  1.00800000E+00  1.00800000E+00  0.00000000E+00  1.60000000E+01  1.00800000E+00
  1.00800000E+00  0.00000000E+00  1.60000000E+01  1.00800000E+00  1.00800000E+00
  0.00000000E+00  1.60000000E+01  1.00800000E+00  1.00800000E+00  0.00000000E+00
  1.60000000E+01  1.00800000E+00  1.00800000E+00  0.00000000E+00  1.60000000E+01
  1.00800000E+00  1.00800000E+00  0.00000000E+00  1.60000000E+01  1.00800000E+00
  1.00800000E+00  0.00000000E+00  1.60000000E+01  1.00800000E+00  1.00800000E+00
  0.00000000E+00  1.60000000E+01  1.00800000E+00  1.00800000E+00  0.00000000E+00
  1.60000000E+01  1.00800000E+00  1.00800000E+00  0.00000000E+00  1.60000000E+01
  1.00800000E+00  1.00800000E+00  0.00000000E+00  1.60000000E+01  1.00800000E+00
  1.00800000E+00  0.00000000E+00  1.60000000E+01  1.00800000E+00  1.00800000E+00
  0.00000000E+00  1.60000000E+01  1.00800000E+00  1.00800000E+00  0.00000000E+00
  1.60000000E+01  1.00800000E+00  1.00800000E+00  0.00000000E+00  1.60000000E+01
  1.00800000E+00  1.00800000E+00  0.00000000E+00  1.60000000E+01  1.00800000E+00
  1.00800000E+00  0.00000000E+00  1.60000000E+01  1.00800000E+00  1.00800000E+00
  0.00000000E+00  1.60000000E+01  1.00800000E+00  1.00800000E+00  0.00000000E+00
  1.60000000E+01  1.00800000E+00  1.00800000E+00  0.00000000E+00  1.60000000E+01
  1.00800000E+00  1.00800000E+00  0.00000000E+00  1.60000000E+01  1.00800000E+00
  1.00800000E+00  0.00000000E+00  1.60000000E+01  1.00800000E+00  1.00800000E+00
  0.00000000E+00  1.60000000E+01  1.00800000E+00  1.00800000E+00  0.00000000E+00
  1.60000000E+01  1.00800000E+00  1.00800000E+00  0.00000000E+00  1.60000000E+01
  1.00800000E+00  1.00800000E+00  0.00000000E+00  1.60000000E+01  1.00800000E+00
  1.00800000E+00  0.00000000E+00  1.60000000E+01  1.00800000E+00  1.00800000E+00
  0.00000000E+00  1.60000000E+01  1.00800000E+00  1.00800000E+00  0.00000000E+00
  1.60000000E+01  1.00800000E+00  1.00800000E+00  0.00000000E+00  1.60000000E+01
  1.00800000E+00  1.00800000E+00  0.00000000E+00  1.60000000E+01  1.00800000E+00
  1.00800000E+00  0.00000000E+00  1.60000000E+01  1.00800000E+00  1.00800000E+00
  0.00000000E+00  1.60000000E+01  1.00800000E+00  1.00800000E+00  0.00000000E+00
  1.60000000E+01  1.00800000E+00  1.00800000E+00  0.00000000E+00  1.60000000E+01
  1.00800000E+00  1.00800000E+00  0.00000000E+00  1.60000000E+01  1.00800000E+00
  1.00800000E+00  0.00000000E+00  1.60000000E+01  1.00800000E+00  1.00800000E+00
  0.00000000E+00  1.60000000E+01  1.00800000E+00  1.00800000E+00  0.00000000E+00
  1.60000000E+01  1.00800000E+00  1.00800000E+00  0.00000000E+00  1.60000000E+01
  1.00800000E+00  1.00800000E+00  0.00000000E+00  1.60000000E+01  1.00800000E+00
  1.00800000E+00  0.00000000E+00  1.60000000E+01  1.00800000E+00  1.00800000E+00
  0.00000000E+00  1.60000000E+01  1.00800000E+00  1.00800000E+00  0.00000000E+00
  1.60000000E+01  1.00800000E+00  1.00800000E+00  0.00000000E+00  1.60000000E+01
  1.00800000E+00  1.00800000E+00  0.00000000E+00  1.60000000E+01  1.00800000E+00
  1.00800000E+00  0.00000000E+00  1.60000000E+01  1.00800000E+00  1.00800000E+00
  0.00000000E+00  1.60000000E+01  1.00800000E+00  1.00800000E+00  0.00000000E+00
  1.60000000E+01  1.00800000E+00  1.00800000E+00  0.00000000E+00  1.60000000E+01
  1.00800000E+00  1.00800000E+00  0.00000000E+00  1.60000000E+01  1.00800000E+00
  1.00800000E+00  0.00000000E+00  1.60000000E+01  1.00800000E+00  1.00800000E+00
  0.00000000E+00  1.60000000E+01  1.00800000E+00  1.00800000E+00  0.00000000E+00
  1.60000000E+01  1.00800000E+00  1.00800000E+00  0.00000000E+00  1.60000000E+01
  1.00800000E+00  1.00800000E+00  0.00000000E+00  1.60000000E+01  1.00800000E+00
  1.00800000E+00  0.00000000E+00  1.60000000E+01  1.00800000E+00  1.00800000E+00
  0.00000000E+00  1.60000000E+01  1.00800000E+00  1.00800000E+00  0.00000000E+00
  1.60000000E+01  1.00800000E+00  1.00800000E+00  0.00000000E+00  1.60000000E+01
  1.00800000E+00  1.00800000E+00  0.00000000E+00  1.60000000E+01  1.00800000E+00
  1.00800000E+00  0.00000000E+00  1.60000000E+01  1.00800000E+00  1.00800000E+00
  0.00000000E+00  1.60000000E+01  1.00800000E+00  1.00800000E+00  0.00000000E+00
  1.60000000E+01  1.00800000E+00  1.00800000E+00  0.00000000E+00  1.60000000E+01
  1.00800000E+00  1.00800000E+00  0.00000000E+00  1.60000000E+01  1.00800000E+00
  1.00800000E+00  0.00000000E+00  1.60000000E+01  1.00800000E+00  1.00800000E+00
  0.00000000E+00  1.60000000E+01  1.00800000E+00  1.00800000E+00  0.00000000E+00
  1.60000000E+01  1.00800000E+00  1.00800000E+00  0.00000000E+00  1.60000000E+01
  1.00800000E+00  1.00800000E+00  0.00000000E+00  1.60000000E+01  1.00800000E+00
  1.00800000E+00  0.00000000E+00  1.60000000E+01  1.00800000E+00  1.00800000E+00
  0.00000000E+00  1.60000000E+01  1.00800000E+00  1.00800000E+00  0.00000000E+00
  1.60000000E+01  1.00800000E+00  1.00800000E+00  0.00000000E+00  1.60000000E+01
  1.00800000E+00  1.00800000E+00  0.00000000E+00  1.60000000E+01  1.00800000E+00
  1.00800000E+00  0.00000000E+00  1.60000000E+01  1.00800000E+00  1.00800000E+00
  0.00000000E+00  1.60000000E+01  1.00800000E+00  1.00800000E+00  0.00000000E+00
  1.60000000E+01  1.00800000E+00  1.00800000E+00  0.00000000E+00  1.60000000E+01
  1.00800000E+00  1.00800000E+00  0.00000000E+00  1.60000000E+01  1.00800000E+00
  1.00800000E+00  0.00000000E+00  1.60000000E+01  1.00800000E+00  1.00800000E+00
  0.00000000E+00  1.60000000E+01  1.00800000E+00  1.00800000E+00  0.00000000E+00
  1.60000000E+01  1.00800000E+00  1.00800000E+00  0.00000000E+00  1.60000000E+01
  1.00800000E+00  1.00800000E+00  0.00000000E+00  1.60000000E+01  1.00800000E+00
  1.00800000E+00  0.00000000E+00  1.60000000E+01  1.00800000E+00  1.00800000E+00
  0.00000000E+00  1.60000000E+01  1.00800000E+00  1.00800000E+00  0.00000000E+00
  1.60000000E+01  1.00800000E+00  1.00800000E+00  0.00000000E+00  1.60000000E+01
  1.00800000E+00  1.00800000E+00  0.00000000E+00  1.60000000E+01  1.00800000E+00
  1.00800000E+00  0.00000000E+00  1.60000000E+01  1.00800000E+00  1.00800000E+00
  0.00000000E+00  1.60000000E+01  1.00800000E+00  1.00800000E+00  0.00000000E+00
  1.60000000E+01  1.00800000E+00  1.00800000E+00  0.00000000E+00  1.60000000E+01
  1.00800000E+00  1.00800000E+00  0.00000000E+00  1.60000000E+01  1.00800000E+00
  1.00800000E+00  0.00000000E+00  1.60000000E+01  1.00800000E+00  1.00800000E+00
  0.00000000E+00  1.60000000E+01  1.00800000E+00  1.00800000E+00  0.00000000E+00
  1.60000000E+01  1.00800000E+00  1.00800000E+00  0.00000000E+00  1.60000000E+01
  1.00800000E+00  1.00800000E+00  0.00000000E+00  1.60000000E+01  1.00800000E+00
  1.00800000E+00  0.00000000E+00  1.60000000E+01  1.00800000E+00  1.00800000E+00
  0.00000000E+00  1.60000000E+01  1.00800000E+00  1.00800000E+00  0.00000000E+00
  1.60000000E+01  1.00800000E+00  1.00800000E+00  0.00000000E+00  1.60000000E+01
  1.00800000E+00  1.00800000E+00  0.00000000E+00  1.60000000E+01  1.00800000E+00
  1.00800000E+00  0.00000000E+00  1.60000000E+01  1.00800000E+00  1.00800000E+00
  0.00000000E+00  1.60000000E+01  1.00800000E+00  1.00800000E+00  0.00000000E+00
  1.60000000E+01  1.00800000E+00  1.00800000E+00  0.00000000E+00  1.60000000E+01
  1.00800000E+00  1.00800000E+00  0.00000000E+00  1.60000000E+01  1.00800000E+00
  1.00800000E+00  0.00000000E+00  1.60000000E+01  1.00800000E+00  1.00800000E+00
  0.00000000E+00  1.60000000E+01  1.00800000E+00  1.00800000E+00  0.00000000E+00
  1.60000000E+01  1.00800000E+00  1.00800000E+00  0.00000000E+00  1.60000000E+01
  1.00800000E+00  1.00800000E+00  0.00000000E+00  1.60000000E+01  1.00800000E+00
  1.00800000E+00  0.00000000E+00  1.60000000E+01  1.00800000E+00  1.00800000E+00
  0.00000000E+00  1.60000000E+01  1.00800000E+00  1.00800000E+00  0.00000000E+00
  1.60000000E+01  1.00800000E+00  1.00800000E+00  0.00000000E+00  1.60000000E+01
  1.00800000E+00  1.00800000E+00  0.00000000E+00  1.60000000E+01  1.00800000E+00
  1.00800000E+00  0.00000000E+00  1.60000000E+01  1.00800000E+00  1.00800000E+00
  0.00000000E+00  1.60000000E+01  1.00800000E+00  1.00800000E+00  0.00000000E+00
  1.60000000E+01  1.00800000E+00  1.00800000E+00  0.00000000E+00  1.60000000E+01
  1.00800000E+00  1.00800000E+00  0.00000000E+00  1.60000000E+01  1.00800000E+00
  1.00800000E+00  0.00000000E+00  1.60000000E+01  1.00800000E+00  1.00800000E+00
  0.00000000E+00  1.60000000E+01  1.00800000E+00  1.00800000E+00  0.00000000E+00
  1.60000000E+01  1.00800000E+00  1.00800000E+00  0.00000000E+00  1.60000000E+01
  1.00800000E+00  1.00800000E+00  0.00000000E+00  1.60000000E+01  1.00800000E+00
  1.00800000E+00  0.00000000E+00  1.60000000E+01  1.00800000E+00  1.00800000E+00
  0.00000000E+00  1.60000000E+01  1.00800000E+00  1.00800000E+00  0.00000000E+00
  1.60000000E+01  1.00800000E+00  1.00800000E+00  0.00000000E+00  1.60000000E+01
  1.00800000E+00  1.00800000E+00  0.00000000E+00  1.60000000E+01  1.00800000E+00
  1.00800000E+00  0.00000000E+00  1.60000000E+01  1.00800000E+00  1.00800000E+00
  0.00000000E+00  1.60000000E+01  1.00800000E+00  1.00800000E+00  0.00000000E+00
  1.60000000E+01  1.00800000E+00  1.00800000E+00  0.00000000E+00  1.60000000E+01
  1.00800000E+00  1.00800000E+00  0.00000000E+00  1.60000000E+01  1.00800000E+00
  1.00800000E+00  0.00000000E+00  1.60000000E+01  1.00800000E+00  1.00800000E+00
  0.00000000E+00  1.60000000E+01  1.00800000E+00  1.00800000E+00  0.00000000E+00
  1.60000000E+01  1.00800000E+00  1.00800000E+00  0.00000000E+00  1.60000000E+01
  1.00800000E+00  1.00800000E+00  0.00000000E+00  1.60000000E+01  1.00800000E+00
  1.00800000E+00  0.00000000E+00  1.60000000E+01  1.00800000E+00  1.00800000E+00
  0.00000000E+00  1.60000000E+01  1.00800000E+00  1.00800000E+00  0.00000000E+00
  1.60000000E+01  1.00800000E+00  1.00800000E+00  0.00000000E+00  1.60000000E+01
  1.00800000E+00  1.00800000E+00  0.00000000E+00  1.60000000E+01  1.00800000E+00
  1.00800000E+00  0.00000000E+00  1.60000000E+01  1.00800000E+00  1.00800000E+00
  0.00000000E+00  1.60000000E+01  1.00800000E+00  1.00800000E+00  0.00000000E+00
  1.60000000E+01  1.00800000E+00  1.00800000E+00  0.00000000E+00  1.60000000E+01
  1.00800000E+00  1.00800000E+00  0.00000000E+00  1.60000000E+01  1.00800000E+00
  1.00800000E+00  0.00000000E+00  1.60000000E+01  1.00800000E+00  1.00800000E+00
  0.00000000E+00  1.60000000E+01  1.00800000E+00  1.00800000E+00  0.00000000E+00
  1.60000000E+01  1.00800000E+00  1.00800000E+00  0.00000000E+00  1.60000000E+01
  1.00800000E+00  1.00800000E+00  0.00000000E+00  1.60000000E+01  1.00800000E+00
  1.00800000E+00  0.00000000E+00  1.60000000E+01  1.00800000E+00  1.00800000E+00
  0.00000000E+00  1.60000000E+01  1.00800000E+00  1.00800000E+00  0.00000000E+00
  1.60000000E+01  1.00800000E+00  1.00800000E+00  0.00000000E+00  1.60000000E+01
  1.00800000E+00  1.00800000E+00  0.00000000E+00  1.60000000E+01  1.00800000E+00
  1.00800000E+00  0.00000000E+00  1.60000000E+01  1.00800000E+00  1.00800000E+00
  0.00000000E+00  1.60000000E+01  1.00800000E+00  1.00800000E+00  0.00000000E+00
  1.60000000E+01  1.00800000E+00  1.00800000E+00  0.00000000E+00  1.60000000E+01
  1.00800000E+00  1.00800000E+00  0.00000000E+00  1.60000000E+01  1.00800000E+00
  1.00800000E+00  0.00000000E+00  1.60000000E+01  1.00800000E+00  1.00800000E+00
  0.00000000E+00  1.60000000E+01  1.00800000E+00  1.00800000E+00  0.00000000E+00
  1.60000000E+01  1.00800000E+00  1.00800000E+00  0.00000000E+00  1.60000000E+01
  1.00800000E+00  1.00800000E+00  0.00000000E+00  1.60000000E+01  1.00800000E+00
  1.00800000E+00  0.00000000E+00  1.60000000E+01  1.00800000E+00  1.00800000E+00
  0.00000000E+00  1.60000000E+01  1.00800000E+00  1.00800000E+00  0.00000000E+00
  1.60000000E+01  1.00800000E+00  1.00800000E+00  0.00000000E+00  1.60000000E+01
  1.00800000E+00  1.00800000E+00  0.00000000E+00  1.60000000E+01  1.00800000E+00
  1.00800000E+00  0.00000000E+00  1.60000000E+01  1.00800000E+00  1.00800000E+00
  0.00000000E+00  1.60000000E+01  1.00800000E+00  1.00800000E+00  0.00000000E+00
  1.60000000E+01  1.00800000E+00  1.00800000E+00  0.00000000E+00  1.60000000E+01
  1.00800000E+00  1.00800000E+00  0.00000000E+00  1.60000000E+01  1.00800000E+00
  1.00800000E+00  0.00000000E+00  1.60000000E+01  1.00800000E+00  1.00800000E+00
  0.00000000E+00  1.60000000E+01  1.00800000E+00  1.00800000E+00  0.00000000E+00
  1.60000000E+01  1.00800000E+00  1.00800000E+00  0.00000000E+00  1.60000000E+01
  1.00800000E+00  1.00800000E+00  0.00000000E+00  1.60000000E+01  1.00800000E+00
  1.00800000E+00  0.00000000E+00  1.60000000E+01  1.00800000E+00  1.00800000E+00
  0.00000000E+00  1.60000000E+01  1.00800000E+00  1.00800000E+00  0.00000000E+00
  1.60000000E+01  1.00800000E+00  1.00800000E+00  0.00000000E+00  1.60000000E+01
  1.00800000E+00  1.00800000E+00  0.00000000E+00  1.60000000E+01  1.00800000E+00
  1.00800000E+00  0.00000000E+00  1.60000000E+01  1.00800000E+00  1.00800000E+00
  0.00000000E+00  1.60000000E+01  1.00800000E+00  1.00800000E+00  0.00000000E+00
  1.60000000E+01  1.00800000E+00  1.00800000E+00  0.00000000E+00  1.60000000E+01
  1.00800000E+00  1.00800000E+00  0.00000000E+00  1.60000000E+01  1.00800000E+00
  1.00800000E+00  0.00000000E+00  1.60000000E+01  1.00800000E+00  1.00800000E+00
  0.00000000E+00  1.60000000E+01  1.00800000E+00  1.00800000E+00  0.00000000E+00
  1.60000000E+01  1.00800000E+00  1.00800000E+00  0.00000000E+00  1.60000000E+01
  1.00800000E+00  1.00800000E+00  0.00000000E+00  1.60000000E+01  1.00800000E+00
  1.00800000E+00  0.00000000E+00  1.60000000E+01  1.00800000E+00  1.00800000E+00
  0.00000000E+00  1.60000000E+01  1.00800000E+00  1.00800000E+00  0.00000000E+00
  1.60000000E+01  1.00800000E+00  1.00800000E+00  0.00000000E+00  1.60000000E+01
  1.00800000E+00  1.00800000E+00  0.00000000E+00  1.60000000E+01  1.00800000E+00
  1.00800000E+00  0.00000000E+00  1.60000000E+01  1.00800000E+00  1.00800000E+00
  0.00000000E+00  1.60000000E+01  1.00800000E+00  1.00800000E+00  0.00000000E+00
  1.60000000E+01  1.00800000E+00  1.00800000E+00  0.00000000E+00  1.60000000E+01
  1.00800000E+00  1.00800000E+00  0.00000000E+00  1.60000000E+01  1.00800000E+00
  1.00800000E+00  0.00000000E+00  1.60000000E+01  1.00800000E+00  1.00800000E+00
  0.00000000E+00  1.60000000E+01  1.00800000E+00  1.00800000E+00  0.00000000E+00
  1.60000000E+01  1.00800000E+00  1.00800000E+00  0.00000000E+00  1.60000000E+01
  1.00800000E+00  1.00800000E+00  0.00000000E+00  1.60000000E+01  1.00800000E+00
  1.00800000E+00  0.00000000E+00  1.60000000E+01  1.00800000E+00  1.00800000E+00
  0.00000000E+00  1.60000000E+01  1.00800000E+00  1.00800000E+00  0.00000000E+00
  1.60000000E+01  1.00800000E+00  1.00800000E+00  0.00000000E+00  1.60000000E+01
  1.00800000E+00  1.00800000E+00  0.00000000E+00  1.60000000E+01  1.00800000E+00
  1.00800000E+00  0.00000000E+00  1.60000000E+01  1.00800000E+00  1.00800000E+00
  0.00000000E+00  1.60000000E+01  1.00800000E+00  1.00800000E+00  0.00000000E+00
  1.60000000E+01  1.00800000E+00  1.00800000E+00  0.00000000E+00  1.60000000E+01
  1.00800000E+00  1.00800000E+00  0.00000000E+00  1.60000000E+01  1.00800000E+00
  1.00800000E+00  0.00000000E+00  1.60000000E+01  1.00800000E+00  1.00800000E+00
  0.00000000E+00  1.60000000E+01  1.00800000E+00  1.00800000E+00  0.00000000E+00
  1.60000000E+01  1.00800000E+00  1.00800000E+00  0.00000000E+00  1.60000000E+01
  1.00800000E+00  1.00800000E+00  0.00000000E+00  1.60000000E+01  1.00800000E+00
  1.00800000E+00  0.00000000E+00  1.60000000E+01  1.00800000E+00  1.00800000E+00
  0.00000000E+00  1.60000000E+01  1.00800000E+00  1.00800000E+00  0.00000000E+00
  1.60000000E+01  1.00800000E+00  1.00800000E+00  0.00000000E+00  1.60000000E+01
  1.00800000E+00  1.00800000E+00  0.00000000E+00  1.60000000E+01  1.00800000E+00
  1.00800000E+00  0.00000000E+00  1.60000000E+01  1.00800000E+00  1.00800000E+00
  0.00000000E+00  1.60000000E+01  1.00800000E+00  1.00800000E+00  0.00000000E+00
  1.60000000E+01  1.00800000E+00  1.00800000E+00  0.00000000E+00  1.60000000E+01
  1.00800000E+00  1.00800000E+00  0.00000000E+00  1.60000000E+01  1.00800000E+00
  1.00800000E+00  0.00000000E+00  1.60000000E+01  1.00800000E+00  1.00800000E+00
  0.00000000E+00  1.60000000E+01  1.00800000E+00  1.00800000E+00  0.00000000E+00
  1.60000000E+01  1.00800000E+00  1.00800000E+00  0.00000000E+00  1.60000000E+01
  1.00800000E+00  1.00800000E+00  0.00000000E+00  1.60000000E+01  1.00800000E+00
  1.00800000E+00  0.00000000E+00  1.60000000E+01  1.00800000E+00  1.00800000E+00
  0.00000000E+00  1.60000000E+01  1.00800000E+00  1.00800000E+00  0.00000000E+00
  1.60000000E+01  1.00800000E+00  1.00800000E+00  0.00000000E+00  1.60000000E+01
  1.00800000E+00  1.00800000E+00  0.00000000E+00  1.60000000E+01  1.00800000E+00
  1.00800000E+00  0.00000000E+00  1.60000000E+01  1.00800000E+00  1.00800000E+00
  0.00000000E+00  1.60000000E+01  1.00800000E+00  1.00800000E+00  0.00000000E+00
  1.60000000E+01  1.00800000E+00  1.00800000E+00  0.00000000E+00  1.60000000E+01
  1.00800000E+00  1.00800000E+00  0.00000000E+00  1.60000000E+01  1.00800000E+00
  1.00800000E+00  0.00000000E+00  1.60000000E+01  1.00800000E+00  1.00800000E+00
  0.00000000E+00  1.60000000E+01  1.00800000E+00  1.00800000E+00  0.00000000E+00
  1.60000000E+01  1.00800000E+00  1.00800000E+00  0.00000000E+00  1.60000000E+01
  1.00800000E+00  1.00800000E+00  0.00000000E+00  1.60000000E+01  1.00800000E+00
  1.00800000E+00  0.00000000E+00  1.60000000E+01  1.00800000E+00  1.00800000E+00
  0.00000000E+00  1.60000000E+01  1.00800000E+00  1.00800000E+00  0.00000000E+00
  1.60000000E+01  1.00800000E+00  1.00800000E+00  0.00000000E+00  1.60000000E+01
  1.00800000E+00  1.00800000E+00  0.00000000E+00  1.60000000E+01  1.00800000E+00
  1.00800000E+00  0.00000000E+00  1.60000000E+01  1.00800000E+00  1.00800000E+00
  0.00000000E+00  1.60000000E+01  1.00800000E+00  1.00800000E+00  0.00000000E+00
  1.60000000E+01  1.00800000E+00  1.00800000E+00  0.00000000E+00  1.60000000E+01
  1.00800000E+00  1.00800000E+00  0.00000000E+00  1.60000000E+01  1.00800000E+00
  1.00800000E+00  0.00000000E+00  1.60000000E+01  1.00800000E+00  1.00800000E+00
  0.00000000E+00  1.60000000E+01  1.00800000E+00  1.00800000E+00  0.00000000E+00
  1.60000000E+01  1.00800000E+00  1.00800000E+00  0.00000000E+00  1.60000000E+01
  1.00800000E+00  1.00800000E+00  0.00000000E+00  1.60000000E+01  1.00800000E+00
  1.00800000E+00  0.00000000E+00  1.60000000E+01  1.00800000E+00  1.00800000E+00
  0.00000000E+00  1.60000000E+01  1.00800000E+00  1.00800000E+00  0.00000000E+00
  1.60000000E+01  1.00800000E+00  1.00800000E+00  0.00000000E+00  1.60000000E+01
  1.00800000E+00  1.00800000E+00  0.00000000E+00  1.60000000E+01  1.00800000E+00
  1.00800000E+00  0.00000000E+00  1.60000000E+01  1.00800000E+00  1.00800000E+00
  0.00000000E+00  1.60000000E+01  1.00800000E+00  1.00800000E+00  0.00000000E+00
  1.60000000E+01  1.00800000E+00  1.00800000E+00  0.00000000E+00  1.60000000E+01
  1.00800000E+00  1.00800000E+00  0.00000000E+00  1.60000000E+01  1.00800000E+00
  1.00800000E+00  0.00000000E+00  1.60000000E+01  1.00800000E+00  1.00800000E+00
  0.00000000E+00  1.60000000E+01  1.00800000E+00  1.00800000E+00  0.00000000E+00
  1.60000000E+01  1.00800000E+00  1.00800000E+00  0.00000000E+00  1.60000000E+01
  1.00800000E+00  1.00800000E+00  0.00000000E+00  1.60000000E+01  1.00800000E+00
  1.00800000E+00  0.00000000E+00  1.60000000E+01  1.00800000E+00  1.00800000E+00
  0.00000000E+00  1.60000000E+01  1.00800000E+00  1.00800000E+00  0.00000000E+00
  1.60000000E+01  1.00800000E+00  1.00800000E+00  0.00000000E+00  1.60000000E+01
  1.00800000E+00  1.00800000E+00  0.00000000E+00  1.60000000E+01  1.00800000E+00
  1.00800000E+00  0.00000000E+00  1.60000000E+01  1.00800000E+00  1.00800000E+00
  0.00000000E+00  1.60000000E+01  1.00800000E+00  1.00800000E+00  0.00000000E+00
  1.60000000E+01  1.00800000E+00  1.00800000E+00  0.00000000E+00  1.60000000E+01
  1.00800000E+00  1.00800000E+00  0.00000000E+00  1.60000000E+01  1.00800000E+00
  1.00800000E+00  0.00000000E+00  1.60000000E+01  1.00800000E+00  1.00800000E+00
  0.00000000E+00  1.60000000E+01  1.00800000E+00  1.00800000E+00  0.00000000E+00
  1.60000000E+01  1.00800000E+00  1.00800000E+00  0.00000000E+00  1.60000000E+01
  1.00800000E+00  1.00800000E+00  0.00000000E+00  1.60000000E+01  1.00800000E+00
  1.00800000E+00  0.00000000E+00  1.60000000E+01  1.00800000E+00  1.00800000E+00
  0.00000000E+00  1.60000000E+01  1.00800000E+00  1.00800000E+00  0.00000000E+00
  1.60000000E+01  1.00800000E+00  1.00800000E+00  0.00000000E+00  1.60000000E+01
  1.00800000E+00  1.00800000E+00  0.00000000E+00  1.60000000E+01  1.00800000E+00
  1.00800000E+00  0.00000000E+00  1.60000000E+01  1.00800000E+00  1.00800000E+00
  0.00000000E+00  1.60000000E+01  1.00800000E+00  1.00800000E+00  0.00000000E+00
  1.60000000E+01  1.00800000E+00  1.00800000E+00  0.00000000E+00  1.60000000E+01
  1.00800000E+00  1.00800000E+00  0.00000000E+00  1.60000000E+01  1.00800000E+00
  1.00800000E+00  0.00000000E+00  1.60000000E+01  1.00800000E+00  1.00800000E+00
  0.00000000E+00  1.60000000E+01  1.00800000E+00  1.00800000E+00  0.00000000E+00
  1.60000000E+01  1.00800000E+00  1.00800000E+00  0.00000000E+00  1.60000000E+01
  1.00800000E+00  1.00800000E+00  0.00000000E+00  1.60000000E+01  1.00800000E+00
  1.00800000E+00  0.00000000E+00  1.60000000E+01  1.00800000E+00  1.00800000E+00
  0.00000000E+00  1.60000000E+01  1.00800000E+00  1.00800000E+00  0.00000000E+00
  1.60000000E+01  1.00800000E+00  1.00800000E+00  0.00000000E+00  1.60000000E+01
  1.00800000E+00  1.00800000E+00  0.00000000E+00  1.60000000E+01  1.00800000E+00
  1.00800000E+00  0.00000000E+00  1.60000000E+01  1.00800000E+00  1.00800000E+00
  0.00000000E+00  1.60000000E+01  1.00800000E+00  1.00800000E+00  0.00000000E+00
  1.60000000E+01  1.00800000E+00  1.00800000E+00  0.00000000E+00  1.60000000E+01
  1.00800000E+00  1.00800000E+00  0.00000000E+00  1.60000000E+01  1.00800000E+00
  1.00800000E+00  0.00000000E+00  1.60000000E+01  1.00800000E+00  1.00800000E+00
  0.00000000E+00  1.60000000E+01  1.00800000E+00  1.00800000E+00  0.00000000E+00
  1.60000000E+01  1.00800000E+00  1.00800000E+00  0.00000000E+00  1.60000000E+01
  1.00800000E+00  1.00800000E+00  0.00000000E+00  1.60000000E+01  1.00800000E+00
  1.00800000E+00  0.00000000E+00  1.60000000E+01  1.00800000E+00  1.00800000E+00
  0.00000000E+00  1.60000000E+01  1.00800000E+00  1.00800000E+00  0.00000000E+00
  1.60000000E+01  1.00800000E+00  1.00800000E+00  0.00000000E+00  1.60000000E+01
  1.00800000E+00  1.00800000E+00  0.00000000E+00  1.60000000E+01  1.00800000E+00
  1.00800000E+00  0.00000000E+00  1.60000000E+01  1.00800000E+00  1.00800000E+00
  0.00000000E+00  1.60000000E+01  1.00800000E+00  1.00800000E+00  0.00000000E+00
  1.60000000E+01  1.00800000E+00  1.00800000E+00  0.00000000E+00  1.60000000E+01
  1.00800000E+00  1.00800000E+00  0.00000000E+00  1.60000000E+01  1.00800000E+00
  1.00800000E+00  0.00000000E+00  1.60000000E+01  1.00800000E+00  1.00800000E+00
  0.00000000E+00  1.60000000E+01  1.00800000E+00  1.00800000E+00  0.00000000E+00
  1.60000000E+01  1.00800000E+00  1.00800000E+00  0.00000000E+00  1.60000000E+01
  1.00800000E+00  1.00800000E+00  0.00000000E+00  1.60000000E+01  1.00800000E+00
  1.00800000E+00  0.00000000E+00  1.60000000E+01  1.00800000E+00  1.00800000E+00
  0.00000000E+00  1.60000000E+01  1.00800000E+00  1.00800000E+00  0.00000000E+00
  1.60000000E+01  1.00800000E+00  1.00800000E+00  0.00000000E+00  1.60000000E+01
  1.00800000E+00  1.00800000E+00  0.00000000E+00  1.60000000E+01  1.00800000E+00
  1.00800000E+00  0.00000000E+00  1.60000000E+01  1.00800000E+00  1.00800000E+00
  0.00000000E+00  1.60000000E+01  1.00800000E+00  1.00800000E+00  0.00000000E+00
  1.60000000E+01  1.00800000E+00  1.00800000E+00  0.00000000E+00  1.60000000E+01
  1.00800000E+00  1.00800000E+00  0.00000000E+00  1.60000000E+01  1.00800000E+00
  1.00800000E+00  0.00000000E+00  1.60000000E+01  1.00800000E+00  1.00800000E+00
  0.00000000E+00  1.60000000E+01  1.00800000E+00  1.00800000E+00  0.00000000E+00
  1.60000000E+01  1.00800000E+00  1.00800000E+00  0.00000000E+00  1.60000000E+01
  1.00800000E+00  1.00800000E+00  0.00000000E+00  1.60000000E+01  1.00800000E+00
  1.00800000E+00  0.00000000E+00  1.60000000E+01  1.00800000E+00  1.00800000E+00
  0.00000000E+00  1.60000000E+01  1.00800000E+00  1.00800000E+00  0.00000000E+00
  1.60000000E+01  1.00800000E+00  1.00800000E+00  0.00000000E+00  1.60000000E+01
  1.00800000E+00  1.00800000E+00  0.00000000E+00  1.60000000E+01  1.00800000E+00
  1.00800000E+00  0.00000000E+00  1.60000000E+01  1.00800000E+00  1.00800000E+00
  0.00000000E+00  1.60000000E+01  1.00800000E+00  1.00800000E+00  0.00000000E+00
  1.60000000E+01  1.00800000E+00  1.00800000E+00  0.00000000E+00  1.60000000E+01
  1.00800000E+00  1.00800000E+00  0.00000000E+00  1.60000000E+01  1.00800000E+00
  1.00800000E+00  0.00000000E+00  1.60000000E+01  1.00800000E+00  1.00800000E+00
  0.00000000E+00  1.60000000E+01  1.00800000E+00  1.00800000E+00  0.00000000E+00
  1.60000000E+01  1.00800000E+00  1.00800000E+00  0.00000000E+00  1.60000000E+01
  1.00800000E+00  1.00800000E+00  0.00000000E+00  1.60000000E+01  1.00800000E+00
  1.00800000E+00  0.00000000E+00  1.60000000E+01  1.00800000E+00  1.00800000E+00
  0.00000000E+00  1.60000000E+01  1.00800000E+00  1.00800000E+00  0.00000000E+00
  1.60000000E+01  1.00800000E+00  1.00800000E+00  0.00000000E+00  1.60000000E+01
  1.00800000E+00  1.00800000E+00  0.00000000E+00  1.60000000E+01  1.00800000E+00
  1.00800000E+00  0.00000000E+00  1.60000000E+01  1.00800000E+00  1.00800000E+00
  0.00000000E+00  1.60000000E+01  1.00800000E+00  1.00800000E+00  0.00000000E+00
  1.60000000E+01  1.00800000E+00  1.00800000E+00  0.00000000E+00  1.60000000E+01
  1.00800000E+00  1.00800000E+00  0.00000000E+00  1.60000000E+01  1.00800000E+00
  1.00800000E+00  0.00000000E+00  1.60000000E+01  1.00800000E+00  1.00800000E+00
  0.00000000E+00  1.60000000E+01  1.00800000E+00  1.00800000E+00  0.00000000E+00
  1.60000000E+01  1.00800000E+00  1.00800000E+00  0.00000000E+00  1.60000000E+01
  1.00800000E+00  1.00800000E+00  0.00000000E+00  1.60000000E+01  1.00800000E+00
  1.00800000E+00  0.00000000E+00  1.60000000E+01  1.00800000E+00  1.00800000E+00
  0.00000000E+00  1.60000000E+01  1.00800000E+00  1.00800000E+00  0.00000000E+00
  1.60000000E+01  1.00800000E+00  1.00800000E+00  0.00000000E+00  1.60000000E+01
  1.00800000E+00  1.00800000E+00  0.00000000E+00  1.60000000E+01  1.00800000E+00
  1.00800000E+00  0.00000000E+00  1.60000000E+01  1.00800000E+00  1.00800000E+00
  0.00000000E+00  1.60000000E+01  1.00800000E+00  1.00800000E+00  0.00000000E+00
  1.60000000E+01  1.00800000E+00  1.00800000E+00  0.00000000E+00  1.60000000E+01
  1.00800000E+00  1.00800000E+00  0.00000000E+00  1.60000000E+01  1.00800000E+00
  1.00800000E+00  0.00000000E+00  1.60000000E+01  1.00800000E+00  1.00800000E+00
  0.00000000E+00  1.60000000E+01  1.00800000E+00  1.00800000E+00  0.00000000E+00
  1.60000000E+01  1.00800000E+00  1.00800000E+00  0.00000000E+00  1.60000000E+01
  1.00800000E+00  1.00800000E+00  0.00000000E+00  1.60000000E+01  1.00800000E+00
  1.00800000E+00  0.00000000E+00  1.60000000E+01  1.00800000E+00  1.00800000E+00
  0.00000000E+00  1.60000000E+01  1.00800000E+00  1.00800000E+00  0.00000000E+00
  1.60000000E+01  1.00800000E+00  1.00800000E+00  0.00000000E+00  1.60000000E+01
  1.00800000E+00  1.00800000E+00  0.00000000E+00  1.60000000E+01  1.00800000E+00
  1.00800000E+00  0.00000000E+00  1.60000000E+01  1.00800000E+00  1.00800000E+00
  0.00000000E+00  1.60000000E+01  1.00800000E+00  1.00800000E+00  0.00000000E+00
  1.60000000E+01  1.00800000E+00  1.00800000E+00  0.00000000E+00  1.60000000E+01
  1.00800000E+00  1.00800000E+00  0.00000000E+00  1.60000000E+01  1.00800000E+00
  1.00800000E+00  0.00000000E+00  1.60000000E+01  1.00800000E+00  1.00800000E+00
  0.00000000E+00  1.60000000E+01  1.00800000E+00  1.00800000E+00  0.00000000E+00
  1.60000000E+01  1.00800000E+00  1.00800000E+00  0.00000000E+00  1.60000000E+01
  1.00800000E+00  1.00800000E+00  0.00000000E+00  1.60000000E+01  1.00800000E+00
  1.00800000E+00  0.00000000E+00  1.60000000E+01  1.00800000E+00  1.00800000E+00
  0.00000000E+00  1.60000000E+01  1.00800000E+00  1.00800000E+00  0.00000000E+00
  1.60000000E+01  1.00800000E+00  1.00800000E+00  0.00000000E+00  1.60000000E+01
  1.00800000E+00  1.00800000E+00  0.00000000E+00  1.60000000E+01  1.00800000E+00
  1.00800000E+00  0.00000000E+00  1.60000000E+01  1.00800000E+00  1.00800000E+00
  0.00000000E+00  1.60000000E+01  1.00800000E+00  1.00800000E+00  0.00000000E+00
  1.60000000E+01  1.00800000E+00  1.00800000E+00  0.00000000E+00  1.60000000E+01
  1.00800000E+00  1.00800000E+00  0.00000000E+00  1.60000000E+01  1.00800000E+00
  1.00800000E+00  0.00000000E+00  1.60000000E+01  1.00800000E+00  1.00800000E+00
  0.00000000E+00  1.60000000E+01  1.00800000E+00  1.00800000E+00  0.00000000E+00
  1.60000000E+01  1.00800000E+00  1.00800000E+00  0.00000000E+00  1.60000000E+01
  1.00800000E+00  1.00800000E+00  0.00000000E+00  1.60000000E+01  1.00800000E+00
  1.00800000E+00  0.00000000E+00  1.60000000E+01  1.00800000E+00  1.00800000E+00
  0.00000000E+00  1.60000000E+01  1.00800000E+00  1.00800000E+00  0.00000000E+00
  1.60000000E+01  1.00800000E+00  1.00800000E+00  0.00000000E+00  1.60000000E+01
  1.00800000E+00  1.00800000E+00  0.00000000E+00  1.60000000E+01  1.00800000E+00
  1.00800000E+00  0.00000000E+00  1.60000000E+01  1.00800000E+00  1.00800000E+00
  0.00000000E+00  1.60000000E+01  1.00800000E+00  1.00800000E+00  0.00000000E+00
  1.60000000E+01  1.00800000E+00  1.00800000E+00  0.00000000E+00  1.60000000E+01
  1.00800000E+00  1.00800000E+00  0.00000000E+00  1.60000000E+01  1.00800000E+00
  1.00800000E+00  0.00000000E+00  1.60000000E+01  1.00800000E+00  1.00800000E+00
  0.00000000E+00  1.60000000E+01  1.00800000E+00  1.00800000E+00  0.00000000E+00
  1.60000000E+01  1.00800000E+00  1.00800000E+00  0.00000000E+00  1.60000000E+01
  1.00800000E+00  1.00800000E+00  0.00000000E+00  1.60000000E+01  1.00800000E+00
  1.00800000E+00  0.00000000E+00  1.60000000E+01  1.00800000E+00  1.00800000E+00
  0.00000000E+00  1.60000000E+01  1.00800000E+00  1.00800000E+00  0.00000000E+00
  1.60000000E+01  1.00800000E+00  1.00800000E+00  0.00000000E+00  1.60000000E+01
  1.00800000E+00  1.00800000E+00  0.00000000E+00  1.60000000E+01  1.00800000E+00
  1.00800000E+00  0.00000000E+00  1.60000000E+01  1.00800000E+00  1.00800000E+00
  0.00000000E+00  1.60000000E+01  1.00800000E+00  1.00800000E+00  0.00000000E+00
  1.60000000E+01  1.00800000E+00  1.00800000E+00  0.00000000E+00  1.60000000E+01
  1.00800000E+00  1.00800000E+00  0.00000000E+00  1.60000000E+01  1.00800000E+00
  1.00800000E+00  0.00000000E+00  1.60000000E+01  1.00800000E+00  1.00800000E+00
  0.00000000E+00  1.60000000E+01  1.00800000E+00  1.00800000E+00  0.00000000E+00
  1.60000000E+01  1.00800000E+00  1.00800000E+00  0.00000000E+00  1.60000000E+01
  1.00800000E+00  1.00800000E+00  0.00000000E+00  1.60000000E+01  1.00800000E+00
  1.00800000E+00  0.00000000E+00  1.60000000E+01  1.00800000E+00  1.00800000E+00
  0.00000000E+00  1.60000000E+01  1.00800000E+00  1.00800000E+00  0.00000000E+00
  1.60000000E+01  1.00800000E+00  1.00800000E+00  0.00000000E+00  1.60000000E+01
  1.00800000E+00  1.00800000E+00  0.00000000E+00  1.60000000E+01  1.00800000E+00
  1.00800000E+00  0.00000000E+00  1.60000000E+01  1.00800000E+00  1.00800000E+00
  0.00000000E+00  1.60000000E+01  1.00800000E+00  1.00800000E+00  0.00000000E+00
  1.60000000E+01  1.00800000E+00  1.00800000E+00  0.00000000E+00  1.60000000E+01
  1.00800000E+00  1.00800000E+00  0.00000000E+00  1.60000000E+01  1.00800000E+00
  1.00800000E+00  0.00000000E+00  1.60000000E+01  1.00800000E+00  1.00800000E+00
  0.00000000E+00  1.60000000E+01  1.00800000E+00  1.00800000E+00  0.00000000E+00
  1.60000000E+01  1.00800000E+00  1.00800000E+00  0.00000000E+00  1.60000000E+01
  1.00800000E+00  1.00800000E+00  0.00000000E+00  1.60000000E+01  1.00800000E+00
  1.00800000E+00  0.00000000E+00  1.60000000E+01  1.00800000E+00  1.00800000E+00
  0.00000000E+00  1.60000000E+01  1.00800000E+00  1.00800000E+00  0.00000000E+00
  1.60000000E+01  1.00800000E+00  1.00800000E+00  0.00000000E+00  1.60000000E+01
  1.00800000E+00  1.00800000E+00  0.00000000E+00  1.60000000E+01  1.00800000E+00
  1.00800000E+00  0.00000000E+00  1.60000000E+01  1.00800000E+00  1.00800000E+00
  0.00000000E+00  1.60000000E+01  1.00800000E+00  1.00800000E+00  0.00000000E+00
  1.60000000E+01  1.00800000E+00  1.00800000E+00  0.00000000E+00  1.60000000E+01
  1.00800000E+00  1.00800000E+00  0.00000000E+00  1.60000000E+01  1.00800000E+00
  1.00800000E+00  0.00000000E+00  1.60000000E+01  1.00800000E+00  1.00800000E+00
  0.00000000E+00  1.60000000E+01  1.00800000E+00  1.00800000E+00  0.00000000E+00
  1.60000000E+01  1.00800000E+00  1.00800000E+00  0.00000000E+00  1.60000000E+01
  1.00800000E+00  1.00800000E+00  0.00000000E+00  1.60000000E+01  1.00800000E+00
  1.00800000E+00  0.00000000E+00  1.60000000E+01  1.00800000E+00  1.00800000E+00
  0.00000000E+00  1.60000000E+01  1.00800000E+00  1.00800000E+00  0.00000000E+00
  1.60000000E+01  1.00800000E+00  1.00800000E+00  0.00000000E+00  1.60000000E+01
  1.00800000E+00  1.00800000E+00  0.00000000E+00  1.60000000E+01  1.00800000E+00
  1.00800000E+00  0.00000000E+00  1.60000000E+01  1.00800000E+00  1.00800000E+00
  0.00000000E+00  1.60000000E+01  1.00800000E+00  1.00800000E+00  0.00000000E+00
  1.60000000E+01  1.00800000E+00  1.00800000E+00  0.00000000E+00  1.60000000E+01
  1.00800000E+00  1.00800000E+00  0.00000000E+00  1.60000000E+01  1.00800000E+00
  1.00800000E+00  0.00000000E+00  1.60000000E+01  1.00800000E+00  1.00800000E+00
  0.00000000E+00  1.60000000E+01  1.00800000E+00  1.00800000E+00  0.00000000E+00
  1.60000000E+01  1.00800000E+00  1.00800000E+00  0.00000000E+00  1.60000000E+01
  1.00800000E+00  1.00800000E+00  0.00000000E+00  1.60000000E+01  1.00800000E+00
  1.00800000E+00  0.00000000E+00  1.60000000E+01  1.00800000E+00  1.00800000E+00
  0.00000000E+00  1.60000000E+01  1.00800000E+00  1.00800000E+00  0.00000000E+00
  1.60000000E+01  1.00800000E+00  1.00800000E+00  0.00000000E+00  1.60000000E+01
  1.00800000E+00  1.00800000E+00  0.00000000E+00  1.60000000E+01  1.00800000E+00
  1.00800000E+00  0.00000000E+00  1.60000000E+01  1.00800000E+00  1.00800000E+00
  0.00000000E+00  1.60000000E+01  1.00800000E+00  1.00800000E+00  0.00000000E+00
  1.60000000E+01  1.00800000E+00  1.00800000E+00  0.00000000E+00  1.60000000E+01
  1.00800000E+00  1.00800000E+00  0.00000000E+00  1.60000000E+01  1.00800000E+00
  1.00800000E+00  0.00000000E+00  1.60000000E+01  1.00800000E+00  1.00800000E+00
  0.00000000E+00  1.60000000E+01  1.00800000E+00  1.00800000E+00  0.00000000E+00
  1.60000000E+01  1.00800000E+00  1.00800000E+00  0.00000000E+00  1.60000000E+01
  1.00800000E+00  1.00800000E+00  0.00000000E+00  1.60000000E+01  1.00800000E+00
  1.00800000E+00  0.00000000E+00  1.60000000E+01  1.00800000E+00  1.00800000E+00
  0.00000000E+00  1.60000000E+01  1.00800000E+00  1.00800000E+00  0.00000000E+00
  1.60000000E+01  1.00800000E+00  1.00800000E+00  0.00000000E+00  1.60000000E+01
  1.00800000E+00  1.00800000E+00  0.00000000E+00  1.60000000E+01  1.00800000E+00
  1.00800000E+00  0.00000000E+00  1.60000000E+01  1.00800000E+00  1.00800000E+00
  0.00000000E+00  1.60000000E+01  1.00800000E+00  1.00800000E+00  0.00000000E+00
  1.60000000E+01  1.00800000E+00  1.00800000E+00  0.00000000E+00  1.60000000E+01
  1.00800000E+00  1.00800000E+00  0.00000000E+00  1.60000000E+01  1.00800000E+00
  1.00800000E+00  0.00000000E+00  1.60000000E+01  1.00800000E+00  1.00800000E+00
  0.00000000E+00  1.60000000E+01  1.00800000E+00  1.00800000E+00  0.00000000E+00
  1.60000000E+01  1.00800000E+00  1.00800000E+00  0.00000000E+00  1.60000000E+01
  1.00800000E+00  1.00800000E+00  0.00000000E+00  1.60000000E+01  1.00800000E+00
  1.00800000E+00  0.00000000E+00  1.60000000E+01  1.00800000E+00  1.00800000E+00
  0.00000000E+00  1.60000000E+01  1.00800000E+00  1.00800000E+00  0.00000000E+00
  1.60000000E+01  1.00800000E+00  1.00800000E+00  0.00000000E+00  1.60000000E+01
  1.00800000E+00  1.00800000E+00  0.00000000E+00  1.60000000E+01  1.00800000E+00
  1.00800000E+00  0.00000000E+00  1.60000000E+01  1.00800000E+00  1.00800000E+00
  0.00000000E+00  1.60000000E+01  1.00800000E+00  1.00800000E+00  0.00000000E+00
  1.60000000E+01  1.00800000E+00  1.00800000E+00  0.00000000E+00  1.60000000E+01
  1.00800000E+00  1.00800000E+00  0.00000000E+00  1.60000000E+01  1.00800000E+00
  1.00800000E+00  0.00000000E+00  1.60000000E+01  1.00800000E+00  1.00800000E+00
  0.00000000E+00  1.60000000E+01  1.00800000E+00  1.00800000E+00  0.00000000E+00
  1.60000000E+01  1.00800000E+00  1.00800000E+00  0.00000000E+00  1.60000000E+01
  1.00800000E+00  1.00800000E+00  0.00000000E+00  1.60000000E+01  1.00800000E+00
  1.00800000E+00  0.00000000E+00  1.60000000E+01  1.00800000E+00  1.00800000E+00
  0.00000000E+00  1.60000000E+01  1.00800000E+00  1.00800000E+00  0.00000000E+00
  1.60000000E+01  1.00800000E+00  1.00800000E+00  0.00000000E+00  1.60000000E+01
  1.00800000E+00  1.00800000E+00  0.00000000E+00  1.60000000E+01  1.00800000E+00
  1.00800000E+00  0.00000000E+00  1.60000000E+01  1.00800000E+00  1.00800000E+00
  0.00000000E+00  1.60000000E+01  1.00800000E+00  1.00800000E+00  0.00000000E+00
  1.60000000E+01  1.00800000E+00  1.00800000E+00  0.00000000E+00  1.60000000E+01
  1.00800000E+00  1.00800000E+00  0.00000000E+00  1.60000000E+01  1.00800000E+00
  1.00800000E+00  0.00000000E+00  1.60000000E+01  1.00800000E+00  1.00800000E+00
  0.00000000E+00  1.60000000E+01  1.00800000E+00  1.00800000E+00  0.00000000E+00
  1.60000000E+01  1.00800000E+00  1.00800000E+00  0.00000000E+00  1.60000000E+01
  1.00800000E+00  1.00800000E+00  0.00000000E+00  1.60000000E+01  1.00800000E+00
  1.00800000E+00  0.00000000E+00  1.60000000E+01  1.00800000E+00  1.00800000E+00
  0.00000000E+00  1.60000000E+01  1.00800000E+00  1.00800000E+00  0.00000000E+00
  1.60000000E+01  1.00800000E+00  1.00800000E+00  0.00000000E+00  1.60000000E+01
  1.00800000E+00  1.00800000E+00  0.00000000E+00  1.60000000E+01  1.00800000E+00
  1.00800000E+00  0.00000000E+00  1.60000000E+01  1.00800000E+00  1.00800000E+00
  0.00000000E+00  1.60000000E+01  1.00800000E+00  1.00800000E+00  0.00000000E+00
  1.60000000E+01  1.00800000E+00  1.00800000E+00  0.00000000E+00  1.60000000E+01
  1.00800000E+00  1.00800000E+00  0.00000000E+00  1.60000000E+01  1.00800000E+00
  1.00800000E+00  0.00000000E+00  1.60000000E+01  1.00800000E+00  1.00800000E+00
  0.00000000E+00  1.60000000E+01  1.00800000E+00  1.00800000E+00  0.00000000E+00
  1.60000000E+01  1.00800000E+00  1.00800000E+00  0.00000000E+00  1.60000000E+01
  1.00800000E+00  1.00800000E+00  0.00000000E+00  1.60000000E+01  1.00800000E+00
  1.00800000E+00  0.00000000E+00  1.60000000E+01  1.00800000E+00  1.00800000E+00
  0.00000000E+00  1.60000000E+01  1.00800000E+00  1.00800000E+00  0.00000000E+00
  1.60000000E+01  1.00800000E+00  1.00800000E+00  0.00000000E+00  1.60000000E+01
  1.00800000E+00  1.00800000E+00  0.00000000E+00  1.60000000E+01  1.00800000E+00
  1.00800000E+00  0.00000000E+00  1.60000000E+01  1.00800000E+00  1.00800000E+00
  0.00000000E+00  1.60000000E+01  1.00800000E+00  1.00800000E+00  0.00000000E+00
  1.60000000E+01  1.00800000E+00  1.00800000E+00  0.00000000E+00  1.60000000E+01
  1.00800000E+00  1.00800000E+00  0.00000000E+00  1.60000000E+01  1.00800000E+00
  1.00800000E+00  0.00000000E+00  1.60000000E+01  1.00800000E+00  1.00800000E+00
  0.00000000E+00  1.60000000E+01  1.00800000E+00  1.00800000E+00  0.00000000E+00
  1.60000000E+01  1.00800000E+00  1.00800000E+00  0.00000000E+00  1.60000000E+01
  1.00800000E+00  1.00800000E+00  0.00000000E+00  1.60000000E+01  1.00800000E+00
  1.00800000E+00  0.00000000E+00  1.60000000E+01  1.00800000E+00  1.00800000E+00
  0.00000000E+00  1.60000000E+01  1.00800000E+00  1.00800000E+00  0.00000000E+00
  1.60000000E+01  1.00800000E+00  1.00800000E+00  0.00000000E+00  1.60000000E+01
  1.00800000E+00  1.00800000E+00  0.00000000E+00  1.60000000E+01  1.00800000E+00
  1.00800000E+00  0.00000000E+00  1.60000000E+01  1.00800000E+00  1.00800000E+00
  0.00000000E+00  1.60000000E+01  1.00800000E+00  1.00800000E+00  0.00000000E+00
  1.60000000E+01  1.00800000E+00  1.00800000E+00  0.00000000E+00  1.60000000E+01
  1.00800000E+00  1.00800000E+00  0.00000000E+00  1.60000000E+01  1.00800000E+00
  1.00800000E+00  0.00000000E+00  1.60000000E+01  1.00800000E+00  1.00800000E+00
  0.00000000E+00  1.60000000E+01  1.00800000E+00  1.00800000E+00  0.00000000E+00
  1.60000000E+01  1.00800000E+00  1.00800000E+00  0.00000000E+00  1.60000000E+01
  1.00800000E+00  1.00800000E+00  0.00000000E+00  1.60000000E+01  1.00800000E+00
  1.00800000E+00  0.00000000E+00  1.60000000E+01  1.00800000E+00  1.00800000E+00
  0.00000000E+00  1.60000000E+01  1.00800000E+00  1.00800000E+00  0.00000000E+00
  1.60000000E+01  1.00800000E+00  1.00800000E+00  0.00000000E+00  1.60000000E+01
  1.00800000E+00  1.00800000E+00  0.00000000E+00  1.60000000E+01  1.00800000E+00
  1.00800000E+00  0.00000000E+00  1.60000000E+01  1.00800000E+00  1.00800000E+00
  0.00000000E+00  1.60000000E+01  1.00800000E+00  1.00800000E+00  0.00000000E+00
  1.60000000E+01  1.00800000E+00  1.00800000E+00  0.00000000E+00  1.60000000E+01
  1.00800000E+00  1.00800000E+00  0.00000000E+00  1.60000000E+01  1.00800000E+00
  1.00800000E+00  0.00000000E+00  1.60000000E+01  1.00800000E+00  1.00800000E+00
  0.00000000E+00  1.60000000E+01  1.00800000E+00  1.00800000E+00  0.00000000E+00
  1.60000000E+01  1.00800000E+00  1.00800000E+00  0.00000000E+00  1.60000000E+01
  1.00800000E+00  1.00800000E+00  0.00000000E+00  1.60000000E+01  1.00800000E+00
  1.00800000E+00  0.00000000E+00  1.60000000E+01  1.00800000E+00  1.00800000E+00
  0.00000000E+00  1.60000000E+01  1.00800000E+00  1.00800000E+00  0.00000000E+00
  1.60000000E+01  1.00800000E+00  1.00800000E+00  0.00000000E+00  1.60000000E+01
  1.00800000E+00  1.00800000E+00  0.00000000E+00  1.60000000E+01  1.00800000E+00
  1.00800000E+00  0.00000000E+00  1.60000000E+01  1.00800000E+00  1.00800000E+00
  0.00000000E+00  1.60000000E+01  1.00800000E+00  1.00800000E+00  0.00000000E+00
  1.60000000E+01  1.00800000E+00  1.00800000E+00  0.00000000E+00  1.60000000E+01
  1.00800000E+00  1.00800000E+00  0.00000000E+00  1.60000000E+01  1.00800000E+00
  1.00800000E+00  0.00000000E+00  1.60000000E+01  1.00800000E+00  1.00800000E+00
  0.00000000E+00  1.60000000E+01  1.00800000E+00  1.00800000E+00  0.00000000E+00
  1.60000000E+01  1.00800000E+00  1.00800000E+00  0.00000000E+00  1.60000000E+01
  1.00800000E+00  1.00800000E+00  0.00000000E+00  1.60000000E+01  1.00800000E+00
  1.00800000E+00  0.00000000E+00  1.60000000E+01  1.00800000E+00  1.00800000E+00
  0.00000000E+00  1.60000000E+01  1.00800000E+00  1.00800000E+00  0.00000000E+00
  1.60000000E+01  1.00800000E+00  1.00800000E+00  0.00000000E+00  1.60000000E+01
  1.00800000E+00  1.00800000E+00  0.00000000E+00  1.60000000E+01  1.00800000E+00
  1.00800000E+00  0.00000000E+00  1.60000000E+01  1.00800000E+00  1.00800000E+00
  0.00000000E+00  1.60000000E+01  1.00800000E+00  1.00800000E+00  0.00000000E+00
  1.60000000E+01  1.00800000E+00  1.00800000E+00  0.00000000E+00  1.60000000E+01
  1.00800000E+00  1.00800000E+00  0.00000000E+00  1.60000000E+01  1.00800000E+00
  1.00800000E+00  0.00000000E+00  1.60000000E+01  1.00800000E+00  1.00800000E+00
  0.00000000E+00  1.60000000E+01  1.00800000E+00  1.00800000E+00  0.00000000E+00
  1.60000000E+01  1.00800000E+00  1.00800000E+00  0.00000000E+00  1.60000000E+01
  1.00800000E+00  1.00800000E+00  0.00000000E+00  1.60000000E+01  1.00800000E+00
  1.00800000E+00  0.00000000E+00  1.60000000E+01  1.00800000E+00  1.00800000E+00
  0.00000000E+00  1.60000000E+01  1.00800000E+00  1.00800000E+00  0.00000000E+00
  1.60000000E+01  1.00800000E+00  1.00800000E+00  0.00000000E+00  1.60000000E+01
  1.00800000E+00  1.00800000E+00  0.00000000E+00  1.60000000E+01  1.00800000E+00
  1.00800000E+00  0.00000000E+00  1.60000000E+01  1.00800000E+00  1.00800000E+00
  0.00000000E+00  1.60000000E+01  1.00800000E+00  1.00800000E+00  0.00000000E+00
  1.60000000E+01  1.00800000E+00  1.00800000E+00  0.00000000E+00  1.60000000E+01
  1.00800000E+00  1.00800000E+00  0.00000000E+00  1.60000000E+01  1.00800000E+00
  1.00800000E+00  0.00000000E+00  1.60000000E+01  1.00800000E+00  1.00800000E+00
  0.00000000E+00  1.60000000E+01  1.00800000E+00  1.00800000E+00  0.00000000E+00
  1.60000000E+01  1.00800000E+00  1.00800000E+00  0.00000000E+00  1.60000000E+01
  1.00800000E+00  1.00800000E+00  0.00000000E+00  1.60000000E+01  1.00800000E+00
  1.00800000E+00  0.00000000E+00  1.60000000E+01  1.00800000E+00  1.00800000E+00
  0.00000000E+00  1.60000000E+01  1.00800000E+00  1.00800000E+00  0.00000000E+00
  1.60000000E+01  1.00800000E+00  1.00800000E+00  0.00000000E+00  1.60000000E+01
  1.00800000E+00  1.00800000E+00  0.00000000E+00  1.60000000E+01  1.00800000E+00
  1.00800000E+00  0.00000000E+00  1.60000000E+01  1.00800000E+00  1.00800000E+00
  0.00000000E+00  1.60000000E+01  1.00800000E+00  1.00800000E+00  0.00000000E+00
  1.60000000E+01  1.00800000E+00  1.00800000E+00  0.00000000E+00  1.60000000E+01
  1.00800000E+00  1.00800000E+00  0.00000000E+00  1.60000000E+01  1.00800000E+00
  1.00800000E+00  0.00000000E+00  1.60000000E+01  1.00800000E+00  1.00800000E+00
  0.00000000E+00  1.60000000E+01  1.00800000E+00  1.00800000E+00  0.00000000E+00
  1.60000000E+01  1.00800000E+00  1.00800000E+00  0.00000000E+00  1.60000000E+01
  1.00800000E+00  1.00800000E+00  0.00000000E+00  1.60000000E+01  1.00800000E+00
  1.00800000E+00  0.00000000E+00  1.60000000E+01  1.00800000E+00  1.00800000E+00
  0.00000000E+00  1.60000000E+01  1.00800000E+00  1.00800000E+00  0.00000000E+00
  1.60000000E+01  1.00800000E+00  1.00800000E+00  0.00000000E+00  1.60000000E+01
  1.00800000E+00  1.00800000E+00  0.00000000E+00  1.60000000E+01  1.00800000E+00
  1.00800000E+00  0.00000000E+00  1.60000000E+01  1.00800000E+00  1.00800000E+00
  0.00000000E+00  1.60000000E+01  1.00800000E+00  1.00800000E+00  0.00000000E+00
  1.60000000E+01  1.00800000E+00  1.00800000E+00  0.00000000E+00  1.60000000E+01
  1.00800000E+00  1.00800000E+00  0.00000000E+00  1.60000000E+01  1.00800000E+00
  1.00800000E+00  0.00000000E+00  1.60000000E+01  1.00800000E+00  1.00800000E+00
  0.00000000E+00  1.60000000E+01  1.00800000E+00  1.00800000E+00  0.00000000E+00
  1.60000000E+01  1.00800000E+00  1.00800000E+00  0.00000000E+00  1.60000000E+01
  1.00800000E+00  1.00800000E+00  0.00000000E+00  1.60000000E+01  1.00800000E+00
  1.00800000E+00  0.00000000E+00  1.60000000E+01  1.00800000E+00  1.00800000E+00
  0.00000000E+00  1.60000000E+01  1.00800000E+00  1.00800000E+00  0.00000000E+00
  1.60000000E+01  1.00800000E+00  1.00800000E+00  0.00000000E+00  1.60000000E+01
  1.00800000E+00  1.00800000E+00  0.00000000E+00  1.60000000E+01  1.00800000E+00
  1.00800000E+00  0.00000000E+00  1.60000000E+01  1.00800000E+00  1.00800000E+00
  0.00000000E+00  1.60000000E+01  1.00800000E+00  1.00800000E+00  0.00000000E+00
  1.60000000E+01  1.00800000E+00  1.00800000E+00  0.00000000E+00  1.60000000E+01
  1.00800000E+00  1.00800000E+00  0.00000000E+00  1.60000000E+01  1.00800000E+00
  1.00800000E+00  0.00000000E+00  1.60000000E+01  1.00800000E+00  1.00800000E+00
  0.00000000E+00  1.60000000E+01  1.00800000E+00  1.00800000E+00  0.00000000E+00
  1.60000000E+01  1.00800000E+00  1.00800000E+00  0.00000000E+00  1.60000000E+01
  1.00800000E+00  1.00800000E+00  0.00000000E+00  1.60000000E+01  1.00800000E+00
  1.00800000E+00  0.00000000E+00  1.60000000E+01  1.00800000E+00  1.00800000E+00
  0.00000000E+00  1.60000000E+01  1.00800000E+00  1.00800000E+00  0.00000000E+00
  1.60000000E+01  1.00800000E+00  1.00800000E+00  0.00000000E+00  1.60000000E+01
  1.00800000E+00  1.00800000E+00  0.00000000E+00  1.60000000E+01  1.00800000E+00
  1.00800000E+00  0.00000000E+00  1.60000000E+01  1.00800000E+00  1.00800000E+00
  0.00000000E+00  1.60000000E+01  1.00800000E+00  1.00800000E+00  0.00000000E+00
  1.60000000E+01  1.00800000E+00  1.00800000E+00  0.00000000E+00  1.60000000E+01
  1.00800000E+00  1.00800000E+00  0.00000000E+00  1.60000000E+01  1.00800000E+00
  1.00800000E+00  0.00000000E+00  1.60000000E+01  1.00800000E+00  1.00800000E+00
  0.00000000E+00  1.60000000E+01  1.00800000E+00  1.00800000E+00  0.00000000E+00
  1.60000000E+01  1.00800000E+00  1.00800000E+00  0.00000000E+00  1.60000000E+01
  1.00800000E+00  1.00800000E+00  0.00000000E+00  1.60000000E+01  1.00800000E+00
  1.00800000E+00  0.00000000E+00  1.60000000E+01  1.00800000E+00  1.00800000E+00
  0.00000000E+00  1.60000000E+01  1.00800000E+00  1.00800000E+00  0.00000000E+00
  1.60000000E+01  1.00800000E+00  1.00800000E+00  0.00000000E+00  1.60000000E+01
  1.00800000E+00  1.00800000E+00  0.00000000E+00  1.60000000E+01  1.00800000E+00
  1.00800000E+00  0.00000000E+00  1.60000000E+01  1.00800000E+00  1.00800000E+00
  0.00000000E+00  1.60000000E+01  1.00800000E+00  1.00800000E+00  0.00000000E+00
  1.60000000E+01  1.00800000E+00  1.00800000E+00  0.00000000E+00  1.60000000E+01
  1.00800000E+00  1.00800000E+00  0.00000000E+00  1.60000000E+01  1.00800000E+00
  1.00800000E+00  0.00000000E+00  1.60000000E+01  1.00800000E+00  1.00800000E+00
  0.00000000E+00  1.60000000E+01  1.00800000E+00  1.00800000E+00  0.00000000E+00
  1.60000000E+01  1.00800000E+00  1.00800000E+00  0.00000000E+00  1.60000000E+01
  1.00800000E+00  1.00800000E+00  0.00000000E+00  1.60000000E+01  1.00800000E+00
  1.00800000E+00  0.00000000E+00  1.60000000E+01  1.00800000E+00  1.00800000E+00
  0.00000000E+00  1.60000000E+01  1.00800000E+00  1.00800000E+00  0.00000000E+00
  1.60000000E+01  1.00800000E+00  1.00800000E+00  0.00000000E+00  1.60000000E+01
  1.00800000E+00  1.00800000E+00  0.00000000E+00  1.60000000E+01  1.00800000E+00
  1.00800000E+00  0.00000000E+00  1.60000000E+01  1.00800000E+00  1.00800000E+00
  0.00000000E+00  1.60000000E+01  1.00800000E+00  1.00800000E+00  0.00000000E+00
  1.60000000E+01  1.00800000E+00  1.00800000E+00  0.00000000E+00  1.60000000E+01
  1.00800000E+00  1.00800000E+00  0.00000000E+00  1.60000000E+01  1.00800000E+00
  1.00800000E+00  0.00000000E+00  1.60000000E+01  1.00800000E+00  1.00800000E+00
  0.00000000E+00  1.60000000E+01  1.00800000E+00  1.00800000E+00  0.00000000E+00
  1.60000000E+01  1.00800000E+00  1.00800000E+00  0.00000000E+00  1.60000000E+01
  1.00800000E+00  1.00800000E+00  0.00000000E+00  1.60000000E+01  1.00800000E+00
  1.00800000E+00  0.00000000E+00  1.60000000E+01  1.00800000E+00  1.00800000E+00
  0.00000000E+00  1.60000000E+01  1.00800000E+00  1.00800000E+00  0.00000000E+00
  1.60000000E+01  1.00800000E+00  1.00800000E+00  0.00000000E+00  1.60000000E+01
  1.00800000E+00  1.00800000E+00  0.00000000E+00  1.60000000E+01  1.00800000E+00
  1.00800000E+00  0.00000000E+00  1.60000000E+01  1.00800000E+00  1.00800000E+00
  0.00000000E+00  1.60000000E+01  1.00800000E+00  1.00800000E+00  0.00000000E+00
  1.60000000E+01  1.00800000E+00  1.00800000E+00  0.00000000E+00  1.60000000E+01
  1.00800000E+00  1.00800000E+00  0.00000000E+00  1.60000000E+01  1.00800000E+00
  1.00800000E+00  0.00000000E+00  1.60000000E+01  1.00800000E+00  1.00800000E+00
  0.00000000E+00  1.60000000E+01  1.00800000E+00  1.00800000E+00  0.00000000E+00
  1.60000000E+01  1.00800000E+00  1.00800000E+00  0.00000000E+00  1.60000000E+01
  1.00800000E+00  1.00800000E+00  0.00000000E+00  1.60000000E+01  1.00800000E+00
  1.00800000E+00  0.00000000E+00  1.60000000E+01  1.00800000E+00  1.00800000E+00
  0.00000000E+00  1.60000000E+01  1.00800000E+00  1.00800000E+00  0.00000000E+00
  1.60000000E+01  1.00800000E+00  1.00800000E+00  0.00000000E+00  1.60000000E+01
  1.00800000E+00  1.00800000E+00  0.00000000E+00  1.60000000E+01  1.00800000E+00
  1.00800000E+00  0.00000000E+00  1.60000000E+01  1.00800000E+00  1.00800000E+00
  0.00000000E+00  1.60000000E+01  1.00800000E+00  1.00800000E+00  0.00000000E+00
  1.60000000E+01  1.00800000E+00  1.00800000E+00  0.00000000E+00  1.60000000E+01
  1.00800000E+00  1.00800000E+00  0.00000000E+00  1.60000000E+01  1.00800000E+00
  1.00800000E+00  0.00000000E+00  1.60000000E+01  1.00800000E+00  1.00800000E+00
  0.00000000E+00  1.60000000E+01  1.00800000E+00  1.00800000E+00  0.00000000E+00
  1.60000000E+01  1.00800000E+00  1.00800000E+00  0.00000000E+00  1.60000000E+01
  1.00800000E+00  1.00800000E+00  0.00000000E+00  1.60000000E+01  1.00800000E+00
  1.00800000E+00  0.00000000E+00  1.60000000E+01  1.00800000E+00  1.00800000E+00
  0.00000000E+00  1.60000000E+01  1.00800000E+00  1.00800000E+00  0.00000000E+00
  1.60000000E+01  1.00800000E+00  1.00800000E+00  0.00000000E+00  1.60000000E+01
  1.00800000E+00  1.00800000E+00  0.00000000E+00  1.60000000E+01  1.00800000E+00
  1.00800000E+00  0.00000000E+00  1.60000000E+01  1.00800000E+00  1.00800000E+00
  0.00000000E+00  1.60000000E+01  1.00800000E+00  1.00800000E+00  0.00000000E+00
  1.60000000E+01  1.00800000E+00  1.00800000E+00  0.00000000E+00  1.60000000E+01
  1.00800000E+00  1.00800000E+00  0.00000000E+00  1.60000000E+01  1.00800000E+00
  1.00800000E+00  0.00000000E+00  1.60000000E+01  1.00800000E+00  1.00800000E+00
  0.00000000E+00  1.60000000E+01  1.00800000E+00  1.00800000E+00  0.00000000E+00
  1.60000000E+01  1.00800000E+00  1.00800000E+00  0.00000000E+00  1.60000000E+01
  1.00800000E+00  1.00800000E+00  0.00000000E+00  1.60000000E+01  1.00800000E+00
  1.00800000E+00  0.00000000E+00  1.60000000E+01  1.00800000E+00  1.00800000E+00
  0.00000000E+00  1.60000000E+01  1.00800000E+00  1.00800000E+00  0.00000000E+00
  1.60000000E+01  1.00800000E+00  1.00800000E+00  0.00000000E+00  1.60000000E+01
  1.00800000E+00  1.00800000E+00  0.00000000E+00  1.60000000E+01  1.00800000E+00
  1.00800000E+00  0.00000000E+00  1.60000000E+01  1.00800000E+00  1.00800000E+00
  0.00000000E+00  1.60000000E+01  1.00800000E+00  1.00800000E+00  0.00000000E+00
  1.60000000E+01  1.00800000E+00  1.00800000E+00  0.00000000E+00  1.60000000E+01
  1.00800000E+00  1.00800000E+00  0.00000000E+00  1.60000000E+01  1.00800000E+00
  1.00800000E+00  0.00000000E+00  1.60000000E+01  1.00800000E+00  1.00800000E+00
  0.00000000E+00  1.60000000E+01  1.00800000E+00  1.00800000E+00  0.00000000E+00
  1.60000000E+01  1.00800000E+00  1.00800000E+00  0.00000000E+00  1.60000000E+01
  1.00800000E+00  1.00800000E+00  0.00000000E+00  1.60000000E+01  1.00800000E+00
  1.00800000E+00  0.00000000E+00  1.60000000E+01  1.00800000E+00  1.00800000E+00
  0.00000000E+00  1.60000000E+01  1.00800000E+00  1.00800000E+00  0.00000000E+00
  1.60000000E+01  1.00800000E+00  1.00800000E+00  0.00000000E+00  1.60000000E+01
  1.00800000E+00  1.00800000E+00  0.00000000E+00  1.60000000E+01  1.00800000E+00
  1.00800000E+00  0.00000000E+00  1.60000000E+01  1.00800000E+00  1.00800000E+00
  0.00000000E+00  1.60000000E+01  1.00800000E+00  1.00800000E+00  0.00000000E+00
  1.60000000E+01  1.00800000E+00  1.00800000E+00  0.00000000E+00  1.60000000E+01
  1.00800000E+00  1.00800000E+00  0.00000000E+00  1.60000000E+01  1.00800000E+00
  1.00800000E+00  0.00000000E+00  1.60000000E+01  1.00800000E+00  1.00800000E+00
  0.00000000E+00  1.60000000E+01  1.00800000E+00  1.00800000E+00  0.00000000E+00
  1.60000000E+01  1.00800000E+00  1.00800000E+00  0.00000000E+00  1.60000000E+01
  1.00800000E+00  1.00800000E+00  0.00000000E+00  1.60000000E+01  1.00800000E+00
  1.00800000E+00  0.00000000E+00  1.60000000E+01  1.00800000E+00  1.00800000E+00
  0.00000000E+00  1.60000000E+01  1.00800000E+00  1.00800000E+00  0.00000000E+00
  1.60000000E+01  1.00800000E+00  1.00800000E+00  0.00000000E+00  1.60000000E+01
  1.00800000E+00  1.00800000E+00  0.00000000E+00  1.60000000E+01  1.00800000E+00
  1.00800000E+00  0.00000000E+00  1.60000000E+01  1.00800000E+00  1.00800000E+00
  0.00000000E+00  1.60000000E+01  1.00800000E+00  1.00800000E+00  0.00000000E+00
  1.60000000E+01  1.00800000E+00  1.00800000E+00  0.00000000E+00  1.60000000E+01
  1.00800000E+00  1.00800000E+00  0.00000000E+00  1.60000000E+01  1.00800000E+00
  1.00800000E+00  0.00000000E+00  1.60000000E+01  1.00800000E+00  1.00800000E+00
  0.00000000E+00  1.60000000E+01  1.00800000E+00  1.00800000E+00  0.00000000E+00
  1.60000000E+01  1.00800000E+00  1.00800000E+00  0.00000000E+00  1.60000000E+01
  1.00800000E+00  1.00800000E+00  0.00000000E+00  1.60000000E+01  1.00800000E+00
  1.00800000E+00  0.00000000E+00  1.60000000E+01  1.00800000E+00  1.00800000E+00
  0.00000000E+00  1.60000000E+01  1.00800000E+00  1.00800000E+00  0.00000000E+00
  1.60000000E+01  1.00800000E+00  1.00800000E+00  0.00000000E+00  1.60000000E+01
  1.00800000E+00  1.00800000E+00  0.00000000E+00  1.60000000E+01  1.00800000E+00
  1.00800000E+00  0.00000000E+00  1.60000000E+01  1.00800000E+00  1.00800000E+00
  0.00000000E+00  1.60000000E+01  1.00800000E+00  1.00800000E+00  0.00000000E+00
  1.60000000E+01  1.00800000E+00  1.00800000E+00  0.00000000E+00  1.60000000E+01
  1.00800000E+00  1.00800000E+00  0.00000000E+00  1.60000000E+01  1.00800000E+00
  1.00800000E+00  0.00000000E+00  1.60000000E+01  1.00800000E+00  1.00800000E+00
  0.00000000E+00  1.60000000E+01  1.00800000E+00  1.00800000E+00  0.00000000E+00
  1.60000000E+01  1.00800000E+00  1.00800000E+00  0.00000000E+00  1.60000000E+01
  1.00800000E+00  1.00800000E+00  0.00000000E+00  1.60000000E+01  1.00800000E+00
  1.00800000E+00  0.00000000E+00  1.60000000E+01  1.00800000E+00  1.00800000E+00
  0.00000000E+00  1.60000000E+01  1.00800000E+00  1.00800000E+00  0.00000000E+00
  1.60000000E+01  1.00800000E+00  1.00800000E+00  0.00000000E+00  1.60000000E+01
  1.00800000E+00  1.00800000E+00  0.00000000E+00  1.60000000E+01  1.00800000E+00
  1.00800000E+00  0.00000000E+00  1.60000000E+01  1.00800000E+00  1.00800000E+00
  0.00000000E+00  1.60000000E+01  1.00800000E+00  1.00800000E+00  0.00000000E+00
  1.60000000E+01  1.00800000E+00  1.00800000E+00  0.00000000E+00  1.60000000E+01
  1.00800000E+00  1.00800000E+00  0.00000000E+00  1.60000000E+01  1.00800000E+00
  1.00800000E+00  0.00000000E+00  1.60000000E+01  1.00800000E+00  1.00800000E+00
  0.00000000E+00  1.60000000E+01  1.00800000E+00  1.00800000E+00  0.00000000E+00
  1.60000000E+01  1.00800000E+00  1.00800000E+00  0.00000000E+00  1.60000000E+01
  1.00800000E+00  1.00800000E+00  0.00000000E+00  1.60000000E+01  1.00800000E+00
  1.00800000E+00  0.00000000E+00  1.60000000E+01  1.00800000E+00  1.00800000E+00
  0.00000000E+00  1.60000000E+01  1.00800000E+00  1.00800000E+00  0.00000000E+00
  1.60000000E+01  1.00800000E+00  1.00800000E+00  0.00000000E+00  1.60000000E+01
  1.00800000E+00  1.00800000E+00  0.00000000E+00  1.60000000E+01  1.00800000E+00
  1.00800000E+00  0.00000000E+00  1.60000000E+01  1.00800000E+00  1.00800000E+00
  0.00000000E+00  1.60000000E+01  1.00800000E+00  1.00800000E+00  0.00000000E+00
  1.60000000E+01  1.00800000E+00  1.00800000E+00  0.00000000E+00  1.60000000E+01
  1.00800000E+00  1.00800000E+00  0.00000000E+00  1.60000000E+01  1.00800000E+00
  1.00800000E+00  0.00000000E+00  1.60000000E+01  1.00800000E+00  1.00800000E+00
  0.00000000E+00  1.60000000E+01  1.00800000E+00  1.00800000E+00  0.00000000E+00
  1.60000000E+01  1.00800000E+00  1.00800000E+00  0.00000000E+00  1.60000000E+01
  1.00800000E+00  1.00800000E+00  0.00000000E+00  1.60000000E+01  1.00800000E+00
  1.00800000E+00  0.00000000E+00  1.60000000E+01  1.00800000E+00  1.00800000E+00
  0.00000000E+00  1.60000000E+01  1.00800000E+00  1.00800000E+00  0.00000000E+00
  1.60000000E+01  1.00800000E+00  1.00800000E+00  0.00000000E+00  1.60000000E+01
  1.00800000E+00  1.00800000E+00  0.00000000E+00  1.60000000E+01  1.00800000E+00
  1.00800000E+00  0.00000000E+00  1.60000000E+01  1.00800000E+00  1.00800000E+00
  0.00000000E+00  1.60000000E+01  1.00800000E+00  1.00800000E+00  0.00000000E+00
  1.60000000E+01  1.00800000E+00  1.00800000E+00  0.00000000E+00  1.60000000E+01
  1.00800000E+00  1.00800000E+00  0.00000000E+00  1.60000000E+01  1.00800000E+00
  1.00800000E+00  0.00000000E+00  1.60000000E+01  1.00800000E+00  1.00800000E+00
  0.00000000E+00  1.60000000E+01  1.00800000E+00  1.00800000E+00  0.00000000E+00
  1.60000000E+01  1.00800000E+00  1.00800000E+00  0.00000000E+00  1.60000000E+01
  1.00800000E+00  1.00800000E+00  0.00000000E+00  1.60000000E+01  1.00800000E+00
  1.00800000E+00  0.00000000E+00  1.60000000E+01  1.00800000E+00  1.00800000E+00
  0.00000000E+00  1.60000000E+01  1.00800000E+00  1.00800000E+00  0.00000000E+00
  1.60000000E+01  1.00800000E+00  1.00800000E+00  0.00000000E+00  1.60000000E+01
  1.00800000E+00  1.00800000E+00  0.00000000E+00  1.60000000E+01  1.00800000E+00
  1.00800000E+00  0.00000000E+00  1.60000000E+01  1.00800000E+00  1.00800000E+00
  0.00000000E+00  1.60000000E+01  1.00800000E+00  1.00800000E+00  0.00000000E+00
  1.60000000E+01  1.00800000E+00  1.00800000E+00  0.00000000E+00  1.60000000E+01
  1.00800000E+00  1.00800000E+00  0.00000000E+00  1.60000000E+01  1.00800000E+00
  1.00800000E+00  0.00000000E+00  1.60000000E+01  1.00800000E+00  1.00800000E+00
  0.00000000E+00  1.60000000E+01  1.00800000E+00  1.00800000E+00  0.00000000E+00
  1.60000000E+01  1.00800000E+00  1.00800000E+00  0.00000000E+00  1.60000000E+01
  1.00800000E+00  1.00800000E+00  0.00000000E+00  1.60000000E+01  1.00800000E+00
  1.00800000E+00  0.00000000E+00  1.60000000E+01  1.00800000E+00  1.00800000E+00
  0.00000000E+00  1.60000000E+01  1.00800000E+00  1.00800000E+00  0.00000000E+00
  1.60000000E+01  1.00800000E+00  1.00800000E+00  0.00000000E+00  1.60000000E+01
  1.00800000E+00  1.00800000E+00  0.00000000E+00  1.60000000E+01  1.00800000E+00
  1.00800000E+00  0.00000000E+00  1.60000000E+01  1.00800000E+00  1.00800000E+00
  0.00000000E+00  1.60000000E+01  1.00800000E+00  1.00800000E+00  0.00000000E+00
  1.60000000E+01  1.00800000E+00  1.00800000E+00  0.00000000E+00  1.60000000E+01
  1.00800000E+00  1.00800000E+00  0.00000000E+00  1.60000000E+01  1.00800000E+00
  1.00800000E+00  0.00000000E+00  1.60000000E+01  1.00800000E+00  1.00800000E+00
  0.00000000E+00  1.60000000E+01  1.00800000E+00  1.00800000E+00  0.00000000E+00
  1.60000000E+01  1.00800000E+00  1.00800000E+00  0.00000000E+00  1.60000000E+01
  1.00800000E+00  1.00800000E+00  0.00000000E+00  1.60000000E+01  1.00800000E+00
  1.00800000E+00  0.00000000E+00  1.60000000E+01  1.00800000E+00  1.00800000E+00
  0.00000000E+00  1.60000000E+01  1.00800000E+00  1.00800000E+00  0.00000000E+00
  1.60000000E+01  1.00800000E+00  1.00800000E+00  0.00000000E+00  1.60000000E+01
  1.00800000E+00  1.00800000E+00  0.00000000E+00  1.60000000E+01  1.00800000E+00
  1.00800000E+00  0.00000000E+00  1.60000000E+01  1.00800000E+00  1.00800000E+00
  0.00000000E+00  1.60000000E+01  1.00800000E+00  1.00800000E+00  0.00000000E+00
  1.60000000E+01  1.00800000E+00  1.00800000E+00  0.00000000E+00  1.60000000E+01
  1.00800000E+00  1.00800000E+00  0.00000000E+00  1.60000000E+01  1.00800000E+00
  1.00800000E+00  0.00000000E+00  1.60000000E+01  1.00800000E+00  1.00800000E+00
  0.00000000E+00  1.60000000E+01  1.00800000E+00  1.00800000E+00  0.00000000E+00
  1.60000000E+01  1.00800000E+00  1.00800000E+00  0.00000000E+00  1.60000000E+01
  1.00800000E+00  1.00800000E+00  0.00000000E+00  1.60000000E+01  1.00800000E+00
  1.00800000E+00  0.00000000E+00  1.60000000E+01  1.00800000E+00  1.00800000E+00
  0.00000000E+00  1.60000000E+01  1.00800000E+00  1.00800000E+00  0.00000000E+00
  1.60000000E+01  1.00800000E+00  1.00800000E+00  0.00000000E+00  1.60000000E+01
  1.00800000E+00  1.00800000E+00  0.00000000E+00  1.60000000E+01  1.00800000E+00
  1.00800000E+00  0.00000000E+00  1.60000000E+01  1.00800000E+00  1.00800000E+00
  0.00000000E+00  1.60000000E+01  1.00800000E+00  1.00800000E+00  0.00000000E+00
  1.60000000E+01  1.00800000E+00  1.00800000E+00  0.00000000E+00  1.60000000E+01
  1.00800000E+00  1.00800000E+00  0.00000000E+00  1.60000000E+01  1.00800000E+00
  1.00800000E+00  0.00000000E+00  1.60000000E+01  1.00800000E+00  1.00800000E+00
  0.00000000E+00  1.60000000E+01  1.00800000E+00  1.00800000E+00  0.00000000E+00
  1.60000000E+01  1.00800000E+00  1.00800000E+00  0.00000000E+00  1.60000000E+01
  1.00800000E+00  1.00800000E+00  0.00000000E+00  1.60000000E+01  1.00800000E+00
  1.00800000E+00  0.00000000E+00  1.60000000E+01  1.00800000E+00  1.00800000E+00
  0.00000000E+00  1.60000000E+01  1.00800000E+00  1.00800000E+00  0.00000000E+00
  1.60000000E+01  1.00800000E+00  1.00800000E+00  0.00000000E+00  1.60000000E+01
  1.00800000E+00  1.00800000E+00  0.00000000E+00  1.60000000E+01  1.00800000E+00
  1.00800000E+00  0.00000000E+00  1.60000000E+01  1.00800000E+00  1.00800000E+00
  0.00000000E+00  1.60000000E+01  1.00800000E+00  1.00800000E+00  0.00000000E+00
  1.60000000E+01  1.00800000E+00  1.00800000E+00  0.00000000E+00  1.60000000E+01
  1.00800000E+00  1.00800000E+00  0.00000000E+00  1.60000000E+01  1.00800000E+00
  1.00800000E+00  0.00000000E+00  1.60000000E+01  1.00800000E+00  1.00800000E+00
  0.00000000E+00  1.60000000E+01  1.00800000E+00  1.00800000E+00  0.00000000E+00
  1.60000000E+01  1.00800000E+00  1.00800000E+00  0.00000000E+00  1.60000000E+01
  1.00800000E+00  1.00800000E+00  0.00000000E+00  1.60000000E+01  1.00800000E+00
  1.00800000E+00  0.00000000E+00  1.60000000E+01  1.00800000E+00  1.00800000E+00
  0.00000000E+00  1.60000000E+01  1.00800000E+00  1.00800000E+00  0.00000000E+00
  1.60000000E+01  1.00800000E+00  1.00800000E+00  0.00000000E+00  1.60000000E+01
  1.00800000E+00  1.00800000E+00  0.00000000E+00  1.60000000E+01  1.00800000E+00
  1.00800000E+00  0.00000000E+00  1.60000000E+01  1.00800000E+00  1.00800000E+00
  0.00000000E+00  1.60000000E+01  1.00800000E+00  1.00800000E+00  0.00000000E+00
  1.60000000E+01  1.00800000E+00  1.00800000E+00  0.00000000E+00  1.60000000E+01
  1.00800000E+00  1.00800000E+00  0.00000000E+00  1.60000000E+01  1.00800000E+00
  1.00800000E+00  0.00000000E+00  1.60000000E+01  1.00800000E+00  1.00800000E+00
  0.00000000E+00  1.60000000E+01  1.00800000E+00  1.00800000E+00  0.00000000E+00
  1.60000000E+01  1.00800000E+00  1.00800000E+00  0.00000000E+00  1.60000000E+01
  1.00800000E+00  1.00800000E+00  0.00000000E+00  1.60000000E+01  1.00800000E+00
  1.00800000E+00  0.00000000E+00  1.60000000E+01  1.00800000E+00  1.00800000E+00
  0.00000000E+00  1.60000000E+01  1.00800000E+00  1.00800000E+00  0.00000000E+00
  1.60000000E+01  1.00800000E+00  1.00800000E+00  0.00000000E+00  1.60000000E+01
  1.00800000E+00  1.00800000E+00  0.00000000E+00  1.60000000E+01  1.00800000E+00
  1.00800000E+00  0.00000000E+00  1.60000000E+01  1.00800000E+00  1.00800000E+00
  0.00000000E+00  1.60000000E+01  1.00800000E+00  1.00800000E+00  0.00000000E+00
  1.60000000E+01  1.00800000E+00  1.00800000E+00  0.00000000E+00  1.60000000E+01
  1.00800000E+00  1.00800000E+00  0.00000000E+00  1.60000000E+01  1.00800000E+00
  1.00800000E+00  0.00000000E+00  1.60000000E+01  1.00800000E+00  1.00800000E+00
  0.00000000E+00  1.60000000E+01  1.00800000E+00  1.00800000E+00  0.00000000E+00
  1.60000000E+01  1.00800000E+00  1.00800000E+00  0.00000000E+00  1.60000000E+01
  1.00800000E+00  1.00800000E+00  0.00000000E+00  1.60000000E+01  1.00800000E+00
  1.00800000E+00  0.00000000E+00  1.60000000E+01  1.00800000E+00  1.00800000E+00
  0.00000000E+00  1.60000000E+01  1.00800000E+00  1.00800000E+00  0.00000000E+00
  1.60000000E+01  1.00800000E+00  1.00800000E+00  0.00000000E+00  1.60000000E+01
  1.00800000E+00  1.00800000E+00  0.00000000E+00  1.60000000E+01  1.00800000E+00
  1.00800000E+00  0.00000000E+00  1.60000000E+01  1.00800000E+00  1.00800000E+00
  0.00000000E+00  1.60000000E+01  1.00800000E+00  1.00800000E+00  0.00000000E+00
  1.60000000E+01  1.00800000E+00  1.00800000E+00  0.00000000E+00  1.60000000E+01
  1.00800000E+00  1.00800000E+00  0.00000000E+00  1.60000000E+01  1.00800000E+00
  1.00800000E+00  0.00000000E+00  1.60000000E+01  1.00800000E+00  1.00800000E+00
  0.00000000E+00  1.60000000E+01  1.00800000E+00  1.00800000E+00  0.00000000E+00
  1.60000000E+01  1.00800000E+00  1.00800000E+00  0.00000000E+00  1.60000000E+01
  1.00800000E+00  1.00800000E+00  0.00000000E+00  1.60000000E+01  1.00800000E+00
  1.00800000E+00  0.00000000E+00  1.60000000E+01  1.00800000E+00  1.00800000E+00
  0.00000000E+00  1.60000000E+01  1.00800000E+00  1.00800000E+00  0.00000000E+00
  1.60000000E+01  1.00800000E+00  1.00800000E+00  0.00000000E+00  1.60000000E+01
  1.00800000E+00  1.00800000E+00  0.00000000E+00  1.60000000E+01  1.00800000E+00
  1.00800000E+00  0.00000000E+00  1.60000000E+01  1.00800000E+00  1.00800000E+00
  0.00000000E+00  1.60000000E+01  1.00800000E+00  1.00800000E+00  0.00000000E+00
  1.60000000E+01  1.00800000E+00  1.00800000E+00  0.00000000E+00  1.60000000E+01
  1.00800000E+00  1.00800000E+00  0.00000000E+00  1.60000000E+01  1.00800000E+00
  1.00800000E+00  0.00000000E+00  1.60000000E+01  1.00800000E+00  1.00800000E+00
  0.00000000E+00  1.60000000E+01  1.00800000E+00  1.00800000E+00  0.00000000E+00
  1.60000000E+01  1.00800000E+00  1.00800000E+00  0.00000000E+00  1.60000000E+01
  1.00800000E+00  1.00800000E+00  0.00000000E+00  1.60000000E+01  1.00800000E+00
  1.00800000E+00  0.00000000E+00  1.60000000E+01  1.00800000E+00  1.00800000E+00
  0.00000000E+00  1.60000000E+01  1.00800000E+00  1.00800000E+00  0.00000000E+00
  1.60000000E+01  1.00800000E+00  1.00800000E+00  0.00000000E+00  1.60000000E+01
  1.00800000E+00  1.00800000E+00  0.00000000E+00  1.60000000E+01  1.00800000E+00
  1.00800000E+00  0.00000000E+00  1.60000000E+01  1.00800000E+00  1.00800000E+00
  0.00000000E+00  1.60000000E+01  1.00800000E+00  1.00800000E+00  0.00000000E+00
  1.60000000E+01  1.00800000E+00  1.00800000E+00  0.00000000E+00  1.60000000E+01
  1.00800000E+00  1.00800000E+00  0.00000000E+00  1.60000000E+01  1.00800000E+00
  1.00800000E+00  0.00000000E+00  1.60000000E+01  1.00800000E+00  1.00800000E+00
  0.00000000E+00  1.60000000E+01  1.00800000E+00  1.00800000E+00  0.00000000E+00
  1.60000000E+01  1.00800000E+00  1.00800000E+00  0.00000000E+00  1.60000000E+01
  1.00800000E+00  1.00800000E+00  0.00000000E+00  1.60000000E+01  1.00800000E+00
  1.00800000E+00  0.00000000E+00  1.60000000E+01  1.00800000E+00  1.00800000E+00
  0.00000000E+00  1.60000000E+01  1.00800000E+00  1.00800000E+00  0.00000000E+00
  1.60000000E+01  1.00800000E+00  1.00800000E+00  0.00000000E+00  1.60000000E+01
  1.00800000E+00  1.00800000E+00  0.00000000E+00  1.60000000E+01  1.00800000E+00
  1.00800000E+00  0.00000000E+00  1.60000000E+01  1.00800000E+00  1.00800000E+00
  0.00000000E+00  1.60000000E+01  1.00800000E+00  1.00800000E+00  0.00000000E+00
  1.60000000E+01  1.00800000E+00  1.00800000E+00  0.00000000E+00  1.60000000E+01
  1.00800000E+00  1.00800000E+00  0.00000000E+00  1.60000000E+01  1.00800000E+00
  1.00800000E+00  0.00000000E+00  1.60000000E+01  1.00800000E+00  1.00800000E+00
  0.00000000E+00  1.60000000E+01  1.00800000E+00  1.00800000E+00  0.00000000E+00
  1.60000000E+01  1.00800000E+00  1.00800000E+00  0.00000000E+00  1.60000000E+01
  1.00800000E+00  1.00800000E+00  0.00000000E+00  1.60000000E+01  1.00800000E+00
  1.00800000E+00  0.00000000E+00  1.60000000E+01  1.00800000E+00  1.00800000E+00
  0.00000000E+00  1.60000000E+01  1.00800000E+00  1.00800000E+00  0.00000000E+00
  1.60000000E+01  1.00800000E+00  1.00800000E+00  0.00000000E+00  1.60000000E+01
  1.00800000E+00  1.00800000E+00  0.00000000E+00  1.60000000E+01  1.00800000E+00
  1.00800000E+00  0.00000000E+00  1.60000000E+01  1.00800000E+00  1.00800000E+00
  0.00000000E+00  1.60000000E+01  1.00800000E+00  1.00800000E+00  0.00000000E+00
  1.60000000E+01  1.00800000E+00  1.00800000E+00  0.00000000E+00  1.60000000E+01
  1.00800000E+00  1.00800000E+00  0.00000000E+00  1.60000000E+01  1.00800000E+00
  1.00800000E+00  0.00000000E+00  1.60000000E+01  1.00800000E+00  1.00800000E+00
  0.00000000E+00  1.60000000E+01  1.00800000E+00  1.00800000E+00  0.00000000E+00
  1.60000000E+01  1.00800000E+00  1.00800000E+00  0.00000000E+00  1.60000000E+01
  1.00800000E+00  1.00800000E+00  0.00000000E+00  1.60000000E+01  1.00800000E+00
  1.00800000E+00  0.00000000E+00  1.60000000E+01  1.00800000E+00  1.00800000E+00
  0.00000000E+00  1.60000000E+01  1.00800000E+00  1.00800000E+00  0.00000000E+00
  1.60000000E+01  1.00800000E+00  1.00800000E+00  0.00000000E+00  1.60000000E+01
  1.00800000E+00  1.00800000E+00  0.00000000E+00  1.60000000E+01  1.00800000E+00
  1.00800000E+00  0.00000000E+00  1.60000000E+01  1.00800000E+00  1.00800000E+00
  0.00000000E+00  1.60000000E+01  1.00800000E+00  1.00800000E+00  0.00000000E+00
  1.60000000E+01  1.00800000E+00  1.00800000E+00  0.00000000E+00  1.60000000E+01
  1.00800000E+00  1.00800000E+00  0.00000000E+00  1.60000000E+01  1.00800000E+00
  1.00800000E+00  0.00000000E+00  1.60000000E+01  1.00800000E+00  1.00800000E+00
  0.00000000E+00  1.60000000E+01  1.00800000E+00  1.00800000E+00  0.00000000E+00
  1.60000000E+01  1.00800000E+00  1.00800000E+00  0.00000000E+00  1.60000000E+01
  1.00800000E+00  1.00800000E+00  0.00000000E+00  1.60000000E+01  1.00800000E+00
  1.00800000E+00  0.00000000E+00  1.60000000E+01  1.00800000E+00  1.00800000E+00
  0.00000000E+00  1.60000000E+01  1.00800000E+00  1.00800000E+00  0.00000000E+00
  1.60000000E+01  1.00800000E+00  1.00800000E+00  0.00000000E+00  1.60000000E+01
  1.00800000E+00  1.00800000E+00  0.00000000E+00  1.60000000E+01  1.00800000E+00
  1.00800000E+00  0.00000000E+00  1.60000000E+01  1.00800000E+00  1.00800000E+00
  0.00000000E+00  1.60000000E+01  1.00800000E+00  1.00800000E+00  0.00000000E+00
  1.60000000E+01  1.00800000E+00  1.00800000E+00  0.00000000E+00  1.60000000E+01
  1.00800000E+00  1.00800000E+00  0.00000000E+00  1.60000000E+01  1.00800000E+00
  1.00800000E+00  0.00000000E+00  1.60000000E+01  1.00800000E+00  1.00800000E+00
  0.00000000E+00  1.60000000E+01  1.00800000E+00  1.00800000E+00  0.00000000E+00
  1.60000000E+01  1.00800000E+00  1.00800000E+00  0.00000000E+00  1.60000000E+01
  1.00800000E+00  1.00800000E+00  0.00000000E+00  1.60000000E+01  1.00800000E+00
  1.00800000E+00  0.00000000E+00  1.60000000E+01  1.00800000E+00  1.00800000E+00
  0.00000000E+00  1.60000000E+01  1.00800000E+00  1.00800000E+00  0.00000000E+00
  1.60000000E+01  1.00800000E+00  1.00800000E+00  0.00000000E+00  1.60000000E+01
  1.00800000E+00  1.00800000E+00  0.00000000E+00  1.60000000E+01  1.00800000E+00
  1.00800000E+00  0.00000000E+00  1.60000000E+01  1.00800000E+00  1.00800000E+00
  0.00000000E+00  1.60000000E+01  1.00800000E+00  1.00800000E+00  0.00000000E+00
  1.60000000E+01  1.00800000E+00  1.00800000E+00  0.00000000E+00  1.60000000E+01
  1.00800000E+00  1.00800000E+00  0.00000000E+00  1.60000000E+01  1.00800000E+00
  1.00800000E+00  0.00000000E+00  1.60000000E+01  1.00800000E+00  1.00800000E+00
  0.00000000E+00  1.60000000E+01  1.00800000E+00  1.00800000E+00  0.00000000E+00
  1.60000000E+01  1.00800000E+00  1.00800000E+00  0.00000000E+00  1.60000000E+01
  1.00800000E+00  1.00800000E+00  0.00000000E+00  1.60000000E+01  1.00800000E+00
  1.00800000E+00  0.00000000E+00  1.60000000E+01  1.00800000E+00  1.00800000E+00
  0.00000000E+00  1.60000000E+01  1.00800000E+00  1.00800000E+00  0.00000000E+00
  1.60000000E+01  1.00800000E+00  1.00800000E+00  0.00000000E+00  1.60000000E+01
  1.00800000E+00  1.00800000E+00  0.00000000E+00  1.60000000E+01  1.00800000E+00
  1.00800000E+00  0.00000000E+00  1.60000000E+01  1.00800000E+00  1.00800000E+00
  0.00000000E+00  1.60000000E+01  1.00800000E+00  1.00800000E+00  0.00000000E+00
  1.60000000E+01  1.00800000E+00  1.00800000E+00  0.00000000E+00  1.60000000E+01
  1.00800000E+00  1.00800000E+00  0.00000000E+00  1.60000000E+01  1.00800000E+00
  1.00800000E+00  0.00000000E+00  1.60000000E+01  1.00800000E+00  1.00800000E+00
  0.00000000E+00  1.60000000E+01  1.00800000E+00  1.00800000E+00  0.00000000E+00
  1.60000000E+01  1.00800000E+00  1.00800000E+00  0.00000000E+00  1.60000000E+01
  1.00800000E+00  1.00800000E+00  0.00000000E+00  1.60000000E+01  1.00800000E+00
  1.00800000E+00  0.00000000E+00  1.60000000E+01  1.00800000E+00  1.00800000E+00
  0.00000000E+00  1.60000000E+01  1.00800000E+00  1.00800000E+00  0.00000000E+00
  1.60000000E+01  1.00800000E+00  1.00800000E+00  0.00000000E+00  1.60000000E+01
  1.00800000E+00  1.00800000E+00  0.00000000E+00  1.60000000E+01  1.00800000E+00
  1.00800000E+00  0.00000000E+00  1.60000000E+01  1.00800000E+00  1.00800000E+00
  0.00000000E+00  1.60000000E+01  1.00800000E+00  1.00800000E+00  0.00000000E+00
  1.60000000E+01  1.00800000E+00  1.00800000E+00  0.00000000E+00  1.60000000E+01
  1.00800000E+00  1.00800000E+00  0.00000000E+00  1.60000000E+01  1.00800000E+00
  1.00800000E+00  0.00000000E+00  1.60000000E+01  1.00800000E+00  1.00800000E+00
  0.00000000E+00  1.60000000E+01  1.00800000E+00  1.00800000E+00  0.00000000E+00
  1.60000000E+01  1.00800000E+00  1.00800000E+00  0.00000000E+00  1.60000000E+01
  1.00800000E+00  1.00800000E+00  0.00000000E+00  1.60000000E+01  1.00800000E+00
  1.00800000E+00  0.00000000E+00  1.60000000E+01  1.00800000E+00  1.00800000E+00
  0.00000000E+00  1.60000000E+01  1.00800000E+00  1.00800000E+00  0.00000000E+00
  1.60000000E+01  1.00800000E+00  1.00800000E+00  0.00000000E+00  1.60000000E+01
  1.00800000E+00  1.00800000E+00  0.00000000E+00  1.60000000E+01  1.00800000E+00
  1.00800000E+00  0.00000000E+00  1.60000000E+01  1.00800000E+00  1.00800000E+00
  0.00000000E+00  1.60000000E+01  1.00800000E+00  1.00800000E+00  0.00000000E+00
  1.60000000E+01  1.00800000E+00  1.00800000E+00  0.00000000E+00  1.60000000E+01
  1.00800000E+00  1.00800000E+00  0.00000000E+00  1.60000000E+01  1.00800000E+00
  1.00800000E+00  0.00000000E+00  1.60000000E+01  1.00800000E+00  1.00800000E+00
  0.00000000E+00  1.60000000E+01  1.00800000E+00  1.00800000E+00  0.00000000E+00
  1.60000000E+01  1.00800000E+00  1.00800000E+00  0.00000000E+00  1.60000000E+01
  1.00800000E+00  1.00800000E+00  0.00000000E+00  1.60000000E+01  1.00800000E+00
  1.00800000E+00  0.00000000E+00  1.60000000E+01  1.00800000E+00  1.00800000E+00
  0.00000000E+00  1.60000000E+01  1.00800000E+00  1.00800000E+00  0.00000000E+00
  1.60000000E+01  1.00800000E+00  1.00800000E+00  0.00000000E+00  1.60000000E+01
  1.00800000E+00  1.00800000E+00  0.00000000E+00  1.60000000E+01  1.00800000E+00
  1.00800000E+00  0.00000000E+00  1.60000000E+01  1.00800000E+00  1.00800000E+00
  0.00000000E+00  1.60000000E+01  1.00800000E+00  1.00800000E+00  0.00000000E+00
  1.60000000E+01  1.00800000E+00  1.00800000E+00  0.00000000E+00  1.60000000E+01
  1.00800000E+00  1.00800000E+00  0.00000000E+00  1.60000000E+01  1.00800000E+00
  1.00800000E+00  0.00000000E+00  1.60000000E+01  1.00800000E+00  1.00800000E+00
  0.00000000E+00  1.60000000E+01  1.00800000E+00  1.00800000E+00  0.00000000E+00
  1.60000000E+01  1.00800000E+00  1.00800000E+00  0.00000000E+00  1.60000000E+01
  1.00800000E+00  1.00800000E+00  0.00000000E+00  1.60000000E+01  1.00800000E+00
  1.00800000E+00  0.00000000E+00  1.60000000E+01  1.00800000E+00  1.00800000E+00
  0.00000000E+00  1.60000000E+01  1.00800000E+00  1.00800000E+00  0.00000000E+00
  1.60000000E+01  1.00800000E+00  1.00800000E+00  0.00000000E+00  1.60000000E+01
  1.00800000E+00  1.00800000E+00  0.00000000E+00  1.60000000E+01  1.00800000E+00
  1.00800000E+00  0.00000000E+00  1.60000000E+01  1.00800000E+00  1.00800000E+00
  0.00000000E+00  1.60000000E+01  1.00800000E+00  1.00800000E+00  0.00000000E+00
  1.60000000E+01  1.00800000E+00  1.00800000E+00  0.00000000E+00  1.60000000E+01
  1.00800000E+00  1.00800000E+00  0.00000000E+00  1.60000000E+01  1.00800000E+00
  1.00800000E+00  0.00000000E+00  1.60000000E+01  1.00800000E+00  1.00800000E+00
  0.00000000E+00  1.60000000E+01  1.00800000E+00  1.00800000E+00  0.00000000E+00
  1.60000000E+01  1.00800000E+00  1.00800000E+00  0.00000000E+00  1.60000000E+01
  1.00800000E+00  1.00800000E+00  0.00000000E+00  1.60000000E+01  1.00800000E+00
  1.00800000E+00  0.00000000E+00  1.60000000E+01  1.00800000E+00  1.00800000E+00
  0.00000000E+00  1.60000000E+01  1.00800000E+00  1.00800000E+00  0.00000000E+00
  1.60000000E+01  1.00800000E+00  1.00800000E+00  0.00000000E+00  1.60000000E+01
  1.00800000E+00  1.00800000E+00  0.00000000E+00  1.60000000E+01  1.00800000E+00
  1.00800000E+00  0.00000000E+00  1.60000000E+01  1.00800000E+00  1.00800000E+00
  0.00000000E+00  1.60000000E+01  1.00800000E+00  1.00800000E+00  0.00000000E+00
  1.60000000E+01  1.00800000E+00  1.00800000E+00  0.00000000E+00  1.60000000E+01
  1.00800000E+00  1.00800000E+00  0.00000000E+00  1.60000000E+01  1.00800000E+00
  1.00800000E+00  0.00000000E+00  1.60000000E+01  1.00800000E+00  1.00800000E+00
  0.00000000E+00  1.60000000E+01  1.00800000E+00  1.00800000E+00  0.00000000E+00
  1.60000000E+01  1.00800000E+00  1.00800000E+00  0.00000000E+00  1.60000000E+01
  1.00800000E+00  1.00800000E+00  0.00000000E+00  1.60000000E+01  1.00800000E+00
  1.00800000E+00  0.00000000E+00  1.60000000E+01  1.00800000E+00  1.00800000E+00
  0.00000000E+00  1.60000000E+01  1.00800000E+00  1.00800000E+00  0.00000000E+00
  1.60000000E+01  1.00800000E+00  1.00800000E+00  0.00000000E+00  1.60000000E+01
  1.00800000E+00  1.00800000E+00  0.00000000E+00  1.60000000E+01  1.00800000E+00
  1.00800000E+00  0.00000000E+00  1.60000000E+01  1.00800000E+00  1.00800000E+00
  0.00000000E+00  1.60000000E+01  1.00800000E+00  1.00800000E+00  0.00000000E+00
  1.60000000E+01  1.00800000E+00  1.00800000E+00  0.00000000E+00  1.60000000E+01
  1.00800000E+00  1.00800000E+00  0.00000000E+00  1.60000000E+01  1.00800000E+00
  1.00800000E+00  0.00000000E+00  1.60000000E+01  1.00800000E+00  1.00800000E+00
  0.00000000E+00  1.60000000E+01  1.00800000E+00  1.00800000E+00  0.00000000E+00
  1.60000000E+01  1.00800000E+00  1.00800000E+00  0.00000000E+00  1.60000000E+01
  1.00800000E+00  1.00800000E+00  0.00000000E+00  1.60000000E+01  1.00800000E+00
  1.00800000E+00  0.00000000E+00  1.60000000E+01  1.00800000E+00  1.00800000E+00
  0.00000000E+00  1.60000000E+01  1.00800000E+00  1.00800000E+00  0.00000000E+00
  1.60000000E+01  1.00800000E+00  1.00800000E+00  0.00000000E+00  1.60000000E+01
  1.00800000E+00  1.00800000E+00  0.00000000E+00  1.60000000E+01  1.00800000E+00
  1.00800000E+00  0.00000000E+00  1.60000000E+01  1.00800000E+00  1.00800000E+00
  0.00000000E+00  1.60000000E+01  1.00800000E+00  1.00800000E+00  0.00000000E+00
  1.60000000E+01  1.00800000E+00  1.00800000E+00  0.00000000E+00  1.60000000E+01
  1.00800000E+00  1.00800000E+00  0.00000000E+00  1.60000000E+01  1.00800000E+00
  1.00800000E+00  0.00000000E+00  1.60000000E+01  1.00800000E+00  1.00800000E+00
  0.00000000E+00  1.60000000E+01  1.00800000E+00  1.00800000E+00  0.00000000E+00
  1.60000000E+01  1.00800000E+00  1.00800000E+00  0.00000000E+00  1.60000000E+01
  1.00800000E+00  1.00800000E+00  0.00000000E+00  1.60000000E+01  1.00800000E+00
  1.00800000E+00  0.00000000E+00  1.60000000E+01  1.00800000E+00  1.00800000E+00
  0.00000000E+00  1.60000000E+01  1.00800000E+00  1.00800000E+00  0.00000000E+00
  1.60000000E+01  1.00800000E+00  1.00800000E+00  0.00000000E+00  1.60000000E+01
  1.00800000E+00  1.00800000E+00  0.00000000E+00  1.60000000E+01  1.00800000E+00
  1.00800000E+00  0.00000000E+00  1.60000000E+01  1.00800000E+00  1.00800000E+00
  0.00000000E+00  1.60000000E+01  1.00800000E+00  1.00800000E+00  0.00000000E+00
  1.60000000E+01  1.00800000E+00  1.00800000E+00  0.00000000E+00  1.60000000E+01
  1.00800000E+00  1.00800000E+00  0.00000000E+00  1.60000000E+01  1.00800000E+00
  1.00800000E+00  0.00000000E+00  1.60000000E+01  1.00800000E+00  1.00800000E+00
  0.00000000E+00  1.60000000E+01  1.00800000E+00  1.00800000E+00  0.00000000E+00
  1.60000000E+01  1.00800000E+00  1.00800000E+00  0.00000000E+00  1.60000000E+01
  1.00800000E+00  1.00800000E+00  0.00000000E+00  1.60000000E+01  1.00800000E+00
  1.00800000E+00  0.00000000E+00  1.60000000E+01  1.00800000E+00  1.00800000E+00
  0.00000000E+00  1.60000000E+01  1.00800000E+00  1.00800000E+00  0.00000000E+00
  1.60000000E+01  1.00800000E+00  1.00800000E+00  0.00000000E+00  1.60000000E+01
  1.00800000E+00  1.00800000E+00  0.00000000E+00  1.60000000E+01  1.00800000E+00
  1.00800000E+00  0.00000000E+00  1.60000000E+01  1.00800000E+00  1.00800000E+00
  0.00000000E+00  1.60000000E+01  1.00800000E+00  1.00800000E+00  0.00000000E+00
  1.60000000E+01  1.00800000E+00  1.00800000E+00  0.00000000E+00  1.60000000E+01
  1.00800000E+00  1.00800000E+00  0.00000000E+00  1.60000000E+01  1.00800000E+00
  1.00800000E+00  0.00000000E+00  1.60000000E+01  1.00800000E+00  1.00800000E+00
  0.00000000E+00  1.60000000E+01  1.00800000E+00  1.00800000E+00  0.00000000E+00
  1.60000000E+01  1.00800000E+00  1.00800000E+00  0.00000000E+00  1.60000000E+01
  1.00800000E+00  1.00800000E+00  0.00000000E+00  1.60000000E+01  1.00800000E+00
  1.00800000E+00  0.00000000E+00  1.60000000E+01  1.00800000E+00  1.00800000E+00
  0.00000000E+00  1.60000000E+01  1.00800000E+00  1.00800000E+00  0.00000000E+00
  1.60000000E+01  1.00800000E+00  1.00800000E+00  0.00000000E+00  1.60000000E+01
  1.00800000E+00  1.00800000E+00  0.00000000E+00  1.60000000E+01  1.00800000E+00
  1.00800000E+00  0.00000000E+00  1.60000000E+01  1.00800000E+00  1.00800000E+00
  0.00000000E+00  1.60000000E+01  1.00800000E+00  1.00800000E+00  0.00000000E+00
  1.60000000E+01  1.00800000E+00  1.00800000E+00  0.00000000E+00  1.60000000E+01
  1.00800000E+00  1.00800000E+00  0.00000000E+00  1.60000000E+01  1.00800000E+00
  1.00800000E+00  0.00000000E+00  1.60000000E+01  1.00800000E+00  1.00800000E+00
  0.00000000E+00  1.60000000E+01  1.00800000E+00  1.00800000E+00  0.00000000E+00
  1.60000000E+01  1.00800000E+00  1.00800000E+00  0.00000000E+00  1.60000000E+01
  1.00800000E+00  1.00800000E+00  0.00000000E+00  1.60000000E+01  1.00800000E+00
  1.00800000E+00  0.00000000E+00  1.60000000E+01  1.00800000E+00  1.00800000E+00
  0.00000000E+00  1.60000000E+01  1.00800000E+00  1.00800000E+00  0.00000000E+00
  1.60000000E+01  1.00800000E+00  1.00800000E+00  0.00000000E+00  1.60000000E+01
  1.00800000E+00  1.00800000E+00  0.00000000E+00  1.60000000E+01  1.00800000E+00
  1.00800000E+00  0.00000000E+00  1.60000000E+01  1.00800000E+00  1.00800000E+00
  0.00000000E+00  1.60000000E+01  1.00800000E+00  1.00800000E+00  0.00000000E+00
  1.60000000E+01  1.00800000E+00  1.00800000E+00  0.00000000E+00  1.60000000E+01
  1.00800000E+00  1.00800000E+00  0.00000000E+00  1.60000000E+01  1.00800000E+00
  1.00800000E+00  0.00000000E+00  1.60000000E+01  1.00800000E+00  1.00800000E+00
  0.00000000E+00  1.60000000E+01  1.00800000E+00  1.00800000E+00  0.00000000E+00
  1.60000000E+01  1.00800000E+00  1.00800000E+00  0.00000000E+00  1.60000000E+01
  1.00800000E+00  1.00800000E+00  0.00000000E+00  1.60000000E+01  1.00800000E+00
  1.00800000E+00  0.00000000E+00  1.60000000E+01  1.00800000E+00  1.00800000E+00
  0.00000000E+00  1.60000000E+01  1.00800000E+00  1.00800000E+00  0.00000000E+00
  1.60000000E+01  1.00800000E+00  1.00800000E+00  0.00000000E+00  1.60000000E+01
  1.00800000E+00  1.00800000E+00  0.00000000E+00  1.60000000E+01  1.00800000E+00
  1.00800000E+00  0.00000000E+00  1.60000000E+01  1.00800000E+00  1.00800000E+00
  0.00000000E+00  1.60000000E+01  1.00800000E+00  1.00800000E+00  0.00000000E+00
  1.60000000E+01  1.00800000E+00  1.00800000E+00  0.00000000E+00  1.60000000E+01
  1.00800000E+00  1.00800000E+00  0.00000000E+00  1.60000000E+01  1.00800000E+00
  1.00800000E+00  0.00000000E+00  1.60000000E+01  1.00800000E+00  1.00800000E+00
  0.00000000E+00  1.60000000E+01  1.00800000E+00  1.00800000E+00  0.00000000E+00
  1.60000000E+01  1.00800000E+00  1.00800000E+00  0.00000000E+00  1.60000000E+01
  1.00800000E+00  1.00800000E+00  0.00000000E+00  1.60000000E+01  1.00800000E+00
  1.00800000E+00  0.00000000E+00  1.60000000E+01  1.00800000E+00  1.00800000E+00
  0.00000000E+00  1.60000000E+01  1.00800000E+00  1.00800000E+00  0.00000000E+00
  1.60000000E+01  1.00800000E+00  1.00800000E+00  0.00000000E+00  1.60000000E+01
  1.00800000E+00  1.00800000E+00  0.00000000E+00  1.60000000E+01  1.00800000E+00
  1.00800000E+00  0.00000000E+00  1.60000000E+01  1.00800000E+00  1.00800000E+00
  0.00000000E+00  1.60000000E+01  1.00800000E+00  1.00800000E+00  0.00000000E+00
  1.60000000E+01  1.00800000E+00  1.00800000E+00  0.00000000E+00  1.60000000E+01
  1.00800000E+00  1.00800000E+00  0.00000000E+00  1.60000000E+01  1.00800000E+00
  1.00800000E+00  0.00000000E+00  1.60000000E+01  1.00800000E+00  1.00800000E+00
  0.00000000E+00  1.60000000E+01  1.00800000E+00  1.00800000E+00  0.00000000E+00
  1.60000000E+01  1.00800000E+00  1.00800000E+00  0.00000000E+00  1.60000000E+01
  1.00800000E+00  1.00800000E+00  0.00000000E+00  1.60000000E+01  1.00800000E+00
  1.00800000E+00  0.00000000E+00  1.60000000E+01  1.00800000E+00  1.00800000E+00
  0.00000000E+00  1.60000000E+01  1.00800000E+00  1.00800000E+00  0.00000000E+00
  1.60000000E+01  1.00800000E+00  1.00800000E+00  0.00000000E+00  1.60000000E+01
  1.00800000E+00  1.00800000E+00  0.00000000E+00  1.60000000E+01  1.00800000E+00
  1.00800000E+00  0.00000000E+00  1.60000000E+01  1.00800000E+00  1.00800000E+00
  0.00000000E+00  1.60000000E+01  1.00800000E+00  1.00800000E+00  0.00000000E+00
  1.60000000E+01  1.00800000E+00  1.00800000E+00  0.00000000E+00  1.60000000E+01
  1.00800000E+00  1.00800000E+00  0.00000000E+00  1.60000000E+01  1.00800000E+00
  1.00800000E+00  0.00000000E+00  1.60000000E+01  1.00800000E+00  1.00800000E+00
  0.00000000E+00  1.60000000E+01  1.00800000E+00  1.00800000E+00  0.00000000E+00
  1.60000000E+01  1.00800000E+00  1.00800000E+00  0.00000000E+00  1.60000000E+01
  1.00800000E+00  1.00800000E+00  0.00000000E+00  1.60000000E+01  1.00800000E+00
  1.00800000E+00  0.00000000E+00  1.60000000E+01  1.00800000E+00  1.00800000E+00
  0.00000000E+00  1.60000000E+01  1.00800000E+00  1.00800000E+00  0.00000000E+00
  1.60000000E+01  1.00800000E+00  1.00800000E+00  0.00000000E+00  1.60000000E+01
  1.00800000E+00  1.00800000E+00  0.00000000E+00  1.60000000E+01  1.00800000E+00
  1.00800000E+00  0.00000000E+00  1.60000000E+01  1.00800000E+00  1.00800000E+00
  0.00000000E+00  1.60000000E+01  1.00800000E+00  1.00800000E+00  0.00000000E+00
  1.60000000E+01  1.00800000E+00  1.00800000E+00  0.00000000E+00  1.60000000E+01
  1.00800000E+00  1.00800000E+00  0.00000000E+00  1.60000000E+01  1.00800000E+00
  1.00800000E+00  0.00000000E+00  1.60000000E+01  1.00800000E+00  1.00800000E+00
  0.00000000E+00  1.60000000E+01  1.00800000E+00  1.00800000E+00  0.00000000E+00
  1.60000000E+01  1.00800000E+00  1.00800000E+00  0.00000000E+00  1.60000000E+01
  1.00800000E+00  1.00800000E+00  0.00000000E+00  1.60000000E+01  1.00800000E+00
  1.00800000E+00  0.00000000E+00  1.60000000E+01  1.00800000E+00  1.00800000E+00
  0.00000000E+00  1.60000000E+01  1.00800000E+00  1.00800000E+00  0.00000000E+00
  1.60000000E+01  1.00800000E+00  1.00800000E+00  0.00000000E+00  1.60000000E+01
  1.00800000E+00  1.00800000E+00  0.00000000E+00  1.60000000E+01  1.00800000E+00
  1.00800000E+00  0.00000000E+00  1.60000000E+01  1.00800000E+00  1.00800000E+00
  0.00000000E+00  1.60000000E+01  1.00800000E+00  1.00800000E+00  0.00000000E+00
  1.60000000E+01  1.00800000E+00  1.00800000E+00  0.00000000E+00  1.60000000E+01
  1.00800000E+00  1.00800000E+00  0.00000000E+00  1.60000000E+01  1.00800000E+00
  1.00800000E+00  0.00000000E+00  1.60000000E+01  1.00800000E+00  1.00800000E+00
  0.00000000E+00  1.60000000E+01  1.00800000E+00  1.00800000E+00  0.00000000E+00
  1.60000000E+01  1.00800000E+00  1.00800000E+00  0.00000000E+00  1.60000000E+01
  1.00800000E+00  1.00800000E+00  0.00000000E+00  1.60000000E+01  1.00800000E+00
  1.00800000E+00  0.00000000E+00  1.60000000E+01  1.00800000E+00  1.00800000E+00
  0.00000000E+00  1.60000000E+01  1.00800000E+00  1.00800000E+00  0.00000000E+00
  1.60000000E+01  1.00800000E+00  1.00800000E+00  0.00000000E+00  1.60000000E+01
  1.00800000E+00  1.00800000E+00  0.00000000E+00  1.60000000E+01  1.00800000E+00
  1.00800000E+00  0.00000000E+00  1.60000000E+01  1.00800000E+00  1.00800000E+00
  0.00000000E+00  1.60000000E+01  1.00800000E+00  1.00800000E+00  0.00000000E+00
  1.60000000E+01  1.00800000E+00  1.00800000E+00  0.00000000E+00  1.60000000E+01
  1.00800000E+00  1.00800000E+00  0.00000000E+00  1.60000000E+01  1.00800000E+00
  1.00800000E+00  0.00000000E+00  1.60000000E+01  1.00800000E+00  1.00800000E+00
  0.00000000E+00  1.60000000E+01  1.00800000E+00  1.00800000E+00  0.00000000E+00
  1.60000000E+01  1.00800000E+00  1.00800000E+00  0.00000000E+00  1.60000000E+01
  1.00800000E+00  1.00800000E+00  0.00000000E+00  1.60000000E+01  1.00800000E+00
  1.00800000E+00  0.00000000E+00  1.60000000E+01  1.00800000E+00  1.00800000E+00
  0.00000000E+00  1.60000000E+01  1.00800000E+00  1.00800000E+00  0.00000000E+00
  1.60000000E+01  1.00800000E+00  1.00800000E+00  0.00000000E+00  1.60000000E+01
  1.00800000E+00  1.00800000E+00  0.00000000E+00  1.60000000E+01  1.00800000E+00
  1.00800000E+00  0.00000000E+00  1.60000000E+01  1.00800000E+00  1.00800000E+00
  0.00000000E+00  1.60000000E+01  1.00800000E+00  1.00800000E+00  0.00000000E+00
  1.60000000E+01  1.00800000E+00  1.00800000E+00  0.00000000E+00  1.60000000E+01
  1.00800000E+00  1.00800000E+00  0.00000000E+00  1.60000000E+01  1.00800000E+00
  1.00800000E+00  0.00000000E+00  1.60000000E+01  1.00800000E+00  1.00800000E+00
  0.00000000E+00  1.60000000E+01  1.00800000E+00  1.00800000E+00  0.00000000E+00
  1.60000000E+01  1.00800000E+00  1.00800000E+00  0.00000000E+00  1.60000000E+01
  1.00800000E+00  1.00800000E+00  0.00000000E+00  1.60000000E+01  1.00800000E+00
  1.00800000E+00  0.00000000E+00  1.60000000E+01  1.00800000E+00  1.00800000E+00
  0.00000000E+00  1.60000000E+01  1.00800000E+00  1.00800000E+00  0.00000000E+00
  1.60000000E+01  1.00800000E+00  1.00800000E+00  0.00000000E+00  1.60000000E+01
  1.00800000E+00  1.00800000E+00  0.00000000E+00  1.60000000E+01  1.00800000E+00
  1.00800000E+00  0.00000000E+00  1.60000000E+01  1.00800000E+00  1.00800000E+00
  0.00000000E+00  1.60000000E+01  1.00800000E+00  1.00800000E+00  0.00000000E+00
  1.60000000E+01  1.00800000E+00  1.00800000E+00  0.00000000E+00  1.60000000E+01
  1.00800000E+00  1.00800000E+00  0.00000000E+00  1.60000000E+01  1.00800000E+00
  1.00800000E+00  0.00000000E+00  1.60000000E+01  1.00800000E+00  1.00800000E+00
  0.00000000E+00  1.60000000E+01  1.00800000E+00  1.00800000E+00  0.00000000E+00
  1.60000000E+01  1.00800000E+00  1.00800000E+00  0.00000000E+00  1.60000000E+01
  1.00800000E+00  1.00800000E+00  0.00000000E+00  1.60000000E+01  1.00800000E+00
  1.00800000E+00  0.00000000E+00  1.60000000E+01  1.00800000E+00  1.00800000E+00
  0.00000000E+00  1.60000000E+01  1.00800000E+00  1.00800000E+00  0.00000000E+00
  1.60000000E+01  1.00800000E+00  1.00800000E+00  0.00000000E+00  1.60000000E+01
  1.00800000E+00  1.00800000E+00  0.00000000E+00  1.60000000E+01  1.00800000E+00
  1.00800000E+00  0.00000000E+00  1.60000000E+01  1.00800000E+00  1.00800000E+00
  0.00000000E+00  1.60000000E+01  1.00800000E+00  1.00800000E+00  0.00000000E+00
  1.60000000E+01  1.00800000E+00  1.00800000E+00  0.00000000E+00  1.60000000E+01
  1.00800000E+00  1.00800000E+00  0.00000000E+00  1.60000000E+01  1.00800000E+00
  1.00800000E+00  0.00000000E+00  1.60000000E+01  1.00800000E+00  1.00800000E+00
  0.00000000E+00  1.60000000E+01  1.00800000E+00  1.00800000E+00  0.00000000E+00
  1.60000000E+01  1.00800000E+00  1.00800000E+00  0.00000000E+00  1.60000000E+01
  1.00800000E+00  1.00800000E+00  0.00000000E+00  1.60000000E+01  1.00800000E+00
  1.00800000E+00  0.00000000E+00  1.60000000E+01  1.00800000E+00  1.00800000E+00
  0.00000000E+00  1.60000000E+01  1.00800000E+00  1.00800000E+00  0.00000000E+00
  1.60000000E+01  1.00800000E+00  1.00800000E+00  0.00000000E+00  1.60000000E+01
  1.00800000E+00  1.00800000E+00  0.00000000E+00  1.60000000E+01  1.00800000E+00
  1.00800000E+00  0.00000000E+00  1.60000000E+01  1.00800000E+00  1.00800000E+00
  0.00000000E+00  1.60000000E+01  1.00800000E+00  1.00800000E+00  0.00000000E+00
  1.60000000E+01  1.00800000E+00  1.00800000E+00  0.00000000E+00  1.60000000E+01
  1.00800000E+00  1.00800000E+00  0.00000000E+00  1.60000000E+01  1.00800000E+00
  1.00800000E+00  0.00000000E+00  1.60000000E+01  1.00800000E+00  1.00800000E+00
  0.00000000E+00  1.60000000E+01  1.00800000E+00  1.00800000E+00  0.00000000E+00
  1.60000000E+01  1.00800000E+00  1.00800000E+00  0.00000000E+00  1.60000000E+01
  1.00800000E+00  1.00800000E+00  0.00000000E+00  1.60000000E+01  1.00800000E+00
  1.00800000E+00  0.00000000E+00  1.60000000E+01  1.00800000E+00  1.00800000E+00
  0.00000000E+00  1.60000000E+01  1.00800000E+00  1.00800000E+00  0.00000000E+00
  1.60000000E+01  1.00800000E+00  1.00800000E+00  0.00000000E+00  1.60000000E+01
  1.00800000E+00  1.00800000E+00  0.00000000E+00  1.60000000E+01  1.00800000E+00
  1.00800000E+00  0.00000000E+00  1.60000000E+01  1.00800000E+00  1.00800000E+00
  0.00000000E+00  1.60000000E+01  1.00800000E+00  1.00800000E+00  0.00000000E+00
  1.60000000E+01  1.00800000E+00  1.00800000E+00  0.00000000E+00  1.60000000E+01
  1.00800000E+00  1.00800000E+00  0.00000000E+00  1.60000000E+01  1.00800000E+00
  1.00800000E+00  0.00000000E+00  1.60000000E+01  1.00800000E+00  1.00800000E+00
  0.00000000E+00  1.60000000E+01  1.00800000E+00  1.00800000E+00  0.00000000E+00
  1.60000000E+01  1.00800000E+00  1.00800000E+00  0.00000000E+00  1.60000000E+01
  1.00800000E+00  1.00800000E+00  0.00000000E+00  1.60000000E+01  1.00800000E+00
  1.00800000E+00  0.00000000E+00  1.60000000E+01  1.00800000E+00  1.00800000E+00
  0.00000000E+00  1.60000000E+01  1.00800000E+00  1.00800000E+00  0.00000000E+00
  1.60000000E+01  1.00800000E+00  1.00800000E+00  0.00000000E+00  1.60000000E+01
  1.00800000E+00  1.00800000E+00  0.00000000E+00  1.60000000E+01  1.00800000E+00
  1.00800000E+00  0.00000000E+00  1.60000000E+01  1.00800000E+00  1.00800000E+00
  0.00000000E+00  1.60000000E+01  1.00800000E+00  1.00800000E+00  0.00000000E+00
  1.60000000E+01  1.00800000E+00  1.00800000E+00  0.00000000E+00  1.60000000E+01
  1.00800000E+00  1.00800000E+00  0.00000000E+00  1.60000000E+01  1.00800000E+00
  1.00800000E+00  0.00000000E+00  1.60000000E+01  1.00800000E+00  1.00800000E+00
  0.00000000E+00  1.60000000E+01  1.00800000E+00  1.00800000E+00  0.00000000E+00
  1.60000000E+01  1.00800000E+00  1.00800000E+00  0.00000000E+00  1.60000000E+01
  1.00800000E+00  1.00800000E+00  0.00000000E+00  1.60000000E+01  1.00800000E+00
  1.00800000E+00  0.00000000E+00  1.60000000E+01  1.00800000E+00  1.00800000E+00
  0.00000000E+00  1.60000000E+01  1.00800000E+00  1.00800000E+00  0.00000000E+00
  1.60000000E+01  1.00800000E+00  1.00800000E+00  0.00000000E+00  1.60000000E+01
  1.00800000E+00  1.00800000E+00  0.00000000E+00  1.60000000E+01  1.00800000E+00
  1.00800000E+00  0.00000000E+00  1.60000000E+01  1.00800000E+00  1.00800000E+00
  0.00000000E+00  1.60000000E+01  1.00800000E+00  1.00800000E+00  0.00000000E+00
  1.60000000E+01  1.00800000E+00  1.00800000E+00  0.00000000E+00  1.60000000E+01
  1.00800000E+00  1.00800000E+00  0.00000000E+00  1.60000000E+01  1.00800000E+00
  1.00800000E+00  0.00000000E+00  1.60000000E+01  1.00800000E+00  1.00800000E+00
  0.00000000E+00  1.60000000E+01  1.00800000E+00  1.00800000E+00  0.00000000E+00
  1.60000000E+01  1.00800000E+00  1.00800000E+00  0.00000000E+00  1.60000000E+01
  1.00800000E+00  1.00800000E+00  0.00000000E+00  1.60000000E+01  1.00800000E+00
  1.00800000E+00  0.00000000E+00  1.60000000E+01  1.00800000E+00  1.00800000E+00
  0.00000000E+00  1.60000000E+01  1.00800000E+00  1.00800000E+00  0.00000000E+00
  1.60000000E+01  1.00800000E+00  1.00800000E+00  0.00000000E+00  1.60000000E+01
  1.00800000E+00  1.00800000E+00  0.00000000E+00  1.60000000E+01  1.00800000E+00
  1.00800000E+00  0.00000000E+00  1.60000000E+01  1.00800000E+00  1.00800000E+00
  0.00000000E+00  1.60000000E+01  1.00800000E+00  1.00800000E+00  0.00000000E+00
  1.60000000E+01  1.00800000E+00  1.00800000E+00  0.00000000E+00  1.60000000E+01
  1.00800000E+00  1.00800000E+00  0.00000000E+00  1.60000000E+01  1.00800000E+00
  1.00800000E+00  0.00000000E+00  1.60000000E+01  1.00800000E+00  1.00800000E+00
  0.00000000E+00  1.60000000E+01  1.00800000E+00  1.00800000E+00  0.00000000E+00
  1.60000000E+01  1.00800000E+00  1.00800000E+00  0.00000000E+00  1.60000000E+01
  1.00800000E+00  1.00800000E+00  0.00000000E+00  1.60000000E+01  1.00800000E+00
  1.00800000E+00  0.00000000E+00  1.60000000E+01  1.00800000E+00  1.00800000E+00
  0.00000000E+00  1.60000000E+01  1.00800000E+00  1.00800000E+00  0.00000000E+00
  1.60000000E+01  1.00800000E+00  1.00800000E+00  0.00000000E+00  1.60000000E+01
  1.00800000E+00  1.00800000E+00  0.00000000E+00  1.60000000E+01  1.00800000E+00
  1.00800000E+00  0.00000000E+00  1.60000000E+01  1.00800000E+00  1.00800000E+00
  0.00000000E+00  1.60000000E+01  1.00800000E+00  1.00800000E+00  0.00000000E+00
  1.60000000E+01  1.00800000E+00  1.00800000E+00  0.00000000E+00  1.60000000E+01
  1.00800000E+00  1.00800000E+00  0.00000000E+00  1.60000000E+01  1.00800000E+00
  1.00800000E+00  0.00000000E+00  1.60000000E+01  1.00800000E+00  1.00800000E+00
  0.00000000E+00  1.60000000E+01  1.00800000E+00  1.00800000E+00  0.00000000E+00
  1.60000000E+01  1.00800000E+00  1.00800000E+00  0.00000000E+00  1.60000000E+01
  1.00800000E+00  1.00800000E+00  0.00000000E+00  1.60000000E+01  1.00800000E+00
  1.00800000E+00  0.00000000E+00  1.60000000E+01  1.00800000E+00  1.00800000E+00
  0.00000000E+00  1.60000000E+01  1.00800000E+00  1.00800000E+00  0.00000000E+00
  1.60000000E+01  1.00800000E+00  1.00800000E+00  0.00000000E+00  1.60000000E+01
  1.00800000E+00  1.00800000E+00  0.00000000E+00  1.60000000E+01  1.00800000E+00
  1.00800000E+00  0.00000000E+00  1.60000000E+01  1.00800000E+00  1.00800000E+00
  0.00000000E+00  1.60000000E+01  1.00800000E+00  1.00800000E+00  0.00000000E+00
  1.60000000E+01  1.00800000E+00  1.00800000E+00  0.00000000E+00  1.60000000E+01
  1.00800000E+00  1.00800000E+00  0.00000000E+00  1.60000000E+01  1.00800000E+00
  1.00800000E+00  0.00000000E+00  1.60000000E+01  1.00800000E+00  1.00800000E+00
  0.00000000E+00  1.60000000E+01  1.00800000E+00  1.00800000E+00  0.00000000E+00
  1.60000000E+01  1.00800000E+00  1.00800000E+00  0.00000000E+00  1.60000000E+01
  1.00800000E+00  1.00800000E+00  0.00000000E+00  1.60000000E+01  1.00800000E+00
  1.00800000E+00  0.00000000E+00  1.60000000E+01  1.00800000E+00  1.00800000E+00
  0.00000000E+00  1.60000000E+01  1.00800000E+00  1.00800000E+00  0.00000000E+00
  1.60000000E+01  1.00800000E+00  1.00800000E+00  0.00000000E+00  1.60000000E+01
  1.00800000E+00  1.00800000E+00  0.00000000E+00  1.60000000E+01  1.00800000E+00
  1.00800000E+00  0.00000000E+00  1.60000000E+01  1.00800000E+00  1.00800000E+00
  0.00000000E+00  1.60000000E+01  1.00800000E+00  1.00800000E+00  0.00000000E+00
  1.60000000E+01  1.00800000E+00  1.00800000E+00  0.00000000E+00  1.60000000E+01
  1.00800000E+00  1.00800000E+00  0.00000000E+00  1.60000000E+01  1.00800000E+00
  1.00800000E+00  0.00000000E+00  1.60000000E+01  1.00800000E+00  1.00800000E+00
  0.00000000E+00  1.60000000E+01  1.00800000E+00  1.00800000E+00  0.00000000E+00
  1.60000000E+01  1.00800000E+00  1.00800000E+00  0.00000000E+00  1.60000000E+01
  1.00800000E+00  1.00800000E+00  0.00000000E+00  1.60000000E+01  1.00800000E+00
  1.00800000E+00  0.00000000E+00  1.60000000E+01  1.00800000E+00  1.00800000E+00
  0.00000000E+00  1.60000000E+01  1.00800000E+00  1.00800000E+00  0.00000000E+00
  1.60000000E+01  1.00800000E+00  1.00800000E+00  0.00000000E+00  1.60000000E+01
  1.00800000E+00  1.00800000E+00  0.00000000E+00  1.60000000E+01  1.00800000E+00
  1.00800000E+00  0.00000000E+00  1.60000000E+01  1.00800000E+00  1.00800000E+00
  0.00000000E+00  1.60000000E+01  1.00800000E+00  1.00800000E+00  0.00000000E+00
  1.60000000E+01  1.00800000E+00  1.00800000E+00  0.00000000E+00  1.60000000E+01
  1.00800000E+00  1.00800000E+00  0.00000000E+00  1.60000000E+01  1.00800000E+00
  1.00800000E+00  0.00000000E+00  1.60000000E+01  1.00800000E+00  1.00800000E+00
  0.00000000E+00  1.60000000E+01  1.00800000E+00  1.00800000E+00  0.00000000E+00
  1.60000000E+01  1.00800000E+00  1.00800000E+00  0.00000000E+00  1.60000000E+01
  1.00800000E+00  1.00800000E+00  0.00000000E+00  1.60000000E+01  1.00800000E+00
  1.00800000E+00  0.00000000E+00  1.60000000E+01  1.00800000E+00  1.00800000E+00
  0.00000000E+00  1.60000000E+01  1.00800000E+00  1.00800000E+00  0.00000000E+00
  1.60000000E+01  1.00800000E+00  1.00800000E+00  0.00000000E+00  1.60000000E+01
  1.00800000E+00  1.00800000E+00  0.00000000E+00  1.60000000E+01  1.00800000E+00
  1.00800000E+00  0.00000000E+00  1.60000000E+01  1.00800000E+00  1.00800000E+00
  0.00000000E+00  1.60000000E+01  1.00800000E+00  1.00800000E+00  0.00000000E+00
  1.60000000E+01  1.00800000E+00  1.00800000E+00  0.00000000E+00  1.60000000E+01
  1.00800000E+00  1.00800000E+00  0.00000000E+00  1.60000000E+01  1.00800000E+00
  1.00800000E+00  0.00000000E+00  1.60000000E+01  1.00800000E+00  1.00800000E+00
  0.00000000E+00  1.60000000E+01  1.00800000E+00  1.00800000E+00  0.00000000E+00
  1.60000000E+01  1.00800000E+00  1.00800000E+00  0.00000000E+00  1.60000000E+01
  1.00800000E+00  1.00800000E+00  0.00000000E+00  1.60000000E+01  1.00800000E+00
  1.00800000E+00  0.00000000E+00  1.60000000E+01  1.00800000E+00  1.00800000E+00
  0.00000000E+00  1.60000000E+01  1.00800000E+00  1.00800000E+00  0.00000000E+00
  1.60000000E+01  1.00800000E+00  1.00800000E+00  0.00000000E+00  1.60000000E+01
  1.00800000E+00  1.00800000E+00  0.00000000E+00  1.60000000E+01  1.00800000E+00
  1.00800000E+00  0.00000000E+00  1.60000000E+01  1.00800000E+00  1.00800000E+00
  0.00000000E+00  1.60000000E+01  1.00800000E+00  1.00800000E+00  0.00000000E+00
  1.60000000E+01  1.00800000E+00  1.00800000E+00  0.00000000E+00  1.60000000E+01
  1.00800000E+00  1.00800000E+00  0.00000000E+00  1.60000000E+01  1.00800000E+00
  1.00800000E+00  0.00000000E+00  1.60000000E+01  1.00800000E+00  1.00800000E+00
  0.00000000E+00  1.60000000E+01  1.00800000E+00  1.00800000E+00  0.00000000E+00
  1.60000000E+01  1.00800000E+00  1.00800000E+00  0.00000000E+00  1.60000000E+01
  1.00800000E+00  1.00800000E+00  0.00000000E+00  1.60000000E+01  1.00800000E+00
  1.00800000E+00  0.00000000E+00  1.60000000E+01  1.00800000E+00  1.00800000E+00
  0.00000000E+00  1.60000000E+01  1.00800000E+00  1.00800000E+00  0.00000000E+00
  1.60000000E+01  1.00800000E+00  1.00800000E+00  0.00000000E+00  1.60000000E+01
  1.00800000E+00  1.00800000E+00  0.00000000E+00  1.60000000E+01  1.00800000E+00
  1.00800000E+00  0.00000000E+00  1.60000000E+01  1.00800000E+00  1.00800000E+00
  0.00000000E+00  1.60000000E+01  1.00800000E+00  1.00800000E+00  0.00000000E+00
  1.60000000E+01  1.00800000E+00  1.00800000E+00  0.00000000E+00  1.60000000E+01
  1.00800000E+00  1.00800000E+00  0.00000000E+00  1.60000000E+01  1.00800000E+00
  1.00800000E+00  0.00000000E+00  1.60000000E+01  1.00800000E+00  1.00800000E+00
  0.00000000E+00  1.60000000E+01  1.00800000E+00  1.00800000E+00  0.00000000E+00
  1.60000000E+01  1.00800000E+00  1.00800000E+00  0.00000000E+00  1.60000000E+01
  1.00800000E+00  1.00800000E+00  0.00000000E+00  1.60000000E+01  1.00800000E+00
  1.00800000E+00  0.00000000E+00  1.60000000E+01  1.00800000E+00  1.00800000E+00
  0.00000000E+00  1.60000000E+01  1.00800000E+00  1.00800000E+00  0.00000000E+00
  1.60000000E+01  1.00800000E+00  1.00800000E+00  0.00000000E+00  1.60000000E+01
  1.00800000E+00  1.00800000E+00  0.00000000E+00  1.60000000E+01  1.00800000E+00
  1.00800000E+00  0.00000000E+00  1.60000000E+01  1.00800000E+00  1.00800000E+00
  0.00000000E+00  1.60000000E+01  1.00800000E+00  1.00800000E+00  0.00000000E+00
  1.60000000E+01  1.00800000E+00  1.00800000E+00  0.00000000E+00  1.60000000E+01
  1.00800000E+00  1.00800000E+00  0.00000000E+00  1.60000000E+01  1.00800000E+00
  1.00800000E+00  0.00000000E+00  1.60000000E+01  1.00800000E+00  1.00800000E+00
  0.00000000E+00  1.60000000E+01  1.00800000E+00  1.00800000E+00  0.00000000E+00
  1.60000000E+01  1.00800000E+00  1.00800000E+00  0.00000000E+00  1.60000000E+01
  1.00800000E+00  1.00800000E+00  0.00000000E+00  1.60000000E+01  1.00800000E+00
  1.00800000E+00  0.00000000E+00  1.60000000E+01  1.00800000E+00  1.00800000E+00
  0.00000000E+00  1.60000000E+01  1.00800000E+00  1.00800000E+00  0.00000000E+00
  1.60000000E+01  1.00800000E+00  1.00800000E+00  0.00000000E+00  1.60000000E+01
  1.00800000E+00  1.00800000E+00  0.00000000E+00  1.60000000E+01  1.00800000E+00
  1.00800000E+00  0.00000000E+00  1.60000000E+01  1.00800000E+00  1.00800000E+00
  0.00000000E+00  1.60000000E+01  1.00800000E+00  1.00800000E+00  0.00000000E+00
  1.60000000E+01  1.00800000E+00  1.00800000E+00  0.00000000E+00  1.60000000E+01
  1.00800000E+00  1.00800000E+00  0.00000000E+00  1.60000000E+01  1.00800000E+00
  1.00800000E+00  0.00000000E+00  1.60000000E+01  1.00800000E+00  1.00800000E+00
  0.00000000E+00  1.60000000E+01  1.00800000E+00  1.00800000E+00  0.00000000E+00
  1.60000000E+01  1.00800000E+00  1.00800000E+00  0.00000000E+00  1.60000000E+01
  1.00800000E+00  1.00800000E+00  0.00000000E+00  1.60000000E+01  1.00800000E+00
  1.00800000E+00  0.00000000E+00  1.60000000E+01  1.00800000E+00  1.00800000E+00
  0.00000000E+00  1.60000000E+01  1.00800000E+00  1.00800000E+00  0.00000000E+00
  1.60000000E+01  1.00800000E+00  1.00800000E+00  0.00000000E+00  1.60000000E+01
  1.00800000E+00  1.00800000E+00  0.00000000E+00  1.60000000E+01  1.00800000E+00
  1.00800000E+00  0.00000000E+00  1.60000000E+01  1.00800000E+00  1.00800000E+00
  0.00000000E+00  1.60000000E+01  1.00800000E+00  1.00800000E+00  0.00000000E+00
  1.60000000E+01  1.00800000E+00  1.00800000E+00  0.00000000E+00  1.60000000E+01
  1.00800000E+00  1.00800000E+00  0.00000000E+00  1.60000000E+01  1.00800000E+00
  1.00800000E+00  0.00000000E+00  1.60000000E+01  1.00800000E+00  1.00800000E+00
  0.00000000E+00  1.60000000E+01  1.00800000E+00  1.00800000E+00  0.00000000E+00
  1.60000000E+01  1.00800000E+00  1.00800000E+00  0.00000000E+00  1.60000000E+01
  1.00800000E+00  1.00800000E+00  0.00000000E+00  1.60000000E+01  1.00800000E+00
  1.00800000E+00  0.00000000E+00  1.60000000E+01  1.00800000E+00  1.00800000E+00
  0.00000000E+00  1.60000000E+01  1.00800000E+00  1.00800000E+00  0.00000000E+00
  1.60000000E+01  1.00800000E+00  1.00800000E+00  0.00000000E+00  1.60000000E+01
  1.00800000E+00  1.00800000E+00  0.00000000E+00  1.60000000E+01  1.00800000E+00
  1.00800000E+00  0.00000000E+00  1.60000000E+01  1.00800000E+00  1.00800000E+00
  0.00000000E+00  1.60000000E+01  1.00800000E+00  1.00800000E+00  0.00000000E+00
  1.60000000E+01  1.00800000E+00  1.00800000E+00  0.00000000E+00  1.60000000E+01
  1.00800000E+00  1.00800000E+00  0.00000000E+00  1.60000000E+01  1.00800000E+00
  1.00800000E+00  0.00000000E+00  1.60000000E+01  1.00800000E+00  1.00800000E+00
  0.00000000E+00  1.60000000E+01  1.00800000E+00  1.00800000E+00  0.00000000E+00
  1.60000000E+01  1.00800000E+00  1.00800000E+00  0.00000000E+00  1.60000000E+01
  1.00800000E+00  1.00800000E+00  0.00000000E+00  1.60000000E+01  1.00800000E+00
  1.00800000E+00  0.00000000E+00  1.60000000E+01  1.00800000E+00  1.00800000E+00
  0.00000000E+00  1.60000000E+01  1.00800000E+00  1.00800000E+00  0.00000000E+00
  1.60000000E+01  1.00800000E+00  1.00800000E+00  0.00000000E+00  1.60000000E+01
  1.00800000E+00  1.00800000E+00  0.00000000E+00  1.60000000E+01  1.00800000E+00
  1.00800000E+00  0.00000000E+00  1.60000000E+01  1.00800000E+00  1.00800000E+00
  0.00000000E+00  1.60000000E+01  1.00800000E+00  1.00800000E+00  0.00000000E+00
  1.60000000E+01  1.00800000E+00  1.00800000E+00  0.00000000E+00  1.60000000E+01
  1.00800000E+00  1.00800000E+00  0.00000000E+00  1.60000000E+01  1.00800000E+00
  1.00800000E+00  0.00000000E+00  1.60000000E+01  1.00800000E+00  1.00800000E+00
  0.00000000E+00  1.60000000E+01  1.00800000E+00  1.00800000E+00  0.00000000E+00
  1.60000000E+01  1.00800000E+00  1.00800000E+00  0.00000000E+00  1.60000000E+01
  1.00800000E+00  1.00800000E+00  0.00000000E+00  1.60000000E+01  1.00800000E+00
  1.00800000E+00  0.00000000E+00  1.60000000E+01  1.00800000E+00  1.00800000E+00
  0.00000000E+00  1.60000000E+01  1.00800000E+00  1.00800000E+00  0.00000000E+00
  1.60000000E+01  1.00800000E+00  1.00800000E+00  0.00000000E+00  1.60000000E+01
  1.00800000E+00  1.00800000E+00  0.00000000E+00  1.60000000E+01  1.00800000E+00
  1.00800000E+00  0.00000000E+00  1.60000000E+01  1.00800000E+00  1.00800000E+00
  0.00000000E+00  1.60000000E+01  1.00800000E+00  1.00800000E+00  0.00000000E+00
  1.60000000E+01  1.00800000E+00  1.00800000E+00  0.00000000E+00  1.60000000E+01
  1.00800000E+00  1.00800000E+00  0.00000000E+00  1.60000000E+01  1.00800000E+00
  1.00800000E+00  0.00000000E+00  1.60000000E+01  1.00800000E+00  1.00800000E+00
  0.00000000E+00  1.60000000E+01  1.00800000E+00  1.00800000E+00  0.00000000E+00
  1.60000000E+01  1.00800000E+00  1.00800000E+00  0.00000000E+00  1.60000000E+01
  1.00800000E+00  1.00800000E+00  0.00000000E+00  1.60000000E+01  1.00800000E+00
  1.00800000E+00  0.00000000E+00  1.60000000E+01  1.00800000E+00  1.00800000E+00
  0.00000000E+00  1.60000000E+01  1.00800000E+00  1.00800000E+00  0.00000000E+00
  1.60000000E+01  1.00800000E+00  1.00800000E+00  0.00000000E+00  1.60000000E+01
  1.00800000E+00  1.00800000E+00  0.00000000E+00  1.60000000E+01  1.00800000E+00
  1.00800000E+00  0.00000000E+00  1.60000000E+01  1.00800000E+00  1.00800000E+00
  0.00000000E+00  1.60000000E+01  1.00800000E+00  1.00800000E+00  0.00000000E+00
  1.60000000E+01  1.00800000E+00  1.00800000E+00  0.00000000E+00  1.60000000E+01
  1.00800000E+00  1.00800000E+00  0.00000000E+00  1.60000000E+01  1.00800000E+00
  1.00800000E+00  0.00000000E+00  1.60000000E+01  1.00800000E+00  1.00800000E+00
  0.00000000E+00  1.60000000E+01  1.00800000E+00  1.00800000E+00  0.00000000E+00
  1.60000000E+01  1.00800000E+00  1.00800000E+00  0.00000000E+00  1.60000000E+01
  1.00800000E+00  1.00800000E+00  0.00000000E+00  1.60000000E+01  1.00800000E+00
  1.00800000E+00  0.00000000E+00  1.60000000E+01  1.00800000E+00  1.00800000E+00
  0.00000000E+00  1.60000000E+01  1.00800000E+00  1.00800000E+00  0.00000000E+00
  1.60000000E+01  1.00800000E+00  1.00800000E+00  0.00000000E+00  1.60000000E+01
  1.00800000E+00  1.00800000E+00  0.00000000E+00  1.60000000E+01  1.00800000E+00
  1.00800000E+00  0.00000000E+00  1.60000000E+01  1.00800000E+00  1.00800000E+00
  0.00000000E+00  1.60000000E+01  1.00800000E+00  1.00800000E+00  0.00000000E+00
  1.60000000E+01  1.00800000E+00  1.00800000E+00  0.00000000E+00  1.60000000E+01
  1.00800000E+00  1.00800000E+00  0.00000000E+00  1.60000000E+01  1.00800000E+00
  1.00800000E+00  0.00000000E+00  1.60000000E+01  1.00800000E+00  1.00800000E+00
  0.00000000E+00  1.60000000E+01  1.00800000E+00  1.00800000E+00  0.00000000E+00
  1.60000000E+01  1.00800000E+00  1.00800000E+00  0.00000000E+00  1.60000000E+01
  1.00800000E+00  1.00800000E+00  0.00000000E+00  1.60000000E+01  1.00800000E+00
  1.00800000E+00  0.00000000E+00  1.60000000E+01  1.00800000E+00  1.00800000E+00
  0.00000000E+00  1.60000000E+01  1.00800000E+00  1.00800000E+00  0.00000000E+00
  1.60000000E+01  1.00800000E+00  1.00800000E+00  0.00000000E+00  1.60000000E+01
  1.00800000E+00  1.00800000E+00  0.00000000E+00  1.60000000E+01  1.00800000E+00
  1.00800000E+00  0.00000000E+00  1.60000000E+01  1.00800000E+00  1.00800000E+00
  0.00000000E+00  1.60000000E+01  1.00800000E+00  1.00800000E+00  0.00000000E+00
  1.60000000E+01  1.00800000E+00  1.00800000E+00  0.00000000E+00  1.60000000E+01
  1.00800000E+00  1.00800000E+00  0.00000000E+00  1.60000000E+01  1.00800000E+00
  1.00800000E+00  0.00000000E+00  1.60000000E+01  1.00800000E+00  1.00800000E+00
  0.00000000E+00  1.60000000E+01  1.00800000E+00  1.00800000E+00  0.00000000E+00
  1.60000000E+01  1.00800000E+00  1.00800000E+00  0.00000000E+00  1.60000000E+01
  1.00800000E+00  1.00800000E+00  0.00000000E+00  1.60000000E+01  1.00800000E+00
  1.00800000E+00  0.00000000E+00  1.60000000E+01  1.00800000E+00  1.00800000E+00
  0.00000000E+00  1.60000000E+01  1.00800000E+00  1.00800000E+00  0.00000000E+00
  1.60000000E+01  1.00800000E+00  1.00800000E+00  0.00000000E+00  1.60000000E+01
  1.00800000E+00  1.00800000E+00  0.00000000E+00  1.60000000E+01  1.00800000E+00
  1.00800000E+00  0.00000000E+00  1.60000000E+01  1.00800000E+00  1.00800000E+00
  0.00000000E+00  1.60000000E+01  1.00800000E+00  1.00800000E+00  0.00000000E+00
  1.60000000E+01  1.00800000E+00  1.00800000E+00  0.00000000E+00  1.60000000E+01
  1.00800000E+00  1.00800000E+00  0.00000000E+00  1.60000000E+01  1.00800000E+00
  1.00800000E+00  0.00000000E+00  1.60000000E+01  1.00800000E+00  1.00800000E+00
  0.00000000E+00  1.60000000E+01  1.00800000E+00  1.00800000E+00  0.00000000E+00
  1.60000000E+01  1.00800000E+00  1.00800000E+00  0.00000000E+00  1.60000000E+01
  1.00800000E+00  1.00800000E+00  0.00000000E+00  1.60000000E+01  1.00800000E+00
  1.00800000E+00  0.00000000E+00  1.60000000E+01  1.00800000E+00  1.00800000E+00
  0.00000000E+00  1.60000000E+01  1.00800000E+00  1.00800000E+00  0.00000000E+00
  1.60000000E+01  1.00800000E+00  1.00800000E+00  0.00000000E+00  1.60000000E+01
  1.00800000E+00  1.00800000E+00  0.00000000E+00  1.60000000E+01  1.00800000E+00
  1.00800000E+00  0.00000000E+00  1.60000000E+01  1.00800000E+00  1.00800000E+00
  0.00000000E+00  1.60000000E+01  1.00800000E+00  1.00800000E+00  0.00000000E+00
  1.60000000E+01  1.00800000E+00  1.00800000E+00  0.00000000E+00  1.60000000E+01
  1.00800000E+00  1.00800000E+00  0.00000000E+00  1.60000000E+01  1.00800000E+00
  1.00800000E+00  0.00000000E+00  1.60000000E+01  1.00800000E+00  1.00800000E+00
  0.00000000E+00  1.60000000E+01  1.00800000E+00  1.00800000E+00  0.00000000E+00
  1.60000000E+01  1.00800000E+00  1.00800000E+00  0.00000000E+00  1.60000000E+01
  1.00800000E+00  1.00800000E+00  0.00000000E+00  1.60000000E+01  1.00800000E+00
  1.00800000E+00  0.00000000E+00  1.60000000E+01  1.00800000E+00  1.00800000E+00
  0.00000000E+00  1.60000000E+01  1.00800000E+00  1.00800000E+00  0.00000000E+00
  1.60000000E+01  1.00800000E+00  1.00800000E+00  0.00000000E+00  1.60000000E+01
  1.00800000E+00  1.00800000E+00  0.00000000E+00  1.60000000E+01  1.00800000E+00
  1.00800000E+00  0.00000000E+00  1.60000000E+01  1.00800000E+00  1.00800000E+00
  0.00000000E+00  1.60000000E+01  1.00800000E+00  1.00800000E+00  0.00000000E+00
  1.60000000E+01  1.00800000E+00  1.00800000E+00  0.00000000E+00  1.60000000E+01
  1.00800000E+00  1.00800000E+00  0.00000000E+00  1.60000000E+01  1.00800000E+00
  1.00800000E+00  0.00000000E+00  1.60000000E+01  1.00800000E+00  1.00800000E+00
  0.00000000E+00  1.60000000E+01  1.00800000E+00  1.00800000E+00  0.00000000E+00
  1.60000000E+01  1.00800000E+00  1.00800000E+00  0.00000000E+00  1.60000000E+01
  1.00800000E+00  1.00800000E+00  0.00000000E+00  1.60000000E+01  1.00800000E+00
  1.00800000E+00  0.00000000E+00  1.60000000E+01  1.00800000E+00  1.00800000E+00
  0.00000000E+00  1.60000000E+01  1.00800000E+00  1.00800000E+00  0.00000000E+00
  1.60000000E+01  1.00800000E+00  1.00800000E+00  0.00000000E+00  1.60000000E+01
  1.00800000E+00  1.00800000E+00  0.00000000E+00  1.60000000E+01  1.00800000E+00
  1.00800000E+00  0.00000000E+00  1.60000000E+01  1.00800000E+00  1.00800000E+00
  0.00000000E+00  1.60000000E+01  1.00800000E+00  1.00800000E+00  0.00000000E+00
  1.60000000E+01  1.00800000E+00  1.00800000E+00  0.00000000E+00  1.60000000E+01
  1.00800000E+00  1.00800000E+00  0.00000000E+00  1.60000000E+01  1.00800000E+00
  1.00800000E+00  0.00000000E+00  1.60000000E+01  1.00800000E+00  1.00800000E+00
  0.00000000E+00  1.60000000E+01  1.00800000E+00  1.00800000E+00  0.00000000E+00
  1.60000000E+01  1.00800000E+00  1.00800000E+00  0.00000000E+00  1.60000000E+01
  1.00800000E+00  1.00800000E+00  0.00000000E+00  1.60000000E+01  1.00800000E+00
  1.00800000E+00  0.00000000E+00  1.60000000E+01  1.00800000E+00  1.00800000E+00
  0.00000000E+00  1.60000000E+01  1.00800000E+00  1.00800000E+00  0.00000000E+00
  1.60000000E+01  1.00800000E+00  1.00800000E+00  0.00000000E+00  1.60000000E+01
  1.00800000E+00  1.00800000E+00  0.00000000E+00  1.60000000E+01  1.00800000E+00
  1.00800000E+00  0.00000000E+00  1.60000000E+01  1.00800000E+00  1.00800000E+00
  0.00000000E+00  1.60000000E+01  1.00800000E+00  1.00800000E+00  0.00000000E+00
  1.60000000E+01  1.00800000E+00  1.00800000E+00  0.00000000E+00  1.60000000E+01
  1.00800000E+00  1.00800000E+00  0.00000000E+00  1.60000000E+01  1.00800000E+00
  1.00800000E+00  0.00000000E+00  1.60000000E+01  1.00800000E+00  1.00800000E+00
  0.00000000E+00  1.60000000E+01  1.00800000E+00  1.00800000E+00  0.00000000E+00
  1.60000000E+01  1.00800000E+00  1.00800000E+00  0.00000000E+00  1.60000000E+01
  1.00800000E+00  1.00800000E+00  0.00000000E+00  1.60000000E+01  1.00800000E+00
  1.00800000E+00  0.00000000E+00  1.60000000E+01  1.00800000E+00  1.00800000E+00
  0.00000000E+00  1.60000000E+01  1.00800000E+00  1.00800000E+00  0.00000000E+00
  1.60000000E+01  1.00800000E+00  1.00800000E+00  0.00000000E+00  1.60000000E+01
  1.00800000E+00  1.00800000E+00  0.00000000E+00  1.60000000E+01  1.00800000E+00
  1.00800000E+00  0.00000000E+00  1.60000000E+01  1.00800000E+00  1.00800000E+00
  0.00000000E+00  1.60000000E+01  1.00800000E+00  1.00800000E+00  0.00000000E+00
  1.60000000E+01  1.00800000E+00  1.00800000E+00  0.00000000E+00  1.60000000E+01
  1.00800000E+00  1.00800000E+00  0.00000000E+00  1.60000000E+01  1.00800000E+00
  1.00800000E+00  0.00000000E+00  1.60000000E+01  1.00800000E+00  1.00800000E+00
  0.00000000E+00  1.60000000E+01  1.00800000E+00  1.00800000E+00  0.00000000E+00
  1.60000000E+01  1.00800000E+00  1.00800000E+00  0.00000000E+00  1.60000000E+01
  1.00800000E+00  1.00800000E+00  0.00000000E+00  1.60000000E+01  1.00800000E+00
  1.00800000E+00  0.00000000E+00  1.60000000E+01  1.00800000E+00  1.00800000E+00
  0.00000000E+00  1.60000000E+01  1.00800000E+00  1.00800000E+00  0.00000000E+00
  1.60000000E+01  1.00800000E+00  1.00800000E+00  0.00000000E+00  1.60000000E+01
  1.00800000E+00  1.00800000E+00  0.00000000E+00  1.60000000E+01  1.00800000E+00
  1.00800000E+00  0.00000000E+00  1.60000000E+01  1.00800000E+00  1.00800000E+00
  0.00000000E+00  1.60000000E+01  1.00800000E+00  1.00800000E+00  0.00000000E+00
  1.60000000E+01  1.00800000E+00  1.00800000E+00  0.00000000E+00  1.60000000E+01
  1.00800000E+00  1.00800000E+00  0.00000000E+00  1.60000000E+01  1.00800000E+00
  1.00800000E+00  0.00000000E+00  1.60000000E+01  1.00800000E+00  1.00800000E+00
  0.00000000E+00  1.60000000E+01  1.00800000E+00  1.00800000E+00  0.00000000E+00
  1.60000000E+01  1.00800000E+00  1.00800000E+00  0.00000000E+00  1.60000000E+01
  1.00800000E+00  1.00800000E+00  0.00000000E+00  1.60000000E+01  1.00800000E+00
  1.00800000E+00  0.00000000E+00  1.60000000E+01  1.00800000E+00  1.00800000E+00
  0.00000000E+00  1.60000000E+01  1.00800000E+00  1.00800000E+00  0.00000000E+00
  1.60000000E+01  1.00800000E+00  1.00800000E+00  0.00000000E+00  1.60000000E+01
  1.00800000E+00  1.00800000E+00  0.00000000E+00  1.60000000E+01  1.00800000E+00
  1.00800000E+00  0.00000000E+00  1.60000000E+01  1.00800000E+00  1.00800000E+00
  0.00000000E+00  1.60000000E+01  1.00800000E+00  1.00800000E+00  0.00000000E+00
  1.60000000E+01  1.00800000E+00  1.00800000E+00  0.00000000E+00  1.60000000E+01
  1.00800000E+00  1.00800000E+00  0.00000000E+00  1.60000000E+01  1.00800000E+00
  1.00800000E+00  0.00000000E+00  1.60000000E+01  1.00800000E+00  1.00800000E+00
  0.00000000E+00  1.60000000E+01  1.00800000E+00  1.00800000E+00  0.00000000E+00
  1.60000000E+01  1.00800000E+00  1.00800000E+00  0.00000000E+00  1.60000000E+01
  1.00800000E+00  1.00800000E+00  0.00000000E+00  1.60000000E+01  1.00800000E+00
  1.00800000E+00  0.00000000E+00  1.60000000E+01  1.00800000E+00  1.00800000E+00
  0.00000000E+00  1.60000000E+01  1.00800000E+00  1.00800000E+00  0.00000000E+00
  1.60000000E+01  1.00800000E+00  1.00800000E+00  0.00000000E+00  1.60000000E+01
  1.00800000E+00  1.00800000E+00  0.00000000E+00  1.60000000E+01  1.00800000E+00
  1.00800000E+00  0.00000000E+00  1.60000000E+01  1.00800000E+00  1.00800000E+00
  0.00000000E+00  1.60000000E+01  1.00800000E+00  1.00800000E+00  0.00000000E+00
  1.60000000E+01  1.00800000E+00  1.00800000E+00  0.00000000E+00  1.60000000E+01
  1.00800000E+00  1.00800000E+00  0.00000000E+00  1.60000000E+01  1.00800000E+00
  1.00800000E+00  0.00000000E+00  1.60000000E+01  1.00800000E+00  1.00800000E+00
  0.00000000E+00  1.60000000E+01  1.00800000E+00  1.00800000E+00  0.00000000E+00
  1.60000000E+01  1.00800000E+00  1.00800000E+00  0.00000000E+00  1.60000000E+01
  1.00800000E+00  1.00800000E+00  0.00000000E+00  1.60000000E+01  1.00800000E+00
  1.00800000E+00  0.00000000E+00  1.60000000E+01  1.00800000E+00  1.00800000E+00
  0.00000000E+00  1.60000000E+01  1.00800000E+00  1.00800000E+00  0.00000000E+00
  1.60000000E+01  1.00800000E+00  1.00800000E+00  0.00000000E+00  1.60000000E+01
  1.00800000E+00  1.00800000E+00  0.00000000E+00  1.60000000E+01  1.00800000E+00
  1.00800000E+00  0.00000000E+00  1.60000000E+01  1.00800000E+00  1.00800000E+00
  0.00000000E+00  1.60000000E+01  1.00800000E+00  1.00800000E+00  0.00000000E+00
  1.60000000E+01  1.00800000E+00  1.00800000E+00  0.00000000E+00  1.60000000E+01
  1.00800000E+00  1.00800000E+00  0.00000000E+00  1.60000000E+01  1.00800000E+00
  1.00800000E+00  0.00000000E+00  1.60000000E+01  1.00800000E+00  1.00800000E+00
  0.00000000E+00  1.60000000E+01  1.00800000E+00  1.00800000E+00  0.00000000E+00
  1.60000000E+01  1.00800000E+00  1.00800000E+00  0.00000000E+00  1.60000000E+01
  1.00800000E+00  1.00800000E+00  0.00000000E+00  1.60000000E+01  1.00800000E+00
  1.00800000E+00  0.00000000E+00  1.60000000E+01  1.00800000E+00  1.00800000E+00
  0.00000000E+00  1.60000000E+01  1.00800000E+00  1.00800000E+00  0.00000000E+00
  1.60000000E+01  1.00800000E+00  1.00800000E+00  0.00000000E+00  1.60000000E+01
  1.00800000E+00  1.00800000E+00  0.00000000E+00  1.60000000E+01  1.00800000E+00
  1.00800000E+00  0.00000000E+00  1.60000000E+01  1.00800000E+00  1.00800000E+00
  0.00000000E+00  1.60000000E+01  1.00800000E+00  1.00800000E+00  0.00000000E+00
  1.60000000E+01  1.00800000E+00  1.00800000E+00  0.00000000E+00  1.60000000E+01
  1.00800000E+00  1.00800000E+00  0.00000000E+00  1.60000000E+01  1.00800000E+00
  1.00800000E+00  0.00000000E+00  1.60000000E+01  1.00800000E+00  1.00800000E+00
  0.00000000E+00  1.60000000E+01  1.00800000E+00  1.00800000E+00  0.00000000E+00
  1.60000000E+01  1.00800000E+00  1.00800000E+00  0.00000000E+00  1.60000000E+01
  1.00800000E+00  1.00800000E+00  0.00000000E+00  1.60000000E+01  1.00800000E+00
  1.00800000E+00  0.00000000E+00  1.60000000E+01  1.00800000E+00  1.00800000E+00
  0.00000000E+00  1.60000000E+01  1.00800000E+00  1.00800000E+00  0.00000000E+00
  1.60000000E+01  1.00800000E+00  1.00800000E+00  0.00000000E+00  1.60000000E+01
  1.00800000E+00  1.00800000E+00  0.00000000E+00  1.60000000E+01  1.00800000E+00
  1.00800000E+00  0.00000000E+00  1.60000000E+01  1.00800000E+00  1.00800000E+00
  0.00000000E+00  1.60000000E+01  1.00800000E+00  1.00800000E+00  0.00000000E+00
  1.60000000E+01  1.00800000E+00  1.00800000E+00  0.00000000E+00  1.60000000E+01
  1.00800000E+00  1.00800000E+00  0.00000000E+00  1.60000000E+01  1.00800000E+00
  1.00800000E+00  0.00000000E+00  1.60000000E+01  1.00800000E+00  1.00800000E+00
  0.00000000E+00  1.60000000E+01  1.00800000E+00  1.00800000E+00  0.00000000E+00
  1.60000000E+01  1.00800000E+00  1.00800000E+00  0.00000000E+00  1.60000000E+01
  1.00800000E+00  1.00800000E+00  0.00000000E+00  1.60000000E+01  1.00800000E+00
  1.00800000E+00  0.00000000E+00  1.60000000E+01  1.00800000E+00  1.00800000E+00
  0.00000000E+00  1.60000000E+01  1.00800000E+00  1.00800000E+00  0.00000000E+00
  1.60000000E+01  1.00800000E+00  1.00800000E+00  0.00000000E+00  1.60000000E+01
  1.00800000E+00  1.00800000E+00  0.00000000E+00  1.60000000E+01  1.00800000E+00
  1.00800000E+00  0.00000000E+00  1.60000000E+01  1.00800000E+00  1.00800000E+00
  0.00000000E+00  1.60000000E+01  1.00800000E+00  1.00800000E+00  0.00000000E+00
  1.60000000E+01  1.00800000E+00  1.00800000E+00  0.00000000E+00  1.60000000E+01
  1.00800000E+00  1.00800000E+00  0.00000000E+00  1.60000000E+01  1.00800000E+00
  1.00800000E+00  0.00000000E+00  1.60000000E+01  1.00800000E+00  1.00800000E+00
  0.00000000E+00  1.60000000E+01  1.00800000E+00  1.00800000E+00  0.00000000E+00
  1.60000000E+01  1.00800000E+00  1.00800000E+00  0.00000000E+00  1.60000000E+01
  1.00800000E+00  1.00800000E+00  0.00000000E+00  1.60000000E+01  1.00800000E+00
  1.00800000E+00  0.00000000E+00  1.60000000E+01  1.00800000E+00  1.00800000E+00
  0.00000000E+00  1.60000000E+01  1.00800000E+00  1.00800000E+00  0.00000000E+00
  1.60000000E+01  1.00800000E+00  1.00800000E+00  0.00000000E+00  1.60000000E+01
  1.00800000E+00  1.00800000E+00  0.00000000E+00  1.60000000E+01  1.00800000E+00
  1.00800000E+00  0.00000000E+00  1.60000000E+01  1.00800000E+00  1.00800000E+00
  0.00000000E+00  1.60000000E+01  1.00800000E+00  1.00800000E+00  0.00000000E+00
  1.60000000E+01  1.00800000E+00  1.00800000E+00  0.00000000E+00  1.60000000E+01
  1.00800000E+00  1.00800000E+00  0.00000000E+00  1.60000000E+01  1.00800000E+00
  1.00800000E+00  0.00000000E+00  1.60000000E+01  1.00800000E+00  1.00800000E+00
  0.00000000E+00  1.60000000E+01  1.00800000E+00  1.00800000E+00  0.00000000E+00
  1.60000000E+01  1.00800000E+00  1.00800000E+00  0.00000000E+00  1.60000000E+01
  1.00800000E+00  1.00800000E+00  0.00000000E+00  1.60000000E+01  1.00800000E+00
  1.00800000E+00  0.00000000E+00  1.60000000E+01  1.00800000E+00  1.00800000E+00
  0.00000000E+00  1.60000000E+01  1.00800000E+00  1.00800000E+00  0.00000000E+00
  1.60000000E+01  1.00800000E+00  1.00800000E+00  0.00000000E+00  1.60000000E+01
  1.00800000E+00  1.00800000E+00  0.00000000E+00  1.60000000E+01  1.00800000E+00
  1.00800000E+00  0.00000000E+00  1.60000000E+01  1.00800000E+00  1.00800000E+00
  0.00000000E+00  1.60000000E+01  1.00800000E+00  1.00800000E+00  0.00000000E+00
  1.60000000E+01  1.00800000E+00  1.00800000E+00  0.00000000E+00  1.60000000E+01
  1.00800000E+00  1.00800000E+00  0.00000000E+00  1.60000000E+01  1.00800000E+00
  1.00800000E+00  0.00000000E+00  1.60000000E+01  1.00800000E+00  1.00800000E+00
  0.00000000E+00  1.60000000E+01  1.00800000E+00  1.00800000E+00  0.00000000E+00
  1.60000000E+01  1.00800000E+00  1.00800000E+00  0.00000000E+00  1.60000000E+01
  1.00800000E+00  1.00800000E+00  0.00000000E+00  1.60000000E+01  1.00800000E+00
  1.00800000E+00  0.00000000E+00  1.60000000E+01  1.00800000E+00  1.00800000E+00
  0.00000000E+00  1.60000000E+01  1.00800000E+00  1.00800000E+00  0.00000000E+00
  1.60000000E+01  1.00800000E+00  1.00800000E+00  0.00000000E+00  1.60000000E+01
  1.00800000E+00  1.00800000E+00  0.00000000E+00  1.60000000E+01  1.00800000E+00
  1.00800000E+00  0.00000000E+00  1.60000000E+01  1.00800000E+00  1.00800000E+00
  0.00000000E+00  1.60000000E+01  1.00800000E+00  1.00800000E+00  0.00000000E+00
  1.60000000E+01  1.00800000E+00  1.00800000E+00  0.00000000E+00  1.60000000E+01
  1.00800000E+00  1.00800000E+00  0.00000000E+00  1.60000000E+01  1.00800000E+00
  1.00800000E+00  0.00000000E+00  1.60000000E+01  1.00800000E+00  1.00800000E+00
  0.00000000E+00  1.60000000E+01  1.00800000E+00  1.00800000E+00  0.00000000E+00
  1.60000000E+01  1.00800000E+00  1.00800000E+00  0.00000000E+00  1.60000000E+01
  1.00800000E+00  1.00800000E+00  0.00000000E+00  1.60000000E+01  1.00800000E+00
  1.00800000E+00  0.00000000E+00  1.60000000E+01  1.00800000E+00  1.00800000E+00
  0.00000000E+00  1.60000000E+01  1.00800000E+00  1.00800000E+00  0.00000000E+00
  1.60000000E+01  1.00800000E+00  1.00800000E+00  0.00000000E+00  1.60000000E+01
  1.00800000E+00  1.00800000E+00  0.00000000E+00  1.60000000E+01  1.00800000E+00
  1.00800000E+00  0.00000000E+00  1.60000000E+01  1.00800000E+00  1.00800000E+00
  0.00000000E+00  1.60000000E+01  1.00800000E+00  1.00800000E+00  0.00000000E+00
  1.60000000E+01  1.00800000E+00  1.00800000E+00  0.00000000E+00  1.60000000E+01
  1.00800000E+00  1.00800000E+00  0.00000000E+00  1.60000000E+01  1.00800000E+00
  1.00800000E+00  0.00000000E+00  1.60000000E+01  1.00800000E+00  1.00800000E+00
  0.00000000E+00  1.60000000E+01  1.00800000E+00  1.00800000E+00  0.00000000E+00
  1.60000000E+01  1.00800000E+00  1.00800000E+00  0.00000000E+00  1.60000000E+01
  1.00800000E+00  1.00800000E+00  0.00000000E+00  1.60000000E+01  1.00800000E+00
  1.00800000E+00  0.00000000E+00  1.60000000E+01  1.00800000E+00  1.00800000E+00
  0.00000000E+00  1.60000000E+01  1.00800000E+00  1.00800000E+00  0.00000000E+00
  1.60000000E+01  1.00800000E+00  1.00800000E+00  0.00000000E+00  1.60000000E+01
  1.00800000E+00  1.00800000E+00  0.00000000E+00  1.60000000E+01  1.00800000E+00
  1.00800000E+00  0.00000000E+00  1.60000000E+01  1.00800000E+00  1.00800000E+00
  0.00000000E+00  1.60000000E+01  1.00800000E+00  1.00800000E+00  0.00000000E+00
  1.60000000E+01  1.00800000E+00  1.00800000E+00  0.00000000E+00  1.60000000E+01
  1.00800000E+00  1.00800000E+00  0.00000000E+00  1.60000000E+01  1.00800000E+00
  1.00800000E+00  0.00000000E+00  1.60000000E+01  1.00800000E+00  1.00800000E+00
  0.00000000E+00  1.60000000E+01  1.00800000E+00  1.00800000E+00  0.00000000E+00
  1.60000000E+01  1.00800000E+00  1.00800000E+00  0.00000000E+00  1.60000000E+01
  1.00800000E+00  1.00800000E+00  0.00000000E+00  1.60000000E+01  1.00800000E+00
  1.00800000E+00  0.00000000E+00  1.60000000E+01  1.00800000E+00  1.00800000E+00
  0.00000000E+00  1.60000000E+01  1.00800000E+00  1.00800000E+00  0.00000000E+00
  1.60000000E+01  1.00800000E+00  1.00800000E+00  0.00000000E+00  1.60000000E+01
  1.00800000E+00  1.00800000E+00  0.00000000E+00  1.60000000E+01  1.00800000E+00
  1.00800000E+00  0.00000000E+00  1.60000000E+01  1.00800000E+00  1.00800000E+00
  0.00000000E+00  1.60000000E+01  1.00800000E+00  1.00800000E+00  0.00000000E+00
  1.60000000E+01  1.00800000E+00  1.00800000E+00  0.00000000E+00  1.60000000E+01
  1.00800000E+00  1.00800000E+00  0.00000000E+00  1.60000000E+01  1.00800000E+00
  1.00800000E+00  0.00000000E+00  1.60000000E+01  1.00800000E+00  1.00800000E+00
  0.00000000E+00  1.60000000E+01  1.00800000E+00  1.00800000E+00  0.00000000E+00
  1.60000000E+01  1.00800000E+00  1.00800000E+00  0.00000000E+00  1.60000000E+01
  1.00800000E+00  1.00800000E+00  0.00000000E+00  1.60000000E+01  1.00800000E+00
  1.00800000E+00  0.00000000E+00  1.60000000E+01  1.00800000E+00  1.00800000E+00
  0.00000000E+00  1.60000000E+01  1.00800000E+00  1.00800000E+00  0.00000000E+00
  1.60000000E+01  1.00800000E+00  1.00800000E+00  0.00000000E+00  1.60000000E+01
  1.00800000E+00  1.00800000E+00  0.00000000E+00  1.60000000E+01  1.00800000E+00
  1.00800000E+00  0.00000000E+00  1.60000000E+01  1.00800000E+00  1.00800000E+00
  0.00000000E+00  1.60000000E+01  1.00800000E+00  1.00800000E+00  0.00000000E+00
  1.60000000E+01  1.00800000E+00  1.00800000E+00  0.00000000E+00  1.60000000E+01
  1.00800000E+00  1.00800000E+00  0.00000000E+00  1.60000000E+01  1.00800000E+00
  1.00800000E+00  0.00000000E+00  1.60000000E+01  1.00800000E+00  1.00800000E+00
  0.00000000E+00  1.60000000E+01  1.00800000E+00  1.00800000E+00  0.00000000E+00
  1.60000000E+01  1.00800000E+00  1.00800000E+00  0.00000000E+00  1.60000000E+01
  1.00800000E+00  1.00800000E+00  0.00000000E+00  1.60000000E+01  1.00800000E+00
  1.00800000E+00  0.00000000E+00  1.60000000E+01  1.00800000E+00  1.00800000E+00
  0.00000000E+00  1.60000000E+01  1.00800000E+00  1.00800000E+00  0.00000000E+00
  1.60000000E+01  1.00800000E+00  1.00800000E+00  0.00000000E+00  1.60000000E+01
  1.00800000E+00  1.00800000E+00  0.00000000E+00  1.60000000E+01  1.00800000E+00
  1.00800000E+00  0.00000000E+00  1.60000000E+01  1.00800000E+00  1.00800000E+00
  0.00000000E+00  1.60000000E+01  1.00800000E+00  1.00800000E+00  0.00000000E+00
  1.60000000E+01  1.00800000E+00  1.00800000E+00  0.00000000E+00  1.60000000E+01
  1.00800000E+00  1.00800000E+00  0.00000000E+00  1.60000000E+01  1.00800000E+00
  1.00800000E+00  0.00000000E+00  1.60000000E+01  1.00800000E+00  1.00800000E+00
  0.00000000E+00  1.60000000E+01  1.00800000E+00  1.00800000E+00  0.00000000E+00
  1.60000000E+01  1.00800000E+00  1.00800000E+00  0.00000000E+00  1.60000000E+01
  1.00800000E+00  1.00800000E+00  0.00000000E+00  1.60000000E+01  1.00800000E+00
  1.00800000E+00  0.00000000E+00  1.60000000E+01  1.00800000E+00  1.00800000E+00
  0.00000000E+00  1.60000000E+01  1.00800000E+00  1.00800000E+00  0.00000000E+00
  1.60000000E+01  1.00800000E+00  1.00800000E+00  0.00000000E+00  1.60000000E+01
  1.00800000E+00  1.00800000E+00  0.00000000E+00  1.60000000E+01  1.00800000E+00
  1.00800000E+00  0.00000000E+00  1.60000000E+01  1.00800000E+00  1.00800000E+00
  0.00000000E+00  1.60000000E+01  1.00800000E+00  1.00800000E+00  0.00000000E+00
  1.60000000E+01  1.00800000E+00  1.00800000E+00  0.00000000E+00  1.60000000E+01
  1.00800000E+00  1.00800000E+00  0.00000000E+00  1.60000000E+01  1.00800000E+00
  1.00800000E+00  0.00000000E+00  1.60000000E+01  1.00800000E+00  1.00800000E+00
  0.00000000E+00  1.60000000E+01  1.00800000E+00  1.00800000E+00  0.00000000E+00
  1.60000000E+01  1.00800000E+00  1.00800000E+00  0.00000000E+00  1.60000000E+01
  1.00800000E+00  1.00800000E+00  0.00000000E+00  1.60000000E+01  1.00800000E+00
  1.00800000E+00  0.00000000E+00  1.60000000E+01  1.00800000E+00  1.00800000E+00
  0.00000000E+00  1.60000000E+01  1.00800000E+00  1.00800000E+00  0.00000000E+00
  1.60000000E+01  1.00800000E+00  1.00800000E+00  0.00000000E+00  1.60000000E+01
  1.00800000E+00  1.00800000E+00  0.00000000E+00  1.60000000E+01  1.00800000E+00
  1.00800000E+00  0.00000000E+00  1.60000000E+01  1.00800000E+00  1.00800000E+00
  0.00000000E+00  1.60000000E+01  1.00800000E+00  1.00800000E+00  0.00000000E+00
  1.60000000E+01  1.00800000E+00  1.00800000E+00  0.00000000E+00  1.60000000E+01
  1.00800000E+00  1.00800000E+00  0.00000000E+00  1.60000000E+01  1.00800000E+00
  1.00800000E+00  0.00000000E+00  1.60000000E+01  1.00800000E+00  1.00800000E+00
  0.00000000E+00  1.60000000E+01  1.00800000E+00  1.00800000E+00  0.00000000E+00
  1.60000000E+01  1.00800000E+00  1.00800000E+00  0.00000000E+00  1.60000000E+01
  1.00800000E+00  1.00800000E+00  0.00000000E+00  1.60000000E+01  1.00800000E+00
  1.00800000E+00  0.00000000E+00  1.60000000E+01  1.00800000E+00  1.00800000E+00
  0.00000000E+00  1.60000000E+01  1.00800000E+00  1.00800000E+00  0.00000000E+00
  1.60000000E+01  1.00800000E+00  1.00800000E+00  0.00000000E+00  1.60000000E+01
  1.00800000E+00  1.00800000E+00  0.00000000E+00  1.60000000E+01  1.00800000E+00
  1.00800000E+00  0.00000000E+00  1.60000000E+01  1.00800000E+00  1.00800000E+00
  0.00000000E+00  1.60000000E+01  1.00800000E+00  1.00800000E+00  0.00000000E+00
  1.60000000E+01  1.00800000E+00  1.00800000E+00  0.00000000E+00  1.60000000E+01
  1.00800000E+00  1.00800000E+00  0.00000000E+00  1.60000000E+01  1.00800000E+00
  1.00800000E+00  0.00000000E+00  1.60000000E+01  1.00800000E+00  1.00800000E+00
  0.00000000E+00  1.60000000E+01  1.00800000E+00  1.00800000E+00  0.00000000E+00
  1.60000000E+01  1.00800000E+00  1.00800000E+00  0.00000000E+00  1.60000000E+01
  1.00800000E+00  1.00800000E+00  0.00000000E+00  1.60000000E+01  1.00800000E+00
  1.00800000E+00  0.00000000E+00  1.60000000E+01  1.00800000E+00  1.00800000E+00
  0.00000000E+00  1.60000000E+01  1.00800000E+00  1.00800000E+00  0.00000000E+00
  1.60000000E+01  1.00800000E+00  1.00800000E+00  0.00000000E+00  1.60000000E+01
  1.00800000E+00  1.00800000E+00  0.00000000E+00  1.60000000E+01  1.00800000E+00
  1.00800000E+00  0.00000000E+00  1.60000000E+01  1.00800000E+00  1.00800000E+00
  0.00000000E+00  1.60000000E+01  1.00800000E+00  1.00800000E+00  0.00000000E+00
  1.60000000E+01  1.00800000E+00  1.00800000E+00  0.00000000E+00  1.60000000E+01
  1.00800000E+00  1.00800000E+00  0.00000000E+00  1.60000000E+01  1.00800000E+00
  1.00800000E+00  0.00000000E+00  1.60000000E+01  1.00800000E+00  1.00800000E+00
  0.00000000E+00  1.60000000E+01  1.00800000E+00  1.00800000E+00  0.00000000E+00
  1.60000000E+01  1.00800000E+00  1.00800000E+00  0.00000000E+00  1.60000000E+01
  1.00800000E+00  1.00800000E+00  0.00000000E+00  1.60000000E+01  1.00800000E+00
  1.00800000E+00  0.00000000E+00  1.60000000E+01  1.00800000E+00  1.00800000E+00
  0.00000000E+00  1.60000000E+01  1.00800000E+00  1.00800000E+00  0.00000000E+00
  1.60000000E+01  1.00800000E+00  1.00800000E+00  0.00000000E+00  1.60000000E+01
  1.00800000E+00  1.00800000E+00  0.00000000E+00  1.60000000E+01  1.00800000E+00
  1.00800000E+00  0.00000000E+00  1.60000000E+01  1.00800000E+00  1.00800000E+00
  0.00000000E+00  1.60000000E+01  1.00800000E+00  1.00800000E+00  0.00000000E+00
  1.60000000E+01  1.00800000E+00  1.00800000E+00  0.00000000E+00  1.60000000E+01
  1.00800000E+00  1.00800000E+00  0.00000000E+00  1.60000000E+01  1.00800000E+00
  1.00800000E+00  0.00000000E+00  1.60000000E+01  1.00800000E+00  1.00800000E+00
  0.00000000E+00  1.60000000E+01  1.00800000E+00  1.00800000E+00  0.00000000E+00
  1.60000000E+01  1.00800000E+00  1.00800000E+00  0.00000000E+00  1.60000000E+01
  1.00800000E+00  1.00800000E+00  0.00000000E+00  1.60000000E+01  1.00800000E+00
  1.00800000E+00  0.00000000E+00  1.60000000E+01  1.00800000E+00  1.00800000E+00
  0.00000000E+00  1.60000000E+01  1.00800000E+00  1.00800000E+00  0.00000000E+00
  1.60000000E+01  1.00800000E+00  1.00800000E+00  0.00000000E+00  1.60000000E+01
  1.00800000E+00  1.00800000E+00  0.00000000E+00  1.60000000E+01  1.00800000E+00
  1.00800000E+00  0.00000000E+00  1.60000000E+01  1.00800000E+00  1.00800000E+00
  0.00000000E+00  1.60000000E+01  1.00800000E+00  1.00800000E+00  0.00000000E+00
  1.60000000E+01  1.00800000E+00  1.00800000E+00  0.00000000E+00  1.60000000E+01
  1.00800000E+00  1.00800000E+00  0.00000000E+00  1.60000000E+01  1.00800000E+00
  1.00800000E+00  0.00000000E+00  1.60000000E+01  1.00800000E+00  1.00800000E+00
  0.00000000E+00  1.60000000E+01  1.00800000E+00  1.00800000E+00  0.00000000E+00
  1.60000000E+01  1.00800000E+00  1.00800000E+00  0.00000000E+00  1.60000000E+01
  1.00800000E+00  1.00800000E+00  0.00000000E+00  1.60000000E+01  1.00800000E+00
  1.00800000E+00  0.00000000E+00  1.60000000E+01  1.00800000E+00  1.00800000E+00
  0.00000000E+00  1.60000000E+01  1.00800000E+00  1.00800000E+00  0.00000000E+00
  1.60000000E+01  1.00800000E+00  1.00800000E+00  0.00000000E+00  1.60000000E+01
  1.00800000E+00  1.00800000E+00  0.00000000E+00  1.60000000E+01  1.00800000E+00
  1.00800000E+00  0.00000000E+00  1.60000000E+01  1.00800000E+00  1.00800000E+00
  0.00000000E+00  1.60000000E+01  1.00800000E+00  1.00800000E+00  0.00000000E+00
  1.60000000E+01  1.00800000E+00  1.00800000E+00  0.00000000E+00  1.60000000E+01
  1.00800000E+00  1.00800000E+00  0.00000000E+00  1.60000000E+01  1.00800000E+00
  1.00800000E+00  0.00000000E+00  1.60000000E+01  1.00800000E+00  1.00800000E+00
  0.00000000E+00  1.60000000E+01  1.00800000E+00  1.00800000E+00  0.00000000E+00
  1.60000000E+01  1.00800000E+00  1.00800000E+00  0.00000000E+00  1.60000000E+01
  1.00800000E+00  1.00800000E+00  0.00000000E+00  1.60000000E+01  1.00800000E+00
  1.00800000E+00  0.00000000E+00  1.60000000E+01  1.00800000E+00  1.00800000E+00
  0.00000000E+00  1.60000000E+01  1.00800000E+00  1.00800000E+00  0.00000000E+00
  1.60000000E+01  1.00800000E+00  1.00800000E+00  0.00000000E+00  1.60000000E+01
  1.00800000E+00  1.00800000E+00  0.00000000E+00  1.60000000E+01  1.00800000E+00
  1.00800000E+00  0.00000000E+00  1.60000000E+01  1.00800000E+00  1.00800000E+00
  0.00000000E+00  1.60000000E+01  1.00800000E+00  1.00800000E+00  0.00000000E+00
  1.60000000E+01  1.00800000E+00  1.00800000E+00  0.00000000E+00  1.60000000E+01
  1.00800000E+00  1.00800000E+00  0.00000000E+00  1.60000000E+01  1.00800000E+00
  1.00800000E+00  0.00000000E+00  1.60000000E+01  1.00800000E+00  1.00800000E+00
  0.00000000E+00  1.60000000E+01  1.00800000E+00  1.00800000E+00  0.00000000E+00
  1.60000000E+01  1.00800000E+00  1.00800000E+00  0.00000000E+00  1.60000000E+01
  1.00800000E+00  1.00800000E+00  0.00000000E+00  1.60000000E+01  1.00800000E+00
  1.00800000E+00  0.00000000E+00  1.60000000E+01  1.00800000E+00  1.00800000E+00
  0.00000000E+00  1.60000000E+01  1.00800000E+00  1.00800000E+00  0.00000000E+00
  1.60000000E+01  1.00800000E+00  1.00800000E+00  0.00000000E+00  1.60000000E+01
  1.00800000E+00  1.00800000E+00  0.00000000E+00  1.60000000E+01  1.00800000E+00
  1.00800000E+00  0.00000000E+00  1.60000000E+01  1.00800000E+00  1.00800000E+00
  0.00000000E+00  1.60000000E+01  1.00800000E+00  1.00800000E+00  0.00000000E+00
  1.60000000E+01  1.00800000E+00  1.00800000E+00  0.00000000E+00  1.60000000E+01
  1.00800000E+00  1.00800000E+00  0.00000000E+00  1.60000000E+01  1.00800000E+00
  1.00800000E+00  0.00000000E+00  1.60000000E+01  1.00800000E+00  1.00800000E+00
  0.00000000E+00  1.60000000E+01  1.00800000E+00  1.00800000E+00  0.00000000E+00
  1.60000000E+01  1.00800000E+00  1.00800000E+00  0.00000000E+00  1.60000000E+01
  1.00800000E+00  1.00800000E+00  0.00000000E+00  1.60000000E+01  1.00800000E+00
  1.00800000E+00  0.00000000E+00  1.60000000E+01  1.00800000E+00  1.00800000E+00
  0.00000000E+00  1.60000000E+01  1.00800000E+00  1.00800000E+00  0.00000000E+00
  1.60000000E+01  1.00800000E+00  1.00800000E+00  0.00000000E+00  1.60000000E+01
  1.00800000E+00  1.00800000E+00  0.00000000E+00  1.60000000E+01  1.00800000E+00
  1.00800000E+00  0.00000000E+00  1.60000000E+01  1.00800000E+00  1.00800000E+00
  0.00000000E+00  1.60000000E+01  1.00800000E+00  1.00800000E+00  0.00000000E+00
  1.60000000E+01  1.00800000E+00  1.00800000E+00  0.00000000E+00  1.60000000E+01
  1.00800000E+00  1.00800000E+00  0.00000000E+00  1.60000000E+01  1.00800000E+00
  1.00800000E+00  0.00000000E+00  1.60000000E+01  1.00800000E+00  1.00800000E+00
  0.00000000E+00  1.60000000E+01  1.00800000E+00  1.00800000E+00  0.00000000E+00
  1.60000000E+01  1.00800000E+00  1.00800000E+00  0.00000000E+00  1.60000000E+01
  1.00800000E+00  1.00800000E+00  0.00000000E+00  1.60000000E+01  1.00800000E+00
  1.00800000E+00  0.00000000E+00  1.60000000E+01  1.00800000E+00  1.00800000E+00
  0.00000000E+00  1.60000000E+01  1.00800000E+00  1.00800000E+00  0.00000000E+00
  1.60000000E+01  1.00800000E+00  1.00800000E+00  0.00000000E+00  1.60000000E+01
  1.00800000E+00  1.00800000E+00  0.00000000E+00  1.60000000E+01  1.00800000E+00
  1.00800000E+00  0.00000000E+00  1.60000000E+01  1.00800000E+00  1.00800000E+00
  0.00000000E+00  1.60000000E+01  1.00800000E+00  1.00800000E+00  0.00000000E+00
  1.60000000E+01  1.00800000E+00  1.00800000E+00  0.00000000E+00  1.60000000E+01
  1.00800000E+00  1.00800000E+00  0.00000000E+00  1.60000000E+01  1.00800000E+00
  1.00800000E+00  0.00000000E+00  1.60000000E+01  1.00800000E+00  1.00800000E+00
  0.00000000E+00  1.60000000E+01  1.00800000E+00  1.00800000E+00  0.00000000E+00
  1.60000000E+01  1.00800000E+00  1.00800000E+00  0.00000000E+00  1.60000000E+01
  1.00800000E+00  1.00800000E+00  0.00000000E+00  1.60000000E+01  1.00800000E+00
  1.00800000E+00  0.00000000E+00  1.60000000E+01  1.00800000E+00  1.00800000E+00
  0.00000000E+00  1.60000000E+01  1.00800000E+00  1.00800000E+00  0.00000000E+00
  1.60000000E+01  1.00800000E+00  1.00800000E+00  0.00000000E+00  1.60000000E+01
  1.00800000E+00  1.00800000E+00  0.00000000E+00  1.60000000E+01  1.00800000E+00
  1.00800000E+00  0.00000000E+00  1.60000000E+01  1.00800000E+00  1.00800000E+00
  0.00000000E+00  1.60000000E+01  1.00800000E+00  1.00800000E+00  0.00000000E+00
  1.60000000E+01  1.00800000E+00  1.00800000E+00  0.00000000E+00  1.60000000E+01
  1.00800000E+00  1.00800000E+00  0.00000000E+00  1.60000000E+01  1.00800000E+00
  1.00800000E+00  0.00000000E+00  1.60000000E+01  1.00800000E+00  1.00800000E+00
  0.00000000E+00  1.60000000E+01  1.00800000E+00  1.00800000E+00  0.00000000E+00
  1.60000000E+01  1.00800000E+00  1.00800000E+00  0.00000000E+00  1.60000000E+01
  1.00800000E+00  1.00800000E+00  0.00000000E+00  1.60000000E+01  1.00800000E+00
  1.00800000E+00  0.00000000E+00  1.60000000E+01  1.00800000E+00  1.00800000E+00
  0.00000000E+00  1.60000000E+01  1.00800000E+00  1.00800000E+00  0.00000000E+00
  1.60000000E+01  1.00800000E+00  1.00800000E+00  0.00000000E+00  1.60000000E+01
  1.00800000E+00  1.00800000E+00  0.00000000E+00  1.60000000E+01  1.00800000E+00
  1.00800000E+00  0.00000000E+00  1.60000000E+01  1.00800000E+00  1.00800000E+00
  0.00000000E+00  1.60000000E+01  1.00800000E+00  1.00800000E+00  0.00000000E+00
  1.60000000E+01  1.00800000E+00  1.00800000E+00  0.00000000E+00  1.60000000E+01
  1.00800000E+00  1.00800000E+00  0.00000000E+00  1.60000000E+01  1.00800000E+00
  1.00800000E+00  0.00000000E+00  1.60000000E+01  1.00800000E+00  1.00800000E+00
  0.00000000E+00  1.60000000E+01  1.00800000E+00  1.00800000E+00  0.00000000E+00
  1.60000000E+01  1.00800000E+00  1.00800000E+00  0.00000000E+00  1.60000000E+01
  1.00800000E+00  1.00800000E+00  0.00000000E+00  1.60000000E+01  1.00800000E+00
  1.00800000E+00  0.00000000E+00  1.60000000E+01  1.00800000E+00  1.00800000E+00
  0.00000000E+00  1.60000000E+01  1.00800000E+00  1.00800000E+00  0.00000000E+00
  1.60000000E+01  1.00800000E+00  1.00800000E+00  0.00000000E+00  1.60000000E+01
  1.00800000E+00  1.00800000E+00  0.00000000E+00  1.60000000E+01  1.00800000E+00
  1.00800000E+00  0.00000000E+00  1.60000000E+01  1.00800000E+00  1.00800000E+00
  0.00000000E+00  1.60000000E+01  1.00800000E+00  1.00800000E+00  0.00000000E+00
  1.60000000E+01  1.00800000E+00  1.00800000E+00  0.00000000E+00  1.60000000E+01
  1.00800000E+00  1.00800000E+00  0.00000000E+00  1.60000000E+01  1.00800000E+00
  1.00800000E+00  0.00000000E+00  1.60000000E+01  1.00800000E+00  1.00800000E+00
  0.00000000E+00  1.60000000E+01  1.00800000E+00  1.00800000E+00  0.00000000E+00
  1.60000000E+01  1.00800000E+00  1.00800000E+00  0.00000000E+00  1.60000000E+01
  1.00800000E+00  1.00800000E+00  0.00000000E+00  1.60000000E+01  1.00800000E+00
  1.00800000E+00  0.00000000E+00  1.60000000E+01  1.00800000E+00  1.00800000E+00
  0.00000000E+00  1.60000000E+01  1.00800000E+00  1.00800000E+00  0.00000000E+00
  1.60000000E+01  1.00800000E+00  1.00800000E+00  0.00000000E+00  1.60000000E+01
  1.00800000E+00  1.00800000E+00  0.00000000E+00  1.60000000E+01  1.00800000E+00
  1.00800000E+00  0.00000000E+00  1.60000000E+01  1.00800000E+00  1.00800000E+00
  0.00000000E+00  1.60000000E+01  1.00800000E+00  1.00800000E+00  0.00000000E+00
  1.60000000E+01  1.00800000E+00  1.00800000E+00  0.00000000E+00  1.60000000E+01
  1.00800000E+00  1.00800000E+00  0.00000000E+00  1.60000000E+01  1.00800000E+00
  1.00800000E+00  0.00000000E+00  1.60000000E+01  1.00800000E+00  1.00800000E+00
  0.00000000E+00  1.60000000E+01  1.00800000E+00  1.00800000E+00  0.00000000E+00
  1.60000000E+01  1.00800000E+00  1.00800000E+00  0.00000000E+00  1.60000000E+01
  1.00800000E+00  1.00800000E+00  0.00000000E+00  1.60000000E+01  1.00800000E+00
  1.00800000E+00  0.00000000E+00  1.60000000E+01  1.00800000E+00  1.00800000E+00
  0.00000000E+00  1.60000000E+01  1.00800000E+00  1.00800000E+00  0.00000000E+00
  1.60000000E+01  1.00800000E+00  1.00800000E+00  0.00000000E+00  1.60000000E+01
  1.00800000E+00  1.00800000E+00  0.00000000E+00  1.60000000E+01  1.00800000E+00
  1.00800000E+00  0.00000000E+00  1.60000000E+01  1.00800000E+00  1.00800000E+00
  0.00000000E+00  1.60000000E+01  1.00800000E+00  1.00800000E+00  0.00000000E+00
  1.60000000E+01  1.00800000E+00  1.00800000E+00  0.00000000E+00  1.60000000E+01
  1.00800000E+00  1.00800000E+00  0.00000000E+00  1.60000000E+01  1.00800000E+00
  1.00800000E+00  0.00000000E+00  1.60000000E+01  1.00800000E+00  1.00800000E+00
  0.00000000E+00  1.60000000E+01  1.00800000E+00  1.00800000E+00  0.00000000E+00
  1.60000000E+01  1.00800000E+00  1.00800000E+00  0.00000000E+00  1.60000000E+01
  1.00800000E+00  1.00800000E+00  0.00000000E+00  1.60000000E+01  1.00800000E+00
  1.00800000E+00  0.00000000E+00  1.60000000E+01  1.00800000E+00  1.00800000E+00
  0.00000000E+00  1.60000000E+01  1.00800000E+00  1.00800000E+00  0.00000000E+00
  1.60000000E+01  1.00800000E+00  1.00800000E+00  0.00000000E+00  1.60000000E+01
  1.00800000E+00  1.00800000E+00  0.00000000E+00  1.60000000E+01  1.00800000E+00
  1.00800000E+00  0.00000000E+00  1.60000000E+01  1.00800000E+00  1.00800000E+00
  0.00000000E+00  1.60000000E+01  1.00800000E+00  1.00800000E+00  0.00000000E+00
  1.60000000E+01  1.00800000E+00  1.00800000E+00  0.00000000E+00  1.60000000E+01
  1.00800000E+00  1.00800000E+00  0.00000000E+00  1.60000000E+01  1.00800000E+00
  1.00800000E+00  0.00000000E+00  1.60000000E+01  1.00800000E+00  1.00800000E+00
  0.00000000E+00  1.60000000E+01  1.00800000E+00  1.00800000E+00  0.00000000E+00
  1.60000000E+01  1.00800000E+00  1.00800000E+00  0.00000000E+00  1.60000000E+01
  1.00800000E+00  1.00800000E+00  0.00000000E+00  1.60000000E+01  1.00800000E+00
  1.00800000E+00  0.00000000E+00  1.60000000E+01  1.00800000E+00  1.00800000E+00
  0.00000000E+00  1.60000000E+01  1.00800000E+00  1.00800000E+00  0.00000000E+00
  1.60000000E+01  1.00800000E+00  1.00800000E+00  0.00000000E+00  1.60000000E+01
  1.00800000E+00  1.00800000E+00  0.00000000E+00  1.60000000E+01  1.00800000E+00
  1.00800000E+00  0.00000000E+00  1.60000000E+01  1.00800000E+00  1.00800000E+00
  0.00000000E+00  1.60000000E+01  1.00800000E+00  1.00800000E+00  0.00000000E+00
  1.60000000E+01  1.00800000E+00  1.00800000E+00  0.00000000E+00  1.60000000E+01
  1.00800000E+00  1.00800000E+00  0.00000000E+00  1.60000000E+01  1.00800000E+00
  1.00800000E+00  0.00000000E+00  1.60000000E+01  1.00800000E+00  1.00800000E+00
  0.00000000E+00  1.60000000E+01  1.00800000E+00  1.00800000E+00  0.00000000E+00
  1.60000000E+01  1.00800000E+00  1.00800000E+00  0.00000000E+00  1.60000000E+01
  1.00800000E+00  1.00800000E+00  0.00000000E+00  1.60000000E+01  1.00800000E+00
  1.00800000E+00  0.00000000E+00  1.60000000E+01  1.00800000E+00  1.00800000E+00
  0.00000000E+00  1.60000000E+01  1.00800000E+00  1.00800000E+00  0.00000000E+00
  1.60000000E+01  1.00800000E+00  1.00800000E+00  0.00000000E+00  1.60000000E+01
  1.00800000E+00  1.00800000E+00  0.00000000E+00  1.60000000E+01  1.00800000E+00
  1.00800000E+00  0.00000000E+00  1.60000000E+01  1.00800000E+00  1.00800000E+00
  0.00000000E+00  1.60000000E+01  1.00800000E+00  1.00800000E+00  0.00000000E+00
  1.60000000E+01  1.00800000E+00  1.00800000E+00  0.00000000E+00  1.60000000E+01
  1.00800000E+00  1.00800000E+00  0.00000000E+00  1.60000000E+01  1.00800000E+00
  1.00800000E+00  0.00000000E+00  1.60000000E+01  1.00800000E+00  1.00800000E+00
  0.00000000E+00  1.60000000E+01  1.00800000E+00  1.00800000E+00  0.00000000E+00
  1.60000000E+01  1.00800000E+00  1.00800000E+00  0.00000000E+00  1.60000000E+01
  1.00800000E+00  1.00800000E+00  0.00000000E+00  1.60000000E+01  1.00800000E+00
  1.00800000E+00  0.00000000E+00  1.60000000E+01  1.00800000E+00  1.00800000E+00
  0.00000000E+00  1.60000000E+01  1.00800000E+00  1.00800000E+00  0.00000000E+00
  1.60000000E+01  1.00800000E+00  1.00800000E+00  0.00000000E+00  1.60000000E+01
  1.00800000E+00  1.00800000E+00  0.00000000E+00  1.60000000E+01  1.00800000E+00
  1.00800000E+00  0.00000000E+00  1.60000000E+01  1.00800000E+00  1.00800000E+00
  0.00000000E+00  1.60000000E+01  1.00800000E+00  1.00800000E+00  0.00000000E+00
  1.60000000E+01  1.00800000E+00  1.00800000E+00  0.00000000E+00  1.60000000E+01
  1.00800000E+00  1.00800000E+00  0.00000000E+00  1.60000000E+01  1.00800000E+00
  1.00800000E+00  0.00000000E+00  1.60000000E+01  1.00800000E+00  1.00800000E+00
  0.00000000E+00  1.60000000E+01  1.00800000E+00  1.00800000E+00  0.00000000E+00
  1.60000000E+01  1.00800000E+00  1.00800000E+00  0.00000000E+00  1.60000000E+01
  1.00800000E+00  1.00800000E+00  0.00000000E+00  1.60000000E+01  1.00800000E+00
  1.00800000E+00  0.00000000E+00  1.60000000E+01  1.00800000E+00  1.00800000E+00
  0.00000000E+00  1.60000000E+01  1.00800000E+00  1.00800000E+00  0.00000000E+00
  1.60000000E+01  1.00800000E+00  1.00800000E+00  0.00000000E+00  1.60000000E+01
  1.00800000E+00  1.00800000E+00  0.00000000E+00  1.60000000E+01  1.00800000E+00
  1.00800000E+00  0.00000000E+00  1.60000000E+01  1.00800000E+00  1.00800000E+00
  0.00000000E+00  1.60000000E+01  1.00800000E+00  1.00800000E+00  0.00000000E+00
  1.60000000E+01  1.00800000E+00  1.00800000E+00  0.00000000E+00  1.60000000E+01
  1.00800000E+00  1.00800000E+00  0.00000000E+00  1.60000000E+01  1.00800000E+00
  1.00800000E+00  0.00000000E+00  1.60000000E+01  1.00800000E+00  1.00800000E+00
  0.00000000E+00  1.60000000E+01  1.00800000E+00  1.00800000E+00  0.00000000E+00
  1.60000000E+01  1.00800000E+00  1.00800000E+00  0.00000000E+00  1.60000000E+01
  1.00800000E+00  1.00800000E+00  0.00000000E+00  1.60000000E+01  1.00800000E+00
  1.00800000E+00  0.00000000E+00  1.60000000E+01  1.00800000E+00  1.00800000E+00
  0.00000000E+00  1.60000000E+01  1.00800000E+00  1.00800000E+00  0.00000000E+00
  1.60000000E+01  1.00800000E+00  1.00800000E+00  0.00000000E+00  1.60000000E+01
  1.00800000E+00  1.00800000E+00  0.00000000E+00  1.60000000E+01  1.00800000E+00
  1.00800000E+00  0.00000000E+00  1.60000000E+01  1.00800000E+00  1.00800000E+00
  0.00000000E+00  1.60000000E+01  1.00800000E+00  1.00800000E+00  0.00000000E+00
  1.60000000E+01  1.00800000E+00  1.00800000E+00  0.00000000E+00  1.60000000E+01
  1.00800000E+00  1.00800000E+00  0.00000000E+00  1.60000000E+01  1.00800000E+00
  1.00800000E+00  0.00000000E+00  1.60000000E+01  1.00800000E+00  1.00800000E+00
  0.00000000E+00  1.60000000E+01  1.00800000E+00  1.00800000E+00  0.00000000E+00
  1.60000000E+01  1.00800000E+00  1.00800000E+00  0.00000000E+00  1.60000000E+01
  1.00800000E+00  1.00800000E+00  0.00000000E+00  1.60000000E+01  1.00800000E+00
  1.00800000E+00  0.00000000E+00  1.60000000E+01  1.00800000E+00  1.00800000E+00
  0.00000000E+00  1.60000000E+01  1.00800000E+00  1.00800000E+00  0.00000000E+00
  1.60000000E+01  1.00800000E+00  1.00800000E+00  0.00000000E+00  1.60000000E+01
  1.00800000E+00  1.00800000E+00  0.00000000E+00  1.60000000E+01  1.00800000E+00
  1.00800000E+00  0.00000000E+00  1.60000000E+01  1.00800000E+00  1.00800000E+00
  0.00000000E+00  1.60000000E+01  1.00800000E+00  1.00800000E+00  0.00000000E+00
  1.60000000E+01  1.00800000E+00  1.00800000E+00  0.00000000E+00  1.60000000E+01
  1.00800000E+00  1.00800000E+00  0.00000000E+00  1.60000000E+01  1.00800000E+00
  1.00800000E+00  0.00000000E+00  1.60000000E+01  1.00800000E+00  1.00800000E+00
  0.00000000E+00  1.60000000E+01  1.00800000E+00  1.00800000E+00  0.00000000E+00
  1.60000000E+01  1.00800000E+00  1.00800000E+00  0.00000000E+00  1.60000000E+01
  1.00800000E+00  1.00800000E+00  0.00000000E+00  1.60000000E+01  1.00800000E+00
  1.00800000E+00  0.00000000E+00  1.60000000E+01  1.00800000E+00  1.00800000E+00
  0.00000000E+00  1.60000000E+01  1.00800000E+00  1.00800000E+00  0.00000000E+00
  1.60000000E+01  1.00800000E+00  1.00800000E+00  0.00000000E+00  1.60000000E+01
  1.00800000E+00  1.00800000E+00  0.00000000E+00  1.60000000E+01  1.00800000E+00
  1.00800000E+00  0.00000000E+00  1.60000000E+01  1.00800000E+00  1.00800000E+00
  0.00000000E+00  1.60000000E+01  1.00800000E+00  1.00800000E+00  0.00000000E+00
  1.60000000E+01  1.00800000E+00  1.00800000E+00  0.00000000E+00  1.60000000E+01
  1.00800000E+00  1.00800000E+00  0.00000000E+00  1.60000000E+01  1.00800000E+00
  1.00800000E+00  0.00000000E+00  1.60000000E+01  1.00800000E+00  1.00800000E+00
  0.00000000E+00  1.60000000E+01  1.00800000E+00  1.00800000E+00  0.00000000E+00
  1.60000000E+01  1.00800000E+00  1.00800000E+00  0.00000000E+00  1.60000000E+01
  1.00800000E+00  1.00800000E+00  0.00000000E+00  1.60000000E+01  1.00800000E+00
  1.00800000E+00  0.00000000E+00  1.60000000E+01  1.00800000E+00  1.00800000E+00
  0.00000000E+00  1.60000000E+01  1.00800000E+00  1.00800000E+00  0.00000000E+00
  1.60000000E+01  1.00800000E+00  1.00800000E+00  0.00000000E+00  1.60000000E+01
  1.00800000E+00  1.00800000E+00  0.00000000E+00  1.60000000E+01  1.00800000E+00
  1.00800000E+00  0.00000000E+00  1.60000000E+01  1.00800000E+00  1.00800000E+00
  0.00000000E+00  1.60000000E+01  1.00800000E+00  1.00800000E+00  0.00000000E+00
  1.60000000E+01  1.00800000E+00  1.00800000E+00  0.00000000E+00  1.60000000E+01
  1.00800000E+00  1.00800000E+00  0.00000000E+00  1.60000000E+01  1.00800000E+00
  1.00800000E+00  0.00000000E+00  1.60000000E+01  1.00800000E+00  1.00800000E+00
  0.00000000E+00  1.60000000E+01  1.00800000E+00  1.00800000E+00  0.00000000E+00
  1.60000000E+01  1.00800000E+00  1.00800000E+00  0.00000000E+00  1.60000000E+01
  1.00800000E+00  1.00800000E+00  0.00000000E+00  1.60000000E+01  1.00800000E+00
  1.00800000E+00  0.00000000E+00  1.60000000E+01  1.00800000E+00  1.00800000E+00
  0.00000000E+00  1.60000000E+01  1.00800000E+00  1.00800000E+00  0.00000000E+00
  1.60000000E+01  1.00800000E+00  1.00800000E+00  0.00000000E+00  1.60000000E+01
  1.00800000E+00  1.00800000E+00  0.00000000E+00  1.60000000E+01  1.00800000E+00
  1.00800000E+00  0.00000000E+00  1.60000000E+01  1.00800000E+00  1.00800000E+00
  0.00000000E+00  1.60000000E+01  1.00800000E+00  1.00800000E+00  0.00000000E+00
  1.60000000E+01  1.00800000E+00  1.00800000E+00  0.00000000E+00  1.60000000E+01
  1.00800000E+00  1.00800000E+00  0.00000000E+00  1.60000000E+01  1.00800000E+00
  1.00800000E+00  0.00000000E+00  1.60000000E+01  1.00800000E+00  1.00800000E+00
  0.00000000E+00  1.60000000E+01  1.00800000E+00  1.00800000E+00  0.00000000E+00
  1.60000000E+01  1.00800000E+00  1.00800000E+00  0.00000000E+00  1.60000000E+01
  1.00800000E+00  1.00800000E+00  0.00000000E+00  1.60000000E+01  1.00800000E+00
  1.00800000E+00  0.00000000E+00  1.60000000E+01  1.00800000E+00  1.00800000E+00
  0.00000000E+00  1.60000000E+01  1.00800000E+00  1.00800000E+00  0.00000000E+00
  1.60000000E+01  1.00800000E+00  1.00800000E+00  0.00000000E+00  1.60000000E+01
  1.00800000E+00  1.00800000E+00  0.00000000E+00  1.60000000E+01  1.00800000E+00
  1.00800000E+00  0.00000000E+00  1.60000000E+01  1.00800000E+00  1.00800000E+00
  0.00000000E+00  1.60000000E+01  1.00800000E+00  1.00800000E+00  0.00000000E+00
  1.60000000E+01  1.00800000E+00  1.00800000E+00  0.00000000E+00  1.60000000E+01
  1.00800000E+00  1.00800000E+00  0.00000000E+00  1.60000000E+01  1.00800000E+00
  1.00800000E+00  0.00000000E+00  1.60000000E+01  1.00800000E+00  1.00800000E+00
  0.00000000E+00  1.60000000E+01  1.00800000E+00  1.00800000E+00  0.00000000E+00
  1.60000000E+01  1.00800000E+00  1.00800000E+00  0.00000000E+00  1.60000000E+01
  1.00800000E+00  1.00800000E+00  0.00000000E+00  1.60000000E+01  1.00800000E+00
  1.00800000E+00  0.00000000E+00  1.60000000E+01  1.00800000E+00  1.00800000E+00
  0.00000000E+00  1.60000000E+01  1.00800000E+00  1.00800000E+00  0.00000000E+00
  1.60000000E+01  1.00800000E+00  1.00800000E+00  0.00000000E+00  1.60000000E+01
  1.00800000E+00  1.00800000E+00  0.00000000E+00  1.60000000E+01  1.00800000E+00
  1.00800000E+00  0.00000000E+00  1.60000000E+01  1.00800000E+00  1.00800000E+00
  0.00000000E+00  1.60000000E+01  1.00800000E+00  1.00800000E+00  0.00000000E+00
  1.60000000E+01  1.00800000E+00  1.00800000E+00  0.00000000E+00  1.60000000E+01
  1.00800000E+00  1.00800000E+00  0.00000000E+00  1.60000000E+01  1.00800000E+00
  1.00800000E+00  0.00000000E+00  1.60000000E+01  1.00800000E+00  1.00800000E+00
  0.00000000E+00  1.60000000E+01  1.00800000E+00  1.00800000E+00  0.00000000E+00
  1.60000000E+01  1.00800000E+00  1.00800000E+00  0.00000000E+00  1.60000000E+01
  1.00800000E+00  1.00800000E+00  0.00000000E+00  1.60000000E+01  1.00800000E+00
  1.00800000E+00  0.00000000E+00  1.60000000E+01  1.00800000E+00  1.00800000E+00
  0.00000000E+00  1.60000000E+01  1.00800000E+00  1.00800000E+00  0.00000000E+00
  1.60000000E+01  1.00800000E+00  1.00800000E+00  0.00000000E+00  1.60000000E+01
  1.00800000E+00  1.00800000E+00  0.00000000E+00  1.60000000E+01  1.00800000E+00
  1.00800000E+00  0.00000000E+00  1.60000000E+01  1.00800000E+00  1.00800000E+00
  0.00000000E+00  1.60000000E+01  1.00800000E+00  1.00800000E+00  0.00000000E+00
  1.60000000E+01  1.00800000E+00  1.00800000E+00  0.00000000E+00  1.60000000E+01
  1.00800000E+00  1.00800000E+00  0.00000000E+00  1.60000000E+01  1.00800000E+00
  1.00800000E+00  0.00000000E+00  1.60000000E+01  1.00800000E+00  1.00800000E+00
  0.00000000E+00  1.60000000E+01  1.00800000E+00  1.00800000E+00  0.00000000E+00
  1.60000000E+01  1.00800000E+00  1.00800000E+00  0.00000000E+00  1.60000000E+01
  1.00800000E+00  1.00800000E+00  0.00000000E+00  1.60000000E+01  1.00800000E+00
  1.00800000E+00  0.00000000E+00  1.60000000E+01  1.00800000E+00  1.00800000E+00
  0.00000000E+00  1.60000000E+01  1.00800000E+00  1.00800000E+00  0.00000000E+00
  1.60000000E+01  1.00800000E+00  1.00800000E+00  0.00000000E+00  1.60000000E+01
  1.00800000E+00  1.00800000E+00  0.00000000E+00  1.60000000E+01  1.00800000E+00
  1.00800000E+00  0.00000000E+00  1.60000000E+01  1.00800000E+00  1.00800000E+00
  0.00000000E+00  1.60000000E+01  1.00800000E+00  1.00800000E+00  0.00000000E+00
  1.60000000E+01  1.00800000E+00  1.00800000E+00  0.00000000E+00  1.60000000E+01
  1.00800000E+00  1.00800000E+00  0.00000000E+00  1.60000000E+01  1.00800000E+00
  1.00800000E+00  0.00000000E+00  1.60000000E+01  1.00800000E+00  1.00800000E+00
  0.00000000E+00  1.60000000E+01  1.00800000E+00  1.00800000E+00  0.00000000E+00
  1.60000000E+01  1.00800000E+00  1.00800000E+00  0.00000000E+00  1.60000000E+01
  1.00800000E+00  1.00800000E+00  0.00000000E+00  1.60000000E+01  1.00800000E+00
  1.00800000E+00  0.00000000E+00  1.60000000E+01  1.00800000E+00  1.00800000E+00
  0.00000000E+00  1.60000000E+01  1.00800000E+00  1.00800000E+00  0.00000000E+00
  1.60000000E+01  1.00800000E+00  1.00800000E+00  0.00000000E+00  1.60000000E+01
  1.00800000E+00  1.00800000E+00  0.00000000E+00  1.60000000E+01  1.00800000E+00
  1.00800000E+00  0.00000000E+00  1.60000000E+01  1.00800000E+00  1.00800000E+00
  0.00000000E+00  1.60000000E+01  1.00800000E+00  1.00800000E+00  0.00000000E+00
  1.60000000E+01  1.00800000E+00  1.00800000E+00  0.00000000E+00  1.60000000E+01
  1.00800000E+00  1.00800000E+00  0.00000000E+00  1.60000000E+01  1.00800000E+00
  1.00800000E+00  0.00000000E+00  1.60000000E+01  1.00800000E+00  1.00800000E+00
  0.00000000E+00  1.60000000E+01  1.00800000E+00  1.00800000E+00  0.00000000E+00
  1.60000000E+01  1.00800000E+00  1.00800000E+00  0.00000000E+00  1.60000000E+01
  1.00800000E+00  1.00800000E+00  0.00000000E+00  1.60000000E+01  1.00800000E+00
  1.00800000E+00  0.00000000E+00  1.60000000E+01  1.00800000E+00  1.00800000E+00
  0.00000000E+00  1.60000000E+01  1.00800000E+00  1.00800000E+00  0.00000000E+00
  1.60000000E+01  1.00800000E+00  1.00800000E+00  0.00000000E+00  1.60000000E+01
  1.00800000E+00  1.00800000E+00  0.00000000E+00  1.60000000E+01  1.00800000E+00
  1.00800000E+00  0.00000000E+00  1.60000000E+01  1.00800000E+00  1.00800000E+00
  0.00000000E+00  1.60000000E+01  1.00800000E+00  1.00800000E+00  0.00000000E+00
  1.60000000E+01  1.00800000E+00  1.00800000E+00  0.00000000E+00  1.60000000E+01
  1.00800000E+00  1.00800000E+00  0.00000000E+00  1.60000000E+01  1.00800000E+00
  1.00800000E+00  0.00000000E+00  1.60000000E+01  1.00800000E+00  1.00800000E+00
  0.00000000E+00  1.60000000E+01  1.00800000E+00  1.00800000E+00  0.00000000E+00
  1.60000000E+01  1.00800000E+00  1.00800000E+00  0.00000000E+00  1.60000000E+01
  1.00800000E+00  1.00800000E+00  0.00000000E+00  1.60000000E+01  1.00800000E+00
  1.00800000E+00  0.00000000E+00  1.60000000E+01  1.00800000E+00  1.00800000E+00
  0.00000000E+00  1.60000000E+01  1.00800000E+00  1.00800000E+00  0.00000000E+00
  1.60000000E+01  1.00800000E+00  1.00800000E+00  0.00000000E+00  1.60000000E+01
  1.00800000E+00  1.00800000E+00  0.00000000E+00  1.60000000E+01  1.00800000E+00
  1.00800000E+00  0.00000000E+00  1.60000000E+01  1.00800000E+00  1.00800000E+00
  0.00000000E+00  1.60000000E+01  1.00800000E+00  1.00800000E+00  0.00000000E+00
  1.60000000E+01  1.00800000E+00  1.00800000E+00  0.00000000E+00  1.60000000E+01
  1.00800000E+00  1.00800000E+00  0.00000000E+00  1.60000000E+01  1.00800000E+00
  1.00800000E+00  0.00000000E+00  1.60000000E+01  1.00800000E+00  1.00800000E+00
  0.00000000E+00  1.60000000E+01  1.00800000E+00  1.00800000E+00  0.00000000E+00
  1.60000000E+01  1.00800000E+00  1.00800000E+00  0.00000000E+00  1.60000000E+01
  1.00800000E+00  1.00800000E+00  0.00000000E+00  1.60000000E+01  1.00800000E+00
  1.00800000E+00  0.00000000E+00  1.60000000E+01  1.00800000E+00  1.00800000E+00
  0.00000000E+00  1.60000000E+01  1.00800000E+00  1.00800000E+00  0.00000000E+00
  1.60000000E+01  1.00800000E+00  1.00800000E+00  0.00000000E+00  1.60000000E+01
  1.00800000E+00  1.00800000E+00  0.00000000E+00  1.60000000E+01  1.00800000E+00
  1.00800000E+00  0.00000000E+00  1.60000000E+01  1.00800000E+00  1.00800000E+00
  0.00000000E+00  1.60000000E+01  1.00800000E+00  1.00800000E+00  0.00000000E+00
  1.60000000E+01  1.00800000E+00  1.00800000E+00  0.00000000E+00  1.60000000E+01
  1.00800000E+00  1.00800000E+00  0.00000000E+00  1.60000000E+01  1.00800000E+00
  1.00800000E+00  0.00000000E+00  1.60000000E+01  1.00800000E+00  1.00800000E+00
  0.00000000E+00  1.60000000E+01  1.00800000E+00  1.00800000E+00  0.00000000E+00
  1.60000000E+01  1.00800000E+00  1.00800000E+00  0.00000000E+00  1.60000000E+01
  1.00800000E+00  1.00800000E+00  0.00000000E+00  1.60000000E+01  1.00800000E+00
  1.00800000E+00  0.00000000E+00  1.60000000E+01  1.00800000E+00  1.00800000E+00
  0.00000000E+00  1.60000000E+01  1.00800000E+00  1.00800000E+00  0.00000000E+00
  1.60000000E+01  1.00800000E+00  1.00800000E+00  0.00000000E+00  1.60000000E+01
  1.00800000E+00  1.00800000E+00  0.00000000E+00  1.60000000E+01  1.00800000E+00
  1.00800000E+00  0.00000000E+00  1.60000000E+01  1.00800000E+00  1.00800000E+00
  0.00000000E+00  1.60000000E+01  1.00800000E+00  1.00800000E+00  0.00000000E+00
  1.60000000E+01  1.00800000E+00  1.00800000E+00  0.00000000E+00  1.60000000E+01
  1.00800000E+00  1.00800000E+00  0.00000000E+00  1.60000000E+01  1.00800000E+00
  1.00800000E+00  0.00000000E+00  1.60000000E+01  1.00800000E+00  1.00800000E+00
  0.00000000E+00  1.60000000E+01  1.00800000E+00  1.00800000E+00  0.00000000E+00
  1.60000000E+01  1.00800000E+00  1.00800000E+00  0.00000000E+00  1.60000000E+01
  1.00800000E+00  1.00800000E+00  0.00000000E+00  1.60000000E+01  1.00800000E+00
  1.00800000E+00  0.00000000E+00  1.60000000E+01  1.00800000E+00  1.00800000E+00
  0.00000000E+00  1.60000000E+01  1.00800000E+00  1.00800000E+00  0.00000000E+00
  1.60000000E+01  1.00800000E+00  1.00800000E+00  0.00000000E+00  1.60000000E+01
  1.00800000E+00  1.00800000E+00  0.00000000E+00  1.60000000E+01  1.00800000E+00
  1.00800000E+00  0.00000000E+00  1.60000000E+01  1.00800000E+00  1.00800000E+00
  0.00000000E+00  1.60000000E+01  1.00800000E+00  1.00800000E+00  0.00000000E+00
  1.60000000E+01  1.00800000E+00  1.00800000E+00  0.00000000E+00  1.60000000E+01
  1.00800000E+00  1.00800000E+00  0.00000000E+00  1.60000000E+01  1.00800000E+00
  1.00800000E+00  0.00000000E+00  1.60000000E+01  1.00800000E+00  1.00800000E+00
  0.00000000E+00  1.60000000E+01  1.00800000E+00  1.00800000E+00  0.00000000E+00
  1.60000000E+01  1.00800000E+00  1.00800000E+00  0.00000000E+00  1.60000000E+01
  1.00800000E+00  1.00800000E+00  0.00000000E+00  1.60000000E+01  1.00800000E+00
  1.00800000E+00  0.00000000E+00  1.60000000E+01  1.00800000E+00  1.00800000E+00
  0.00000000E+00  1.60000000E+01  1.00800000E+00  1.00800000E+00  0.00000000E+00
  1.60000000E+01  1.00800000E+00  1.00800000E+00  0.00000000E+00  1.60000000E+01
  1.00800000E+00  1.00800000E+00  0.00000000E+00  1.60000000E+01  1.00800000E+00
  1.00800000E+00  0.00000000E+00  1.60000000E+01  1.00800000E+00  1.00800000E+00
  0.00000000E+00  1.60000000E+01  1.00800000E+00  1.00800000E+00  0.00000000E+00
  1.60000000E+01  1.00800000E+00  1.00800000E+00  0.00000000E+00  1.60000000E+01
  1.00800000E+00  1.00800000E+00  0.00000000E+00  1.60000000E+01  1.00800000E+00
  1.00800000E+00  0.00000000E+00  1.60000000E+01  1.00800000E+00  1.00800000E+00
  0.00000000E+00  1.60000000E+01  1.00800000E+00  1.00800000E+00  0.00000000E+00
  1.60000000E+01  1.00800000E+00  1.00800000E+00  0.00000000E+00  1.60000000E+01
  1.00800000E+00  1.00800000E+00  0.00000000E+00  1.60000000E+01  1.00800000E+00
  1.00800000E+00  0.00000000E+00  1.60000000E+01  1.00800000E+00  1.00800000E+00
  0.00000000E+00  1.60000000E+01  1.00800000E+00  1.00800000E+00  0.00000000E+00
  1.60000000E+01  1.00800000E+00  1.00800000E+00  0.00000000E+00  1.60000000E+01
  1.00800000E+00  1.00800000E+00  0.00000000E+00  1.60000000E+01  1.00800000E+00
  1.00800000E+00  0.00000000E+00  1.60000000E+01  1.00800000E+00  1.00800000E+00
  0.00000000E+00  1.60000000E+01  1.00800000E+00  1.00800000E+00  0.00000000E+00
  1.60000000E+01  1.00800000E+00  1.00800000E+00  0.00000000E+00  1.60000000E+01
  1.00800000E+00  1.00800000E+00  0.00000000E+00  1.60000000E+01  1.00800000E+00
  1.00800000E+00  0.00000000E+00  1.60000000E+01  1.00800000E+00  1.00800000E+00
  0.00000000E+00  1.60000000E+01  1.00800000E+00  1.00800000E+00  0.00000000E+00
  1.60000000E+01  1.00800000E+00  1.00800000E+00  0.00000000E+00  1.60000000E+01
  1.00800000E+00  1.00800000E+00  0.00000000E+00  1.60000000E+01  1.00800000E+00
  1.00800000E+00  0.00000000E+00  1.60000000E+01  1.00800000E+00  1.00800000E+00
  0.00000000E+00  1.60000000E+01  1.00800000E+00  1.00800000E+00  0.00000000E+00
  1.60000000E+01  1.00800000E+00  1.00800000E+00  0.00000000E+00  1.60000000E+01
  1.00800000E+00  1.00800000E+00  0.00000000E+00  1.60000000E+01  1.00800000E+00
  1.00800000E+00  0.00000000E+00  1.60000000E+01  1.00800000E+00  1.00800000E+00
  0.00000000E+00  1.60000000E+01  1.00800000E+00  1.00800000E+00  0.00000000E+00
  1.60000000E+01  1.00800000E+00  1.00800000E+00  0.00000000E+00  1.60000000E+01
  1.00800000E+00  1.00800000E+00  0.00000000E+00  1.60000000E+01  1.00800000E+00
  1.00800000E+00  0.00000000E+00  1.60000000E+01  1.00800000E+00  1.00800000E+00
  0.00000000E+00  1.60000000E+01  1.00800000E+00  1.00800000E+00  0.00000000E+00
  1.60000000E+01  1.00800000E+00  1.00800000E+00  0.00000000E+00  1.60000000E+01
  1.00800000E+00  1.00800000E+00  0.00000000E+00  1.60000000E+01  1.00800000E+00
  1.00800000E+00  0.00000000E+00  1.60000000E+01  1.00800000E+00  1.00800000E+00
  0.00000000E+00  1.60000000E+01  1.00800000E+00  1.00800000E+00  0.00000000E+00
  1.60000000E+01  1.00800000E+00  1.00800000E+00  0.00000000E+00  1.60000000E+01
  1.00800000E+00  1.00800000E+00  0.00000000E+00  1.60000000E+01  1.00800000E+00
  1.00800000E+00  0.00000000E+00  1.60000000E+01  1.00800000E+00  1.00800000E+00
  0.00000000E+00  1.60000000E+01  1.00800000E+00  1.00800000E+00  0.00000000E+00
  1.60000000E+01  1.00800000E+00  1.00800000E+00  0.00000000E+00  1.60000000E+01
  1.00800000E+00  1.00800000E+00  0.00000000E+00  1.60000000E+01  1.00800000E+00
  1.00800000E+00  0.00000000E+00  1.60000000E+01  1.00800000E+00  1.00800000E+00
  0.00000000E+00  1.60000000E+01  1.00800000E+00  1.00800000E+00  0.00000000E+00
  1.60000000E+01  1.00800000E+00  1.00800000E+00  0.00000000E+00  1.60000000E+01
  1.00800000E+00  1.00800000E+00  0.00000000E+00  1.60000000E+01  1.00800000E+00
  1.00800000E+00  0.00000000E+00  1.60000000E+01  1.00800000E+00  1.00800000E+00
  0.00000000E+00  1.60000000E+01  1.00800000E+00  1.00800000E+00  0.00000000E+00
  1.60000000E+01  1.00800000E+00  1.00800000E+00  0.00000000E+00  1.60000000E+01
  1.00800000E+00  1.00800000E+00  0.00000000E+00  1.60000000E+01  1.00800000E+00
  1.00800000E+00  0.00000000E+00  1.60000000E+01  1.00800000E+00  1.00800000E+00
  0.00000000E+00  1.60000000E+01  1.00800000E+00  1.00800000E+00  0.00000000E+00
  1.60000000E+01  1.00800000E+00  1.00800000E+00  0.00000000E+00  1.60000000E+01
  1.00800000E+00  1.00800000E+00  0.00000000E+00  1.60000000E+01  1.00800000E+00
  1.00800000E+00  0.00000000E+00  1.60000000E+01  1.00800000E+00  1.00800000E+00
  0.00000000E+00  1.60000000E+01  1.00800000E+00  1.00800000E+00  0.00000000E+00
  1.60000000E+01  1.00800000E+00  1.00800000E+00  0.00000000E+00  1.60000000E+01
  1.00800000E+00  1.00800000E+00  0.00000000E+00  1.60000000E+01  1.00800000E+00
  1.00800000E+00  0.00000000E+00  1.60000000E+01  1.00800000E+00  1.00800000E+00
  0.00000000E+00  1.60000000E+01  1.00800000E+00  1.00800000E+00  0.00000000E+00
  1.60000000E+01  1.00800000E+00  1.00800000E+00  0.00000000E+00  1.60000000E+01
  1.00800000E+00  1.00800000E+00  0.00000000E+00  1.60000000E+01  1.00800000E+00
  1.00800000E+00  0.00000000E+00  1.60000000E+01  1.00800000E+00  1.00800000E+00
  0.00000000E+00  1.60000000E+01  1.00800000E+00  1.00800000E+00  0.00000000E+00
  1.60000000E+01  1.00800000E+00  1.00800000E+00  0.00000000E+00  1.60000000E+01
  1.00800000E+00  1.00800000E+00  0.00000000E+00  1.60000000E+01  1.00800000E+00
  1.00800000E+00  0.00000000E+00  1.60000000E+01  1.00800000E+00  1.00800000E+00
  0.00000000E+00  1.60000000E+01  1.00800000E+00  1.00800000E+00  0.00000000E+00
  1.60000000E+01  1.00800000E+00  1.00800000E+00  0.00000000E+00  1.60000000E+01
  1.00800000E+00  1.00800000E+00  0.00000000E+00  1.60000000E+01  1.00800000E+00
  1.00800000E+00  0.00000000E+00  1.60000000E+01  1.00800000E+00  1.00800000E+00
  0.00000000E+00  1.60000000E+01  1.00800000E+00  1.00800000E+00  0.00000000E+00
  1.60000000E+01  1.00800000E+00  1.00800000E+00  0.00000000E+00  1.60000000E+01
  1.00800000E+00  1.00800000E+00  0.00000000E+00  1.60000000E+01  1.00800000E+00
  1.00800000E+00  0.00000000E+00  1.60000000E+01  1.00800000E+00  1.00800000E+00
  0.00000000E+00  1.60000000E+01  1.00800000E+00  1.00800000E+00  0.00000000E+00
  1.60000000E+01  1.00800000E+00  1.00800000E+00  0.00000000E+00  1.60000000E+01
  1.00800000E+00  1.00800000E+00  0.00000000E+00  1.60000000E+01  1.00800000E+00
  1.00800000E+00  0.00000000E+00  1.60000000E+01  1.00800000E+00  1.00800000E+00
  0.00000000E+00  1.60000000E+01  1.00800000E+00  1.00800000E+00  0.00000000E+00
  1.60000000E+01  1.00800000E+00  1.00800000E+00  0.00000000E+00  1.60000000E+01
  1.00800000E+00  1.00800000E+00  0.00000000E+00  1.60000000E+01  1.00800000E+00
  1.00800000E+00  0.00000000E+00  1.60000000E+01  1.00800000E+00  1.00800000E+00
  0.00000000E+00  1.60000000E+01  1.00800000E+00  1.00800000E+00  0.00000000E+00
  1.60000000E+01  1.00800000E+00  1.00800000E+00  0.00000000E+00  1.60000000E+01
  1.00800000E+00  1.00800000E+00  0.00000000E+00  1.60000000E+01  1.00800000E+00
  1.00800000E+00  0.00000000E+00  1.60000000E+01  1.00800000E+00  1.00800000E+00
  0.00000000E+00  1.60000000E+01  1.00800000E+00  1.00800000E+00  0.00000000E+00
  1.60000000E+01  1.00800000E+00  1.00800000E+00  0.00000000E+00  1.60000000E+01
  1.00800000E+00  1.00800000E+00  0.00000000E+00  1.60000000E+01  1.00800000E+00
  1.00800000E+00  0.00000000E+00  1.60000000E+01  1.00800000E+00  1.00800000E+00
  0.00000000E+00  1.60000000E+01  1.00800000E+00  1.00800000E+00  0.00000000E+00
  1.60000000E+01  1.00800000E+00  1.00800000E+00  0.00000000E+00  1.60000000E+01
  1.00800000E+00  1.00800000E+00  0.00000000E+00  1.60000000E+01  1.00800000E+00
  1.00800000E+00  0.00000000E+00  1.60000000E+01  1.00800000E+00  1.00800000E+00
  0.00000000E+00  1.60000000E+01  1.00800000E+00  1.00800000E+00  0.00000000E+00
  1.60000000E+01  1.00800000E+00  1.00800000E+00  0.00000000E+00  1.60000000E+01
  1.00800000E+00  1.00800000E+00  0.00000000E+00  1.60000000E+01  1.00800000E+00
  1.00800000E+00  0.00000000E+00  1.60000000E+01  1.00800000E+00  1.00800000E+00
  0.00000000E+00  1.60000000E+01  1.00800000E+00  1.00800000E+00  0.00000000E+00
  1.60000000E+01  1.00800000E+00  1.00800000E+00  0.00000000E+00  1.60000000E+01
  1.00800000E+00  1.00800000E+00  0.00000000E+00  1.60000000E+01  1.00800000E+00
  1.00800000E+00  0.00000000E+00  1.60000000E+01  1.00800000E+00  1.00800000E+00
  0.00000000E+00  1.60000000E+01  1.00800000E+00  1.00800000E+00  0.00000000E+00
  1.60000000E+01  1.00800000E+00  1.00800000E+00  0.00000000E+00  1.60000000E+01
  1.00800000E+00  1.00800000E+00  0.00000000E+00  1.60000000E+01  1.00800000E+00
  1.00800000E+00  0.00000000E+00  1.60000000E+01  1.00800000E+00  1.00800000E+00
  0.00000000E+00  1.60000000E+01  1.00800000E+00  1.00800000E+00  0.00000000E+00
  1.60000000E+01  1.00800000E+00  1.00800000E+00  0.00000000E+00  1.60000000E+01
  1.00800000E+00  1.00800000E+00  0.00000000E+00  1.60000000E+01  1.00800000E+00
  1.00800000E+00  0.00000000E+00  1.60000000E+01  1.00800000E+00  1.00800000E+00
  0.00000000E+00  1.60000000E+01  1.00800000E+00  1.00800000E+00  0.00000000E+00
  1.60000000E+01  1.00800000E+00  1.00800000E+00  0.00000000E+00  1.60000000E+01
  1.00800000E+00  1.00800000E+00  0.00000000E+00  1.60000000E+01  1.00800000E+00
  1.00800000E+00  0.00000000E+00  1.60000000E+01  1.00800000E+00  1.00800000E+00
  0.00000000E+00  1.60000000E+01  1.00800000E+00  1.00800000E+00  0.00000000E+00
  1.60000000E+01  1.00800000E+00  1.00800000E+00  0.00000000E+00  1.60000000E+01
  1.00800000E+00  1.00800000E+00  0.00000000E+00  1.60000000E+01  1.00800000E+00
  1.00800000E+00  0.00000000E+00  1.60000000E+01  1.00800000E+00  1.00800000E+00
  0.00000000E+00  1.60000000E+01  1.00800000E+00  1.00800000E+00  0.00000000E+00
  1.60000000E+01  1.00800000E+00  1.00800000E+00  0.00000000E+00  1.60000000E+01
  1.00800000E+00  1.00800000E+00  0.00000000E+00  1.60000000E+01  1.00800000E+00
  1.00800000E+00  0.00000000E+00  1.60000000E+01  1.00800000E+00  1.00800000E+00
  0.00000000E+00  1.60000000E+01  1.00800000E+00  1.00800000E+00  0.00000000E+00
  1.60000000E+01  1.00800000E+00  1.00800000E+00  0.00000000E+00  1.60000000E+01
  1.00800000E+00  1.00800000E+00  0.00000000E+00  1.60000000E+01  1.00800000E+00
  1.00800000E+00  0.00000000E+00  1.60000000E+01  1.00800000E+00  1.00800000E+00
  0.00000000E+00  1.60000000E+01  1.00800000E+00  1.00800000E+00  0.00000000E+00
  1.60000000E+01  1.00800000E+00  1.00800000E+00  0.00000000E+00  1.60000000E+01
  1.00800000E+00  1.00800000E+00  0.00000000E+00  1.60000000E+01  1.00800000E+00
  1.00800000E+00  0.00000000E+00  1.60000000E+01  1.00800000E+00  1.00800000E+00
  0.00000000E+00  1.60000000E+01  1.00800000E+00  1.00800000E+00  0.00000000E+00
  1.60000000E+01  1.00800000E+00  1.00800000E+00  0.00000000E+00  1.60000000E+01
  1.00800000E+00  1.00800000E+00  0.00000000E+00  1.60000000E+01  1.00800000E+00
  1.00800000E+00  0.00000000E+00  1.60000000E+01  1.00800000E+00  1.00800000E+00
  0.00000000E+00  1.60000000E+01  1.00800000E+00  1.00800000E+00  0.00000000E+00
  1.60000000E+01  1.00800000E+00  1.00800000E+00  0.00000000E+00  1.60000000E+01
  1.00800000E+00  1.00800000E+00  0.00000000E+00  1.60000000E+01  1.00800000E+00
  1.00800000E+00  0.00000000E+00  1.60000000E+01  1.00800000E+00  1.00800000E+00
  0.00000000E+00  1.60000000E+01  1.00800000E+00  1.00800000E+00  0.00000000E+00
  1.60000000E+01  1.00800000E+00  1.00800000E+00  0.00000000E+00  1.60000000E+01
  1.00800000E+00  1.00800000E+00  0.00000000E+00  1.60000000E+01  1.00800000E+00
  1.00800000E+00  0.00000000E+00  1.60000000E+01  1.00800000E+00  1.00800000E+00
  0.00000000E+00  1.60000000E+01  1.00800000E+00  1.00800000E+00  0.00000000E+00
  1.60000000E+01  1.00800000E+00  1.00800000E+00  0.00000000E+00  1.60000000E+01
  1.00800000E+00  1.00800000E+00  0.00000000E+00  1.60000000E+01  1.00800000E+00
  1.00800000E+00  0.00000000E+00  1.60000000E+01  1.00800000E+00  1.00800000E+00
  0.00000000E+00  1.60000000E+01  1.00800000E+00  1.00800000E+00  0.00000000E+00
  1.60000000E+01  1.00800000E+00  1.00800000E+00  0.00000000E+00  1.60000000E+01
  1.00800000E+00  1.00800000E+00  0.00000000E+00  1.60000000E+01  1.00800000E+00
  1.00800000E+00  0.00000000E+00  1.60000000E+01  1.00800000E+00  1.00800000E+00
  0.00000000E+00  1.60000000E+01  1.00800000E+00  1.00800000E+00  0.00000000E+00
  1.60000000E+01  1.00800000E+00  1.00800000E+00  0.00000000E+00  1.60000000E+01
  1.00800000E+00  1.00800000E+00  0.00000000E+00  1.60000000E+01  1.00800000E+00
  1.00800000E+00  0.00000000E+00  1.60000000E+01  1.00800000E+00  1.00800000E+00
  0.00000000E+00  1.60000000E+01  1.00800000E+00  1.00800000E+00  0.00000000E+00
  1.60000000E+01  1.00800000E+00  1.00800000E+00  0.00000000E+00  1.60000000E+01
  1.00800000E+00  1.00800000E+00  0.00000000E+00  1.60000000E+01  1.00800000E+00
  1.00800000E+00  0.00000000E+00  1.60000000E+01  1.00800000E+00  1.00800000E+00
  0.00000000E+00  1.60000000E+01  1.00800000E+00  1.00800000E+00  0.00000000E+00
  1.60000000E+01  1.00800000E+00  1.00800000E+00  0.00000000E+00  1.60000000E+01
  1.00800000E+00  1.00800000E+00  0.00000000E+00  1.60000000E+01  1.00800000E+00
  1.00800000E+00  0.00000000E+00  1.60000000E+01  1.00800000E+00  1.00800000E+00
  0.00000000E+00  1.60000000E+01  1.00800000E+00  1.00800000E+00  0.00000000E+00
  1.60000000E+01  1.00800000E+00  1.00800000E+00  0.00000000E+00  1.60000000E+01
  1.00800000E+00  1.00800000E+00  0.00000000E+00  1.60000000E+01  1.00800000E+00
  1.00800000E+00  0.00000000E+00  1.60000000E+01  1.00800000E+00  1.00800000E+00
  0.00000000E+00  1.60000000E+01  1.00800000E+00  1.00800000E+00  0.00000000E+00
  1.60000000E+01  1.00800000E+00  1.00800000E+00  0.00000000E+00  1.60000000E+01
  1.00800000E+00  1.00800000E+00  0.00000000E+00  1.60000000E+01  1.00800000E+00
  1.00800000E+00  0.00000000E+00  1.60000000E+01  1.00800000E+00  1.00800000E+00
  0.00000000E+00  1.60000000E+01  1.00800000E+00  1.00800000E+00  0.00000000E+00
  1.60000000E+01  1.00800000E+00  1.00800000E+00  0.00000000E+00  1.60000000E+01
  1.00800000E+00  1.00800000E+00  0.00000000E+00  1.60000000E+01  1.00800000E+00
  1.00800000E+00  0.00000000E+00  1.60000000E+01  1.00800000E+00  1.00800000E+00
  0.00000000E+00  1.60000000E+01  1.00800000E+00  1.00800000E+00  0.00000000E+00
  1.60000000E+01  1.00800000E+00  1.00800000E+00  0.00000000E+00  1.60000000E+01
  1.00800000E+00  1.00800000E+00  0.00000000E+00  1.60000000E+01  1.00800000E+00
  1.00800000E+00  0.00000000E+00  1.60000000E+01  1.00800000E+00  1.00800000E+00
  0.00000000E+00  1.60000000E+01  1.00800000E+00  1.00800000E+00  0.00000000E+00
  1.60000000E+01  1.00800000E+00  1.00800000E+00  0.00000000E+00  1.60000000E+01
  1.00800000E+00  1.00800000E+00  0.00000000E+00  1.60000000E+01  1.00800000E+00
  1.00800000E+00  0.00000000E+00  1.60000000E+01  1.00800000E+00  1.00800000E+00
  0.00000000E+00  1.60000000E+01  1.00800000E+00  1.00800000E+00  0.00000000E+00
  1.60000000E+01  1.00800000E+00  1.00800000E+00  0.00000000E+00  1.60000000E+01
  1.00800000E+00  1.00800000E+00  0.00000000E+00  1.60000000E+01  1.00800000E+00
  1.00800000E+00  0.00000000E+00  1.60000000E+01  1.00800000E+00  1.00800000E+00
  0.00000000E+00  1.60000000E+01  1.00800000E+00  1.00800000E+00  0.00000000E+00
  1.60000000E+01  1.00800000E+00  1.00800000E+00  0.00000000E+00  1.60000000E+01
  1.00800000E+00  1.00800000E+00  0.00000000E+00  1.60000000E+01  1.00800000E+00
  1.00800000E+00  0.00000000E+00  1.60000000E+01  1.00800000E+00  1.00800000E+00
  0.00000000E+00  1.60000000E+01  1.00800000E+00  1.00800000E+00  0.00000000E+00
  1.60000000E+01  1.00800000E+00  1.00800000E+00  0.00000000E+00  1.60000000E+01
  1.00800000E+00  1.00800000E+00  0.00000000E+00  1.60000000E+01  1.00800000E+00
  1.00800000E+00  0.00000000E+00  1.60000000E+01  1.00800000E+00  1.00800000E+00
  0.00000000E+00  1.60000000E+01  1.00800000E+00  1.00800000E+00  0.00000000E+00
  1.60000000E+01  1.00800000E+00  1.00800000E+00  0.00000000E+00  1.60000000E+01
  1.00800000E+00  1.00800000E+00  0.00000000E+00  1.60000000E+01  1.00800000E+00
  1.00800000E+00  0.00000000E+00  1.60000000E+01  1.00800000E+00  1.00800000E+00
  0.00000000E+00  1.60000000E+01  1.00800000E+00  1.00800000E+00  0.00000000E+00
  1.60000000E+01  1.00800000E+00  1.00800000E+00  0.00000000E+00  1.60000000E+01
  1.00800000E+00  1.00800000E+00  0.00000000E+00  1.60000000E+01  1.00800000E+00
  1.00800000E+00  0.00000000E+00  1.60000000E+01  1.00800000E+00  1.00800000E+00
  0.00000000E+00  1.60000000E+01  1.00800000E+00  1.00800000E+00  0.00000000E+00
  1.60000000E+01  1.00800000E+00  1.00800000E+00  0.00000000E+00  1.60000000E+01
  1.00800000E+00  1.00800000E+00  0.00000000E+00  1.60000000E+01  1.00800000E+00
  1.00800000E+00  0.00000000E+00  1.60000000E+01  1.00800000E+00  1.00800000E+00
  0.00000000E+00  1.60000000E+01  1.00800000E+00  1.00800000E+00  0.00000000E+00
  1.60000000E+01  1.00800000E+00  1.00800000E+00  0.00000000E+00  1.60000000E+01
  1.00800000E+00  1.00800000E+00  0.00000000E+00  1.60000000E+01  1.00800000E+00
  1.00800000E+00  0.00000000E+00  1.60000000E+01  1.00800000E+00  1.00800000E+00
  0.00000000E+00  1.60000000E+01  1.00800000E+00  1.00800000E+00  0.00000000E+00
  1.60000000E+01  1.00800000E+00  1.00800000E+00  0.00000000E+00  1.60000000E+01
  1.00800000E+00  1.00800000E+00  0.00000000E+00  1.60000000E+01  1.00800000E+00
  1.00800000E+00  0.00000000E+00  1.60000000E+01  1.00800000E+00  1.00800000E+00
  0.00000000E+00  1.60000000E+01  1.00800000E+00  1.00800000E+00  0.00000000E+00
  1.60000000E+01  1.00800000E+00  1.00800000E+00  0.00000000E+00  1.60000000E+01
  1.00800000E+00  1.00800000E+00  0.00000000E+00  1.60000000E+01  1.00800000E+00
  1.00800000E+00  0.00000000E+00  1.60000000E+01  1.00800000E+00  1.00800000E+00
  0.00000000E+00  1.60000000E+01  1.00800000E+00  1.00800000E+00  0.00000000E+00
  1.60000000E+01  1.00800000E+00  1.00800000E+00  0.00000000E+00  1.60000000E+01
  1.00800000E+00  1.00800000E+00  0.00000000E+00  1.60000000E+01  1.00800000E+00
  1.00800000E+00  0.00000000E+00  1.60000000E+01  1.00800000E+00  1.00800000E+00
  0.00000000E+00  1.60000000E+01  1.00800000E+00  1.00800000E+00  0.00000000E+00
  1.60000000E+01  1.00800000E+00  1.00800000E+00  0.00000000E+00  1.60000000E+01
  1.00800000E+00  1.00800000E+00  0.00000000E+00  1.60000000E+01  1.00800000E+00
  1.00800000E+00  0.00000000E+00  1.60000000E+01  1.00800000E+00  1.00800000E+00
  0.00000000E+00  1.60000000E+01  1.00800000E+00  1.00800000E+00  0.00000000E+00
  1.60000000E+01  1.00800000E+00  1.00800000E+00  0.00000000E+00  1.60000000E+01
  1.00800000E+00  1.00800000E+00  0.00000000E+00  1.60000000E+01  1.00800000E+00
  1.00800000E+00  0.00000000E+00  1.60000000E+01  1.00800000E+00  1.00800000E+00
  0.00000000E+00  1.60000000E+01  1.00800000E+00  1.00800000E+00  0.00000000E+00
  1.60000000E+01  1.00800000E+00  1.00800000E+00  0.00000000E+00  1.60000000E+01
  1.00800000E+00  1.00800000E+00  0.00000000E+00  1.60000000E+01  1.00800000E+00
  1.00800000E+00  0.00000000E+00  1.60000000E+01  1.00800000E+00  1.00800000E+00
  0.00000000E+00  1.60000000E+01  1.00800000E+00  1.00800000E+00  0.00000000E+00
  1.60000000E+01  1.00800000E+00  1.00800000E+00  0.00000000E+00  1.60000000E+01
  1.00800000E+00  1.00800000E+00  0.00000000E+00  1.60000000E+01  1.00800000E+00
  1.00800000E+00  0.00000000E+00  1.60000000E+01  1.00800000E+00  1.00800000E+00
  0.00000000E+00  1.60000000E+01  1.00800000E+00  1.00800000E+00  0.00000000E+00
  1.60000000E+01  1.00800000E+00  1.00800000E+00  0.00000000E+00  1.60000000E+01
  1.00800000E+00  1.00800000E+00  0.00000000E+00  1.60000000E+01  1.00800000E+00
  1.00800000E+00  0.00000000E+00  1.60000000E+01  1.00800000E+00  1.00800000E+00
  0.00000000E+00  1.60000000E+01  1.00800000E+00  1.00800000E+00  0.00000000E+00
  1.60000000E+01  1.00800000E+00  1.00800000E+00  0.00000000E+00  1.60000000E+01
  1.00800000E+00  1.00800000E+00  0.00000000E+00  1.60000000E+01  1.00800000E+00
  1.00800000E+00  0.00000000E+00  1.60000000E+01  1.00800000E+00  1.00800000E+00
  0.00000000E+00  1.60000000E+01  1.00800000E+00  1.00800000E+00  0.00000000E+00
  1.60000000E+01  1.00800000E+00  1.00800000E+00  0.00000000E+00  1.60000000E+01
  1.00800000E+00  1.00800000E+00  0.00000000E+00  1.60000000E+01  1.00800000E+00
  1.00800000E+00  0.00000000E+00  1.60000000E+01  1.00800000E+00  1.00800000E+00
  0.00000000E+00  1.60000000E+01  1.00800000E+00  1.00800000E+00  0.00000000E+00
  1.60000000E+01  1.00800000E+00  1.00800000E+00  0.00000000E+00  1.60000000E+01
  1.00800000E+00  1.00800000E+00  0.00000000E+00  1.60000000E+01  1.00800000E+00
  1.00800000E+00  0.00000000E+00  1.60000000E+01  1.00800000E+00  1.00800000E+00
  0.00000000E+00  1.60000000E+01  1.00800000E+00  1.00800000E+00  0.00000000E+00
  1.60000000E+01  1.00800000E+00  1.00800000E+00  0.00000000E+00  1.60000000E+01
  1.00800000E+00  1.00800000E+00  0.00000000E+00  1.60000000E+01  1.00800000E+00
  1.00800000E+00  0.00000000E+00  1.60000000E+01  1.00800000E+00  1.00800000E+00
  0.00000000E+00  1.60000000E+01  1.00800000E+00  1.00800000E+00  0.00000000E+00
  1.60000000E+01  1.00800000E+00  1.00800000E+00  0.00000000E+00  1.60000000E+01
  1.00800000E+00  1.00800000E+00  0.00000000E+00  1.60000000E+01  1.00800000E+00
  1.00800000E+00  0.00000000E+00  1.60000000E+01  1.00800000E+00  1.00800000E+00
  0.00000000E+00  1.60000000E+01  1.00800000E+00  1.00800000E+00  0.00000000E+00
  1.60000000E+01  1.00800000E+00  1.00800000E+00  0.00000000E+00  1.60000000E+01
  1.00800000E+00  1.00800000E+00  0.00000000E+00  1.60000000E+01  1.00800000E+00
  1.00800000E+00  0.00000000E+00  1.60000000E+01  1.00800000E+00  1.00800000E+00
  0.00000000E+00  1.60000000E+01  1.00800000E+00  1.00800000E+00  0.00000000E+00
  1.60000000E+01  1.00800000E+00  1.00800000E+00  0.00000000E+00  1.60000000E+01
  1.00800000E+00  1.00800000E+00  0.00000000E+00  1.60000000E+01  1.00800000E+00
  1.00800000E+00  0.00000000E+00  1.60000000E+01  1.00800000E+00  1.00800000E+00
  0.00000000E+00  1.60000000E+01  1.00800000E+00  1.00800000E+00  0.00000000E+00
  1.60000000E+01  1.00800000E+00  1.00800000E+00  0.00000000E+00  1.60000000E+01
  1.00800000E+00  1.00800000E+00  0.00000000E+00  1.60000000E+01  1.00800000E+00
  1.00800000E+00  0.00000000E+00  1.60000000E+01  1.00800000E+00  1.00800000E+00
  0.00000000E+00  1.60000000E+01  1.00800000E+00  1.00800000E+00  0.00000000E+00
  1.60000000E+01  1.00800000E+00  1.00800000E+00  0.00000000E+00  1.60000000E+01
  1.00800000E+00  1.00800000E+00  0.00000000E+00  1.60000000E+01  1.00800000E+00
  1.00800000E+00  0.00000000E+00  1.60000000E+01  1.00800000E+00  1.00800000E+00
  0.00000000E+00  1.60000000E+01  1.00800000E+00  1.00800000E+00  0.00000000E+00
  1.60000000E+01  1.00800000E+00  1.00800000E+00  0.00000000E+00  1.60000000E+01
  1.00800000E+00  1.00800000E+00  0.00000000E+00  1.60000000E+01  1.00800000E+00
  1.00800000E+00  0.00000000E+00  1.60000000E+01  1.00800000E+00  1.00800000E+00
  0.00000000E+00  1.60000000E+01  1.00800000E+00  1.00800000E+00  0.00000000E+00
  1.60000000E+01  1.00800000E+00  1.00800000E+00  0.00000000E+00  1.60000000E+01
  1.00800000E+00  1.00800000E+00  0.00000000E+00  1.60000000E+01  1.00800000E+00
  1.00800000E+00  0.00000000E+00  1.60000000E+01  1.00800000E+00  1.00800000E+00
  0.00000000E+00  1.60000000E+01  1.00800000E+00  1.00800000E+00  0.00000000E+00
  1.60000000E+01  1.00800000E+00  1.00800000E+00  0.00000000E+00  1.60000000E+01
  1.00800000E+00  1.00800000E+00  0.00000000E+00  1.60000000E+01  1.00800000E+00
  1.00800000E+00  0.00000000E+00  1.60000000E+01  1.00800000E+00  1.00800000E+00
  0.00000000E+00  1.60000000E+01  1.00800000E+00  1.00800000E+00  0.00000000E+00
  1.60000000E+01  1.00800000E+00  1.00800000E+00  0.00000000E+00  1.60000000E+01
  1.00800000E+00  1.00800000E+00  0.00000000E+00  1.60000000E+01  1.00800000E+00
  1.00800000E+00  0.00000000E+00  1.60000000E+01  1.00800000E+00  1.00800000E+00
  0.00000000E+00  1.60000000E+01  1.00800000E+00  1.00800000E+00  0.00000000E+00
  1.60000000E+01  1.00800000E+00  1.00800000E+00  0.00000000E+00  1.60000000E+01
  1.00800000E+00  1.00800000E+00  0.00000000E+00  1.60000000E+01  1.00800000E+00
  1.00800000E+00  0.00000000E+00  1.60000000E+01  1.00800000E+00  1.00800000E+00
  0.00000000E+00  1.60000000E+01  1.00800000E+00  1.00800000E+00  0.00000000E+00
  1.60000000E+01  1.00800000E+00  1.00800000E+00  0.00000000E+00  1.60000000E+01
  1.00800000E+00  1.00800000E+00  0.00000000E+00  1.60000000E+01  1.00800000E+00
  1.00800000E+00  0.00000000E+00  1.60000000E+01  1.00800000E+00  1.00800000E+00
  0.00000000E+00  1.60000000E+01  1.00800000E+00  1.00800000E+00  0.00000000E+00
  1.60000000E+01  1.00800000E+00  1.00800000E+00  0.00000000E+00  1.60000000E+01
  1.00800000E+00  1.00800000E+00  0.00000000E+00  1.60000000E+01  1.00800000E+00
  1.00800000E+00  0.00000000E+00  1.60000000E+01  1.00800000E+00  1.00800000E+00
  0.00000000E+00  1.60000000E+01  1.00800000E+00  1.00800000E+00  0.00000000E+00
  1.60000000E+01  1.00800000E+00  1.00800000E+00  0.00000000E+00  1.60000000E+01
  1.00800000E+00  1.00800000E+00  0.00000000E+00  1.60000000E+01  1.00800000E+00
  1.00800000E+00  0.00000000E+00  1.60000000E+01  1.00800000E+00  1.00800000E+00
  0.00000000E+00  1.60000000E+01  1.00800000E+00  1.00800000E+00  0.00000000E+00
  1.60000000E+01  1.00800000E+00  1.00800000E+00  0.00000000E+00  1.60000000E+01
  1.00800000E+00  1.00800000E+00  0.00000000E+00  1.60000000E+01  1.00800000E+00
  1.00800000E+00  0.00000000E+00  1.60000000E+01  1.00800000E+00  1.00800000E+00
  0.00000000E+00  1.60000000E+01  1.00800000E+00  1.00800000E+00  0.00000000E+00
  1.60000000E+01  1.00800000E+00  1.00800000E+00  0.00000000E+00  1.60000000E+01
  1.00800000E+00  1.00800000E+00  0.00000000E+00  1.60000000E+01  1.00800000E+00
  1.00800000E+00  0.00000000E+00  1.60000000E+01  1.00800000E+00  1.00800000E+00
  0.00000000E+00  1.60000000E+01  1.00800000E+00  1.00800000E+00  0.00000000E+00
  1.60000000E+01  1.00800000E+00  1.00800000E+00  0.00000000E+00  1.60000000E+01
  1.00800000E+00  1.00800000E+00  0.00000000E+00  1.60000000E+01  1.00800000E+00
  1.00800000E+00  0.00000000E+00  1.60000000E+01  1.00800000E+00  1.00800000E+00
  0.00000000E+00  1.60000000E+01  1.00800000E+00  1.00800000E+00  0.00000000E+00
  1.60000000E+01  1.00800000E+00  1.00800000E+00  0.00000000E+00  1.60000000E+01
  1.00800000E+00  1.00800000E+00  0.00000000E+00  1.60000000E+01  1.00800000E+00
  1.00800000E+00  0.00000000E+00  1.60000000E+01  1.00800000E+00  1.00800000E+00
  0.00000000E+00  1.60000000E+01  1.00800000E+00  1.00800000E+00  0.00000000E+00
  1.60000000E+01  1.00800000E+00  1.00800000E+00  0.00000000E+00  1.60000000E+01
  1.00800000E+00  1.00800000E+00  0.00000000E+00  1.60000000E+01  1.00800000E+00
  1.00800000E+00  0.00000000E+00  1.60000000E+01  1.00800000E+00  1.00800000E+00
  0.00000000E+00  1.60000000E+01  1.00800000E+00  1.00800000E+00  0.00000000E+00
  1.60000000E+01  1.00800000E+00  1.00800000E+00  0.00000000E+00  1.60000000E+01
  1.00800000E+00  1.00800000E+00  0.00000000E+00  1.60000000E+01  1.00800000E+00
  1.00800000E+00  0.00000000E+00  1.60000000E+01  1.00800000E+00  1.00800000E+00
  0.00000000E+00  1.60000000E+01  1.00800000E+00  1.00800000E+00  0.00000000E+00
  1.60000000E+01  1.00800000E+00  1.00800000E+00  0.00000000E+00  1.60000000E+01
  1.00800000E+00  1.00800000E+00  0.00000000E+00  1.60000000E+01  1.00800000E+00
  1.00800000E+00  0.00000000E+00  1.60000000E+01  1.00800000E+00  1.00800000E+00
  0.00000000E+00  1.60000000E+01  1.00800000E+00  1.00800000E+00  0.00000000E+00
  1.60000000E+01  1.00800000E+00  1.00800000E+00  0.00000000E+00  1.60000000E+01
  1.00800000E+00  1.00800000E+00  0.00000000E+00  1.60000000E+01  1.00800000E+00
  1.00800000E+00  0.00000000E+00  1.60000000E+01  1.00800000E+00  1.00800000E+00
  0.00000000E+00  1.60000000E+01  1.00800000E+00  1.00800000E+00  0.00000000E+00
  1.60000000E+01  1.00800000E+00  1.00800000E+00  0.00000000E+00  1.60000000E+01
  1.00800000E+00  1.00800000E+00  0.00000000E+00  1.60000000E+01  1.00800000E+00
  1.00800000E+00  0.00000000E+00  1.60000000E+01  1.00800000E+00  1.00800000E+00
  0.00000000E+00  1.60000000E+01  1.00800000E+00  1.00800000E+00  0.00000000E+00
  1.60000000E+01  1.00800000E+00  1.00800000E+00  0.00000000E+00  1.60000000E+01
  1.00800000E+00  1.00800000E+00  0.00000000E+00  1.60000000E+01  1.00800000E+00
  1.00800000E+00  0.00000000E+00  1.60000000E+01  1.00800000E+00  1.00800000E+00
  0.00000000E+00  1.60000000E+01  1.00800000E+00  1.00800000E+00  0.00000000E+00
  1.60000000E+01  1.00800000E+00  1.00800000E+00  0.00000000E+00  1.60000000E+01
  1.00800000E+00  1.00800000E+00  0.00000000E+00  1.60000000E+01  1.00800000E+00
  1.00800000E+00  0.00000000E+00  1.60000000E+01  1.00800000E+00  1.00800000E+00
  0.00000000E+00  1.60000000E+01  1.00800000E+00  1.00800000E+00  0.00000000E+00
  1.60000000E+01  1.00800000E+00  1.00800000E+00  0.00000000E+00  1.60000000E+01
  1.00800000E+00  1.00800000E+00  0.00000000E+00  1.60000000E+01  1.00800000E+00
  1.00800000E+00  0.00000000E+00  1.60000000E+01  1.00800000E+00  1.00800000E+00
  0.00000000E+00  1.60000000E+01  1.00800000E+00  1.00800000E+00  0.00000000E+00
  1.60000000E+01  1.00800000E+00  1.00800000E+00  0.00000000E+00  1.60000000E+01
  1.00800000E+00  1.00800000E+00  0.00000000E+00  1.60000000E+01  1.00800000E+00
  1.00800000E+00  0.00000000E+00  1.60000000E+01  1.00800000E+00  1.00800000E+00
  0.00000000E+00  1.60000000E+01  1.00800000E+00  1.00800000E+00  0.00000000E+00
  1.60000000E+01  1.00800000E+00  1.00800000E+00  0.00000000E+00  1.60000000E+01
  1.00800000E+00  1.00800000E+00  0.00000000E+00  1.60000000E+01  1.00800000E+00
  1.00800000E+00  0.00000000E+00  1.60000000E+01  1.00800000E+00  1.00800000E+00
  0.00000000E+00  1.60000000E+01  1.00800000E+00  1.00800000E+00  0.00000000E+00
  1.60000000E+01  1.00800000E+00  1.00800000E+00  0.00000000E+00  1.60000000E+01
  1.00800000E+00  1.00800000E+00  0.00000000E+00  1.60000000E+01  1.00800000E+00
  1.00800000E+00  0.00000000E+00  1.60000000E+01  1.00800000E+00  1.00800000E+00
  0.00000000E+00  1.60000000E+01  1.00800000E+00  1.00800000E+00  0.00000000E+00
  1.60000000E+01  1.00800000E+00  1.00800000E+00  0.00000000E+00  1.60000000E+01
  1.00800000E+00  1.00800000E+00  0.00000000E+00  1.60000000E+01  1.00800000E+00
  1.00800000E+00  0.00000000E+00  1.60000000E+01  1.00800000E+00  1.00800000E+00
  0.00000000E+00  1.60000000E+01  1.00800000E+00  1.00800000E+00  0.00000000E+00
  1.60000000E+01  1.00800000E+00  1.00800000E+00  0.00000000E+00  1.60000000E+01
  1.00800000E+00  1.00800000E+00  0.00000000E+00  1.60000000E+01  1.00800000E+00
  1.00800000E+00  0.00000000E+00  1.60000000E+01  1.00800000E+00  1.00800000E+00
  0.00000000E+00  1.60000000E+01  1.00800000E+00  1.00800000E+00  0.00000000E+00
  1.60000000E+01  1.00800000E+00  1.00800000E+00  0.00000000E+00  1.60000000E+01
  1.00800000E+00  1.00800000E+00  0.00000000E+00  1.60000000E+01  1.00800000E+00
  1.00800000E+00  0.00000000E+00  1.60000000E+01  1.00800000E+00  1.00800000E+00
  0.00000000E+00  1.60000000E+01  1.00800000E+00  1.00800000E+00  0.00000000E+00
  1.60000000E+01  1.00800000E+00  1.00800000E+00  0.00000000E+00  1.60000000E+01
  1.00800000E+00  1.00800000E+00  0.00000000E+00  1.60000000E+01  1.00800000E+00
  1.00800000E+00  0.00000000E+00  1.60000000E+01  1.00800000E+00  1.00800000E+00
  0.00000000E+00  1.60000000E+01  1.00800000E+00  1.00800000E+00  0.00000000E+00
  1.60000000E+01  1.00800000E+00  1.00800000E+00  0.00000000E+00  1.60000000E+01
  1.00800000E+00  1.00800000E+00  0.00000000E+00  1.60000000E+01  1.00800000E+00
  1.00800000E+00  0.00000000E+00  1.60000000E+01  1.00800000E+00  1.00800000E+00
  0.00000000E+00  1.60000000E+01  1.00800000E+00  1.00800000E+00  0.00000000E+00
  1.60000000E+01  1.00800000E+00  1.00800000E+00  0.00000000E+00  1.60000000E+01
  1.00800000E+00  1.00800000E+00  0.00000000E+00  1.60000000E+01  1.00800000E+00
  1.00800000E+00  0.00000000E+00  1.60000000E+01  1.00800000E+00  1.00800000E+00
  0.00000000E+00  1.60000000E+01  1.00800000E+00  1.00800000E+00  0.00000000E+00
  1.60000000E+01  1.00800000E+00  1.00800000E+00  0.00000000E+00  1.60000000E+01
  1.00800000E+00  1.00800000E+00  0.00000000E+00  1.60000000E+01  1.00800000E+00
  1.00800000E+00  0.00000000E+00  1.60000000E+01  1.00800000E+00  1.00800000E+00
  0.00000000E+00  1.60000000E+01  1.00800000E+00  1.00800000E+00  0.00000000E+00
  1.60000000E+01  1.00800000E+00  1.00800000E+00  0.00000000E+00  1.60000000E+01
  1.00800000E+00  1.00800000E+00  0.00000000E+00  1.60000000E+01  1.00800000E+00
  1.00800000E+00  0.00000000E+00  1.60000000E+01  1.00800000E+00  1.00800000E+00
  0.00000000E+00  1.60000000E+01  1.00800000E+00  1.00800000E+00  0.00000000E+00
  1.60000000E+01  1.00800000E+00  1.00800000E+00  0.00000000E+00  1.60000000E+01
  1.00800000E+00  1.00800000E+00  0.00000000E+00  1.60000000E+01  1.00800000E+00
  1.00800000E+00  0.00000000E+00  1.60000000E+01  1.00800000E+00  1.00800000E+00
  0.00000000E+00  1.60000000E+01  1.00800000E+00  1.00800000E+00  0.00000000E+00
  1.60000000E+01  1.00800000E+00  1.00800000E+00  0.00000000E+00  1.60000000E+01
  1.00800000E+00  1.00800000E+00  0.00000000E+00  1.60000000E+01  1.00800000E+00
  1.00800000E+00  0.00000000E+00  1.60000000E+01  1.00800000E+00  1.00800000E+00
  0.00000000E+00  1.60000000E+01  1.00800000E+00  1.00800000E+00  0.00000000E+00
  1.60000000E+01  1.00800000E+00  1.00800000E+00  0.00000000E+00  1.60000000E+01
  1.00800000E+00  1.00800000E+00  0.00000000E+00  1.60000000E+01  1.00800000E+00
  1.00800000E+00  0.00000000E+00  1.60000000E+01  1.00800000E+00  1.00800000E+00
  0.00000000E+00  1.60000000E+01  1.00800000E+00  1.00800000E+00  0.00000000E+00
  1.60000000E+01  1.00800000E+00  1.00800000E+00  0.00000000E+00  1.60000000E+01
  1.00800000E+00  1.00800000E+00  0.00000000E+00  1.60000000E+01  1.00800000E+00
  1.00800000E+00  0.00000000E+00  1.60000000E+01  1.00800000E+00  1.00800000E+00
  0.00000000E+00  1.60000000E+01  1.00800000E+00  1.00800000E+00  0.00000000E+00
  1.60000000E+01  1.00800000E+00  1.00800000E+00  0.00000000E+00  1.60000000E+01
  1.00800000E+00  1.00800000E+00  0.00000000E+00  1.60000000E+01  1.00800000E+00
  1.00800000E+00  0.00000000E+00  1.60000000E+01  1.00800000E+00  1.00800000E+00
  0.00000000E+00  1.60000000E+01  1.00800000E+00  1.00800000E+00  0.00000000E+00
  1.60000000E+01  1.00800000E+00  1.00800000E+00  0.00000000E+00  1.60000000E+01
  1.00800000E+00  1.00800000E+00  0.00000000E+00  1.60000000E+01  1.00800000E+00
  1.00800000E+00  0.00000000E+00  1.60000000E+01  1.00800000E+00  1.00800000E+00
  0.00000000E+00  1.60000000E+01  1.00800000E+00  1.00800000E+00  0.00000000E+00
  1.60000000E+01  1.00800000E+00  1.00800000E+00  0.00000000E+00  1.60000000E+01
  1.00800000E+00  1.00800000E+00  0.00000000E+00  1.60000000E+01  1.00800000E+00
  1.00800000E+00  0.00000000E+00  1.60000000E+01  1.00800000E+00  1.00800000E+00
  0.00000000E+00  1.60000000E+01  1.00800000E+00  1.00800000E+00  0.00000000E+00
  1.60000000E+01  1.00800000E+00  1.00800000E+00  0.00000000E+00  1.60000000E+01
  1.00800000E+00  1.00800000E+00  0.00000000E+00  1.60000000E+01  1.00800000E+00
  1.00800000E+00  0.00000000E+00  1.60000000E+01  1.00800000E+00  1.00800000E+00
  0.00000000E+00  1.60000000E+01  1.00800000E+00  1.00800000E+00  0.00000000E+00
  1.60000000E+01  1.00800000E+00  1.00800000E+00  0.00000000E+00  1.60000000E+01
  1.00800000E+00  1.00800000E+00  0.00000000E+00  1.60000000E+01  1.00800000E+00
  1.00800000E+00  0.00000000E+00  1.60000000E+01  1.00800000E+00  1.00800000E+00
  0.00000000E+00  1.60000000E+01  1.00800000E+00  1.00800000E+00  0.00000000E+00
  1.60000000E+01  1.00800000E+00  1.00800000E+00  0.00000000E+00  1.60000000E+01
  1.00800000E+00  1.00800000E+00  0.00000000E+00  1.60000000E+01  1.00800000E+00
  1.00800000E+00  0.00000000E+00  1.60000000E+01  1.00800000E+00  1.00800000E+00
  0.00000000E+00  1.60000000E+01  1.00800000E+00  1.00800000E+00  0.00000000E+00
  1.60000000E+01  1.00800000E+00  1.00800000E+00  0.00000000E+00  1.60000000E+01
  1.00800000E+00  1.00800000E+00  0.00000000E+00  1.60000000E+01  1.00800000E+00
  1.00800000E+00  0.00000000E+00  1.60000000E+01  1.00800000E+00  1.00800000E+00
  0.00000000E+00  1.60000000E+01  1.00800000E+00  1.00800000E+00  0.00000000E+00
  1.60000000E+01  1.00800000E+00  1.00800000E+00  0.00000000E+00  1.60000000E+01
  1.00800000E+00  1.00800000E+00  0.00000000E+00  1.60000000E+01  1.00800000E+00
  1.00800000E+00  0.00000000E+00  1.60000000E+01  1.00800000E+00  1.00800000E+00
  0.00000000E+00  1.60000000E+01  1.00800000E+00  1.00800000E+00  0.00000000E+00
  1.60000000E+01  1.00800000E+00  1.00800000E+00  0.00000000E+00  1.60000000E+01
  1.00800000E+00  1.00800000E+00  0.00000000E+00  1.60000000E+01  1.00800000E+00
  1.00800000E+00  0.00000000E+00  1.60000000E+01  1.00800000E+00  1.00800000E+00
  0.00000000E+00  1.60000000E+01  1.00800000E+00  1.00800000E+00  0.00000000E+00
  1.60000000E+01  1.00800000E+00  1.00800000E+00  0.00000000E+00  1.60000000E+01
  1.00800000E+00  1.00800000E+00  0.00000000E+00  1.60000000E+01  1.00800000E+00
  1.00800000E+00  0.00000000E+00  1.60000000E+01  1.00800000E+00  1.00800000E+00
  0.00000000E+00  1.60000000E+01  1.00800000E+00  1.00800000E+00  0.00000000E+00
  1.60000000E+01  1.00800000E+00  1.00800000E+00  0.00000000E+00  1.60000000E+01
  1.00800000E+00  1.00800000E+00  0.00000000E+00  1.60000000E+01  1.00800000E+00
  1.00800000E+00  0.00000000E+00  1.60000000E+01  1.00800000E+00  1.00800000E+00
  0.00000000E+00  1.60000000E+01  1.00800000E+00  1.00800000E+00  0.00000000E+00
  1.60000000E+01  1.00800000E+00  1.00800000E+00  0.00000000E+00  1.60000000E+01
  1.00800000E+00  1.00800000E+00  0.00000000E+00  1.60000000E+01  1.00800000E+00
  1.00800000E+00  0.00000000E+00  1.60000000E+01  1.00800000E+00  1.00800000E+00
  0.00000000E+00  1.60000000E+01  1.00800000E+00  1.00800000E+00  0.00000000E+00
  1.60000000E+01  1.00800000E+00  1.00800000E+00  0.00000000E+00  1.60000000E+01
  1.00800000E+00  1.00800000E+00  0.00000000E+00  1.60000000E+01  1.00800000E+00
  1.00800000E+00  0.00000000E+00  1.60000000E+01  1.00800000E+00  1.00800000E+00
  0.00000000E+00  1.60000000E+01  1.00800000E+00  1.00800000E+00  0.00000000E+00
  1.60000000E+01  1.00800000E+00  1.00800000E+00  0.00000000E+00  1.60000000E+01
  1.00800000E+00  1.00800000E+00  0.00000000E+00  1.60000000E+01  1.00800000E+00
  1.00800000E+00  0.00000000E+00  1.60000000E+01  1.00800000E+00  1.00800000E+00
  0.00000000E+00  1.60000000E+01  1.00800000E+00  1.00800000E+00  0.00000000E+00
  1.60000000E+01  1.00800000E+00  1.00800000E+00  0.00000000E+00  1.60000000E+01
  1.00800000E+00  1.00800000E+00  0.00000000E+00  1.60000000E+01  1.00800000E+00
  1.00800000E+00  0.00000000E+00  1.60000000E+01  1.00800000E+00  1.00800000E+00
  0.00000000E+00  1.60000000E+01  1.00800000E+00  1.00800000E+00  0.00000000E+00
  1.60000000E+01  1.00800000E+00  1.00800000E+00  0.00000000E+00  1.60000000E+01
  1.00800000E+00  1.00800000E+00  0.00000000E+00  1.60000000E+01  1.00800000E+00
  1.00800000E+00  0.00000000E+00  1.60000000E+01  1.00800000E+00  1.00800000E+00
  0.00000000E+00  1.60000000E+01  1.00800000E+00  1.00800000E+00  0.00000000E+00
  1.60000000E+01  1.00800000E+00  1.00800000E+00  0.00000000E+00  1.60000000E+01
  1.00800000E+00  1.00800000E+00  0.00000000E+00  1.60000000E+01  1.00800000E+00
  1.00800000E+00  0.00000000E+00  1.60000000E+01  1.00800000E+00  1.00800000E+00
  0.00000000E+00  1.60000000E+01  1.00800000E+00  1.00800000E+00  0.00000000E+00
  1.60000000E+01  1.00800000E+00  1.00800000E+00  0.00000000E+00  1.60000000E+01
  1.00800000E+00  1.00800000E+00  0.00000000E+00  1.60000000E+01  1.00800000E+00
  1.00800000E+00  0.00000000E+00  1.60000000E+01  1.00800000E+00  1.00800000E+00
  0.00000000E+00  1.60000000E+01  1.00800000E+00  1.00800000E+00  0.00000000E+00
  1.60000000E+01  1.00800000E+00  1.00800000E+00  0.00000000E+00  1.60000000E+01
  1.00800000E+00  1.00800000E+00  0.00000000E+00  1.60000000E+01  1.00800000E+00
  1.00800000E+00  0.00000000E+00  1.60000000E+01  1.00800000E+00  1.00800000E+00
  0.00000000E+00  1.60000000E+01  1.00800000E+00  1.00800000E+00  0.00000000E+00
  1.60000000E+01  1.00800000E+00  1.00800000E+00  0.00000000E+00  1.60000000E+01
  1.00800000E+00  1.00800000E+00  0.00000000E+00  1.60000000E+01  1.00800000E+00
  1.00800000E+00  0.00000000E+00  1.60000000E+01  1.00800000E+00  1.00800000E+00
  0.00000000E+00  1.60000000E+01  1.00800000E+00  1.00800000E+00  0.00000000E+00
  1.60000000E+01  1.00800000E+00  1.00800000E+00  0.00000000E+00  1.60000000E+01
  1.00800000E+00  1.00800000E+00  0.00000000E+00  1.60000000E+01  1.00800000E+00
  1.00800000E+00  0.00000000E+00  1.60000000E+01  1.00800000E+00  1.00800000E+00
  0.00000000E+00  1.60000000E+01  1.00800000E+00  1.00800000E+00  0.00000000E+00
  1.60000000E+01  1.00800000E+00  1.00800000E+00  0.00000000E+00  1.60000000E+01
  1.00800000E+00  1.00800000E+00  0.00000000E+00  1.60000000E+01  1.00800000E+00
  1.00800000E+00  0.00000000E+00  1.60000000E+01  1.00800000E+00  1.00800000E+00
  0.00000000E+00  1.60000000E+01  1.00800000E+00  1.00800000E+00  0.00000000E+00
  1.60000000E+01  1.00800000E+00  1.00800000E+00  0.00000000E+00  1.60000000E+01
  1.00800000E+00  1.00800000E+00  0.00000000E+00  1.60000000E+01  1.00800000E+00
  1.00800000E+00  0.00000000E+00  1.60000000E+01  1.00800000E+00  1.00800000E+00
  0.00000000E+00  1.60000000E+01  1.00800000E+00  1.00800000E+00  0.00000000E+00
  1.60000000E+01  1.00800000E+00  1.00800000E+00  0.00000000E+00  1.60000000E+01
  1.00800000E+00  1.00800000E+00  0.00000000E+00  1.60000000E+01  1.00800000E+00
  1.00800000E+00  0.00000000E+00  1.60000000E+01  1.00800000E+00  1.00800000E+00
  0.00000000E+00  1.60000000E+01  1.00800000E+00  1.00800000E+00  0.00000000E+00
  1.60000000E+01  1.00800000E+00  1.00800000E+00  0.00000000E+00  1.60000000E+01
  1.00800000E+00  1.00800000E+00  0.00000000E+00  1.60000000E+01  1.00800000E+00
  1.00800000E+00  0.00000000E+00  1.60000000E+01  1.00800000E+00  1.00800000E+00
  0.00000000E+00  1.60000000E+01  1.00800000E+00  1.00800000E+00  0.00000000E+00
  1.60000000E+01  1.00800000E+00  1.00800000E+00  0.00000000E+00  1.60000000E+01
  1.00800000E+00  1.00800000E+00  0.00000000E+00  1.60000000E+01  1.00800000E+00
  1.00800000E+00  0.00000000E+00  1.60000000E+01  1.00800000E+00  1.00800000E+00
  0.00000000E+00  1.60000000E+01  1.00800000E+00  1.00800000E+00  0.00000000E+00
  1.60000000E+01  1.00800000E+00  1.00800000E+00  0.00000000E+00  1.60000000E+01
  1.00800000E+00  1.00800000E+00  0.00000000E+00  1.60000000E+01  1.00800000E+00
  1.00800000E+00  0.00000000E+00  1.60000000E+01  1.00800000E+00  1.00800000E+00
  0.00000000E+00  1.60000000E+01  1.00800000E+00  1.00800000E+00  0.00000000E+00
  1.60000000E+01  1.00800000E+00  1.00800000E+00  0.00000000E+00  1.60000000E+01
  1.00800000E+00  1.00800000E+00  0.00000000E+00  1.60000000E+01  1.00800000E+00
  1.00800000E+00  0.00000000E+00  1.60000000E+01  1.00800000E+00  1.00800000E+00
  0.00000000E+00  1.60000000E+01  1.00800000E+00  1.00800000E+00  0.00000000E+00
  1.60000000E+01  1.00800000E+00  1.00800000E+00  0.00000000E+00  1.60000000E+01
  1.00800000E+00  1.00800000E+00  0.00000000E+00  1.60000000E+01  1.00800000E+00
  1.00800000E+00  0.00000000E+00  1.60000000E+01  1.00800000E+00  1.00800000E+00
  0.00000000E+00  1.60000000E+01  1.00800000E+00  1.00800000E+00  0.00000000E+00
  1.60000000E+01  1.00800000E+00  1.00800000E+00  0.00000000E+00  1.60000000E+01
  1.00800000E+00  1.00800000E+00  0.00000000E+00  1.60000000E+01  1.00800000E+00
  1.00800000E+00  0.00000000E+00  1.60000000E+01  1.00800000E+00  1.00800000E+00
  0.00000000E+00  1.60000000E+01  1.00800000E+00  1.00800000E+00  0.00000000E+00
  1.60000000E+01  1.00800000E+00  1.00800000E+00  0.00000000E+00  1.60000000E+01
  1.00800000E+00  1.00800000E+00  0.00000000E+00  1.60000000E+01  1.00800000E+00
  1.00800000E+00  0.00000000E+00  1.60000000E+01  1.00800000E+00  1.00800000E+00
  0.00000000E+00  1.60000000E+01  1.00800000E+00  1.00800000E+00  0.00000000E+00
  1.60000000E+01  1.00800000E+00  1.00800000E+00  0.00000000E+00  1.60000000E+01
  1.00800000E+00  1.00800000E+00  0.00000000E+00  1.60000000E+01  1.00800000E+00
  1.00800000E+00  0.00000000E+00  1.60000000E+01  1.00800000E+00  1.00800000E+00
  0.00000000E+00  1.60000000E+01  1.00800000E+00  1.00800000E+00  0.00000000E+00
  1.60000000E+01  1.00800000E+00  1.00800000E+00  0.00000000E+00  1.60000000E+01
  1.00800000E+00  1.00800000E+00  0.00000000E+00  1.60000000E+01  1.00800000E+00
  1.00800000E+00  0.00000000E+00  1.60000000E+01  1.00800000E+00  1.00800000E+00
  0.00000000E+00  1.60000000E+01  1.00800000E+00  1.00800000E+00  0.00000000E+00
  1.60000000E+01  1.00800000E+00  1.00800000E+00  0.00000000E+00  1.60000000E+01
  1.00800000E+00  1.00800000E+00  0.00000000E+00  1.60000000E+01  1.00800000E+00
  1.00800000E+00  0.00000000E+00  1.60000000E+01  1.00800000E+00  1.00800000E+00
  0.00000000E+00  1.60000000E+01  1.00800000E+00  1.00800000E+00  0.00000000E+00
  1.60000000E+01  1.00800000E+00  1.00800000E+00  0.00000000E+00  1.60000000E+01
  1.00800000E+00  1.00800000E+00  0.00000000E+00  1.60000000E+01  1.00800000E+00
  1.00800000E+00  0.00000000E+00  1.60000000E+01  1.00800000E+00  1.00800000E+00
  0.00000000E+00  1.60000000E+01  1.00800000E+00  1.00800000E+00  0.00000000E+00
  1.60000000E+01  1.00800000E+00  1.00800000E+00  0.00000000E+00  1.60000000E+01
  1.00800000E+00  1.00800000E+00  0.00000000E+00  1.60000000E+01  1.00800000E+00
  1.00800000E+00  0.00000000E+00  1.60000000E+01  1.00800000E+00  1.00800000E+00
  0.00000000E+00  1.60000000E+01  1.00800000E+00  1.00800000E+00  0.00000000E+00
  1.60000000E+01  1.00800000E+00  1.00800000E+00  0.00000000E+00  1.60000000E+01
  1.00800000E+00  1.00800000E+00  0.00000000E+00  1.60000000E+01  1.00800000E+00
  1.00800000E+00  0.00000000E+00  1.60000000E+01  1.00800000E+00  1.00800000E+00
  0.00000000E+00  1.60000000E+01  1.00800000E+00  1.00800000E+00  0.00000000E+00
  1.60000000E+01  1.00800000E+00  1.00800000E+00  0.00000000E+00  1.60000000E+01
  1.00800000E+00  1.00800000E+00  0.00000000E+00  1.60000000E+01  1.00800000E+00
  1.00800000E+00  0.00000000E+00  1.60000000E+01  1.00800000E+00  1.00800000E+00
  0.00000000E+00  1.60000000E+01  1.00800000E+00  1.00800000E+00  0.00000000E+00
  1.60000000E+01  1.00800000E+00  1.00800000E+00  0.00000000E+00  1.60000000E+01
  1.00800000E+00  1.00800000E+00  0.00000000E+00  1.60000000E+01  1.00800000E+00
  1.00800000E+00  0.00000000E+00  1.60000000E+01  1.00800000E+00  1.00800000E+00
  0.00000000E+00  1.60000000E+01  1.00800000E+00  1.00800000E+00  0.00000000E+00
  1.60000000E+01  1.00800000E+00  1.00800000E+00  0.00000000E+00  1.60000000E+01
  1.00800000E+00  1.00800000E+00  0.00000000E+00  1.60000000E+01  1.00800000E+00
  1.00800000E+00  0.00000000E+00  1.60000000E+01  1.00800000E+00  1.00800000E+00
  0.00000000E+00  1.60000000E+01  1.00800000E+00  1.00800000E+00  0.00000000E+00
  1.60000000E+01  1.00800000E+00  1.00800000E+00  0.00000000E+00  1.60000000E+01
  1.00800000E+00  1.00800000E+00  0.00000000E+00  1.60000000E+01  1.00800000E+00
  1.00800000E+00  0.00000000E+00  1.60000000E+01  1.00800000E+00  1.00800000E+00
  0.00000000E+00  1.60000000E+01  1.00800000E+00  1.00800000E+00  0.00000000E+00
  1.60000000E+01  1.00800000E+00  1.00800000E+00  0.00000000E+00  1.60000000E+01
  1.00800000E+00  1.00800000E+00  0.00000000E+00  1.60000000E+01  1.00800000E+00
  1.00800000E+00  0.00000000E+00  1.60000000E+01  1.00800000E+00  1.00800000E+00
  0.00000000E+00  1.60000000E+01  1.00800000E+00  1.00800000E+00  0.00000000E+00
  1.60000000E+01  1.00800000E+00  1.00800000E+00  0.00000000E+00  1.60000000E+01
  1.00800000E+00  1.00800000E+00  0.00000000E+00  1.60000000E+01  1.00800000E+00
  1.00800000E+00  0.00000000E+00  1.60000000E+01  1.00800000E+00  1.00800000E+00
  0.00000000E+00  1.60000000E+01  1.00800000E+00  1.00800000E+00  0.00000000E+00
  1.60000000E+01  1.00800000E+00  1.00800000E+00  0.00000000E+00  1.60000000E+01
  1.00800000E+00  1.00800000E+00  0.00000000E+00  1.60000000E+01  1.00800000E+00
  1.00800000E+00  0.00000000E+00  1.60000000E+01  1.00800000E+00  1.00800000E+00
  0.00000000E+00  1.60000000E+01  1.00800000E+00  1.00800000E+00  0.00000000E+00
  1.60000000E+01  1.00800000E+00  1.00800000E+00  0.00000000E+00  1.60000000E+01
  1.00800000E+00  1.00800000E+00  0.00000000E+00  1.60000000E+01  1.00800000E+00
  1.00800000E+00  0.00000000E+00  1.60000000E+01  1.00800000E+00  1.00800000E+00
  0.00000000E+00  1.60000000E+01  1.00800000E+00  1.00800000E+00  0.00000000E+00
  1.60000000E+01  1.00800000E+00  1.00800000E+00  0.00000000E+00  1.60000000E+01
  1.00800000E+00  1.00800000E+00  0.00000000E+00  1.60000000E+01  1.00800000E+00
  1.00800000E+00  0.00000000E+00  1.60000000E+01  1.00800000E+00  1.00800000E+00
  0.00000000E+00  1.60000000E+01  1.00800000E+00  1.00800000E+00  0.00000000E+00
  1.60000000E+01  1.00800000E+00  1.00800000E+00  0.00000000E+00  1.60000000E+01
  1.00800000E+00  1.00800000E+00  0.00000000E+00  1.60000000E+01  1.00800000E+00
  1.00800000E+00  0.00000000E+00  1.60000000E+01  1.00800000E+00  1.00800000E+00
  0.00000000E+00  1.60000000E+01  1.00800000E+00  1.00800000E+00  0.00000000E+00
  1.60000000E+01  1.00800000E+00  1.00800000E+00  0.00000000E+00  1.60000000E+01
  1.00800000E+00  1.00800000E+00  0.00000000E+00  1.60000000E+01  1.00800000E+00
  1.00800000E+00  0.00000000E+00  1.60000000E+01  1.00800000E+00  1.00800000E+00
  0.00000000E+00  1.60000000E+01  1.00800000E+00  1.00800000E+00  0.00000000E+00
  1.60000000E+01  1.00800000E+00  1.00800000E+00  0.00000000E+00  1.60000000E+01
  1.00800000E+00  1.00800000E+00  0.00000000E+00  1.60000000E+01  1.00800000E+00
  1.00800000E+00  0.00000000E+00  1.60000000E+01  1.00800000E+00  1.00800000E+00
  0.00000000E+00  1.60000000E+01  1.00800000E+00  1.00800000E+00  0.00000000E+00
  1.60000000E+01  1.00800000E+00  1.00800000E+00  0.00000000E+00  1.60000000E+01
  1.00800000E+00  1.00800000E+00  0.00000000E+00  1.60000000E+01  1.00800000E+00
  1.00800000E+00  0.00000000E+00  1.60000000E+01  1.00800000E+00  1.00800000E+00
  0.00000000E+00  1.60000000E+01  1.00800000E+00  1.00800000E+00  0.00000000E+00
  1.60000000E+01  1.00800000E+00  1.00800000E+00  0.00000000E+00  1.60000000E+01
  1.00800000E+00  1.00800000E+00  0.00000000E+00  1.60000000E+01  1.00800000E+00
  1.00800000E+00  0.00000000E+00  1.60000000E+01  1.00800000E+00  1.00800000E+00
  0.00000000E+00  1.60000000E+01  1.00800000E+00  1.00800000E+00  0.00000000E+00
  1.60000000E+01  1.00800000E+00  1.00800000E+00  0.00000000E+00  1.60000000E+01
  1.00800000E+00  1.00800000E+00  0.00000000E+00  1.60000000E+01  1.00800000E+00
  1.00800000E+00  0.00000000E+00  1.60000000E+01  1.00800000E+00  1.00800000E+00
  0.00000000E+00  1.60000000E+01  1.00800000E+00  1.00800000E+00  0.00000000E+00
  1.60000000E+01  1.00800000E+00  1.00800000E+00  0.00000000E+00  1.60000000E+01
  1.00800000E+00  1.00800000E+00  0.00000000E+00  1.60000000E+01  1.00800000E+00
  1.00800000E+00  0.00000000E+00  1.60000000E+01  1.00800000E+00  1.00800000E+00
  0.00000000E+00  1.60000000E+01  1.00800000E+00  1.00800000E+00  0.00000000E+00
  1.60000000E+01  1.00800000E+00  1.00800000E+00  0.00000000E+00  1.60000000E+01
  1.00800000E+00  1.00800000E+00  0.00000000E+00  1.60000000E+01  1.00800000E+00
  1.00800000E+00  0.00000000E+00  1.60000000E+01  1.00800000E+00  1.00800000E+00
  0.00000000E+00  1.60000000E+01  1.00800000E+00  1.00800000E+00  0.00000000E+00
  1.60000000E+01  1.00800000E+00  1.00800000E+00  0.00000000E+00  1.60000000E+01
  1.00800000E+00  1.00800000E+00  0.00000000E+00  1.60000000E+01  1.00800000E+00
  1.00800000E+00  0.00000000E+00  1.60000000E+01  1.00800000E+00  1.00800000E+00
  0.00000000E+00  1.60000000E+01  1.00800000E+00  1.00800000E+00  0.00000000E+00
  1.60000000E+01  1.00800000E+00  1.00800000E+00  0.00000000E+00  1.60000000E+01
  1.00800000E+00  1.00800000E+00  0.00000000E+00  1.60000000E+01  1.00800000E+00
  1.00800000E+00  0.00000000E+00  1.60000000E+01  1.00800000E+00  1.00800000E+00
  0.00000000E+00  1.60000000E+01  1.00800000E+00  1.00800000E+00  0.00000000E+00
  1.60000000E+01  1.00800000E+00  1.00800000E+00  0.00000000E+00  1.60000000E+01
  1.00800000E+00  1.00800000E+00  0.00000000E+00  1.60000000E+01  1.00800000E+00
  1.00800000E+00  0.00000000E+00  1.60000000E+01  1.00800000E+00  1.00800000E+00
  0.00000000E+00  1.60000000E+01  1.00800000E+00  1.00800000E+00  0.00000000E+00
  1.60000000E+01  1.00800000E+00  1.00800000E+00  0.00000000E+00  1.60000000E+01
  1.00800000E+00  1.00800000E+00  0.00000000E+00  1.60000000E+01  1.00800000E+00
  1.00800000E+00  0.00000000E+00  1.60000000E+01  1.00800000E+00  1.00800000E+00
  0.00000000E+00  1.60000000E+01  1.00800000E+00  1.00800000E+00  0.00000000E+00
  1.60000000E+01  1.00800000E+00  1.00800000E+00  0.00000000E+00  1.60000000E+01
  1.00800000E+00  1.00800000E+00  0.00000000E+00  1.60000000E+01  1.00800000E+00
  1.00800000E+00  0.00000000E+00  1.60000000E+01  1.00800000E+00  1.00800000E+00
  0.00000000E+00  1.60000000E+01  1.00800000E+00  1.00800000E+00  0.00000000E+00
  1.60000000E+01  1.00800000E+00  1.00800000E+00  0.00000000E+00  1.60000000E+01
  1.00800000E+00  1.00800000E+00  0.00000000E+00  1.60000000E+01  1.00800000E+00
  1.00800000E+00  0.00000000E+00  1.60000000E+01  1.00800000E+00  1.00800000E+00
  0.00000000E+00  1.60000000E+01  1.00800000E+00  1.00800000E+00  0.00000000E+00
  1.60000000E+01  1.00800000E+00  1.00800000E+00  0.00000000E+00  1.60000000E+01
  1.00800000E+00  1.00800000E+00  0.00000000E+00  1.60000000E+01  1.00800000E+00
  1.00800000E+00  0.00000000E+00  1.60000000E+01  1.00800000E+00  1.00800000E+00
  0.00000000E+00  1.60000000E+01  1.00800000E+00  1.00800000E+00  0.00000000E+00
  1.60000000E+01  1.00800000E+00  1.00800000E+00  0.00000000E+00  1.60000000E+01
  1.00800000E+00  1.00800000E+00  0.00000000E+00  1.60000000E+01  1.00800000E+00
  1.00800000E+00  0.00000000E+00  1.60000000E+01  1.00800000E+00  1.00800000E+00
  0.00000000E+00  1.60000000E+01  1.00800000E+00  1.00800000E+00  0.00000000E+00
  1.60000000E+01  1.00800000E+00  1.00800000E+00  0.00000000E+00  1.60000000E+01
  1.00800000E+00  1.00800000E+00  0.00000000E+00  1.60000000E+01  1.00800000E+00
  1.00800000E+00  0.00000000E+00  1.60000000E+01  1.00800000E+00  1.00800000E+00
  0.00000000E+00  1.60000000E+01  1.00800000E+00  1.00800000E+00  0.00000000E+00
  1.60000000E+01  1.00800000E+00  1.00800000E+00  0.00000000E+00  1.60000000E+01
  1.00800000E+00  1.00800000E+00  0.00000000E+00  1.60000000E+01  1.00800000E+00
  1.00800000E+00  0.00000000E+00  1.60000000E+01  1.00800000E+00  1.00800000E+00
  0.00000000E+00  1.60000000E+01  1.00800000E+00  1.00800000E+00  0.00000000E+00
  1.60000000E+01  1.00800000E+00  1.00800000E+00  0.00000000E+00  1.60000000E+01
  1.00800000E+00  1.00800000E+00  0.00000000E+00  1.60000000E+01  1.00800000E+00
  1.00800000E+00  0.00000000E+00  1.60000000E+01  1.00800000E+00  1.00800000E+00
  0.00000000E+00  1.60000000E+01  1.00800000E+00  1.00800000E+00  0.00000000E+00
  1.60000000E+01  1.00800000E+00  1.00800000E+00  0.00000000E+00  1.60000000E+01
  1.00800000E+00  1.00800000E+00  0.00000000E+00  1.60000000E+01  1.00800000E+00
  1.00800000E+00  0.00000000E+00  1.60000000E+01  1.00800000E+00  1.00800000E+00
  0.00000000E+00  1.60000000E+01  1.00800000E+00  1.00800000E+00  0.00000000E+00
  1.60000000E+01  1.00800000E+00  1.00800000E+00  0.00000000E+00  1.60000000E+01
  1.00800000E+00  1.00800000E+00  0.00000000E+00  1.60000000E+01  1.00800000E+00
  1.00800000E+00  0.00000000E+00  1.60000000E+01  1.00800000E+00  1.00800000E+00
  0.00000000E+00  1.60000000E+01  1.00800000E+00  1.00800000E+00  0.00000000E+00
  1.60000000E+01  1.00800000E+00  1.00800000E+00  0.00000000E+00  1.60000000E+01
  1.00800000E+00  1.00800000E+00  0.00000000E+00  1.60000000E+01  1.00800000E+00
  1.00800000E+00  0.00000000E+00  1.60000000E+01  1.00800000E+00  1.00800000E+00
  0.00000000E+00  1.60000000E+01  1.00800000E+00  1.00800000E+00  0.00000000E+00
  1.60000000E+01  1.00800000E+00  1.00800000E+00  0.00000000E+00  1.60000000E+01
  1.00800000E+00  1.00800000E+00  0.00000000E+00  1.60000000E+01  1.00800000E+00
  1.00800000E+00  0.00000000E+00  1.60000000E+01  1.00800000E+00  1.00800000E+00
  0.00000000E+00  1.60000000E+01  1.00800000E+00  1.00800000E+00  0.00000000E+00
  1.60000000E+01  1.00800000E+00  1.00800000E+00  0.00000000E+00  1.60000000E+01
  1.00800000E+00  1.00800000E+00  0.00000000E+00  1.60000000E+01  1.00800000E+00
  1.00800000E+00  0.00000000E+00  1.60000000E+01  1.00800000E+00  1.00800000E+00
  0.00000000E+00  1.60000000E+01  1.00800000E+00  1.00800000E+00  0.00000000E+00
  1.60000000E+01  1.00800000E+00  1.00800000E+00  0.00000000E+00  1.60000000E+01
  1.00800000E+00  1.00800000E+00  0.00000000E+00  1.60000000E+01  1.00800000E+00
  1.00800000E+00  0.00000000E+00  1.60000000E+01  1.00800000E+00  1.00800000E+00
  0.00000000E+00  1.60000000E+01  1.00800000E+00  1.00800000E+00  0.00000000E+00
  1.60000000E+01  1.00800000E+00  1.00800000E+00  0.00000000E+00  1.60000000E+01
  1.00800000E+00  1.00800000E+00  0.00000000E+00  1.60000000E+01  1.00800000E+00
  1.00800000E+00  0.00000000E+00  1.60000000E+01  1.00800000E+00  1.00800000E+00
  0.00000000E+00  1.60000000E+01  1.00800000E+00  1.00800000E+00  0.00000000E+00
  1.60000000E+01  1.00800000E+00  1.00800000E+00  0.00000000E+00  1.60000000E+01
  1.00800000E+00  1.00800000E+00  0.00000000E+00  1.60000000E+01  1.00800000E+00
  1.00800000E+00  0.00000000E+00  1.60000000E+01  1.00800000E+00  1.00800000E+00
  0.00000000E+00  1.60000000E+01  1.00800000E+00  1.00800000E+00  0.00000000E+00
  1.60000000E+01  1.00800000E+00  1.00800000E+00  0.00000000E+00  1.60000000E+01
  1.00800000E+00  1.00800000E+00  0.00000000E+00  1.60000000E+01  1.00800000E+00
  1.00800000E+00  0.00000000E+00  1.60000000E+01  1.00800000E+00  1.00800000E+00
  0.00000000E+00  1.60000000E+01  1.00800000E+00  1.00800000E+00  0.00000000E+00
  1.60000000E+01  1.00800000E+00  1.00800000E+00  0.00000000E+00  1.60000000E+01
  1.00800000E+00  1.00800000E+00  0.00000000E+00  1.60000000E+01  1.00800000E+00
  1.00800000E+00  0.00000000E+00  1.60000000E+01  1.00800000E+00  1.00800000E+00
  0.00000000E+00  1.60000000E+01  1.00800000E+00  1.00800000E+00  0.00000000E+00
  1.60000000E+01  1.00800000E+00  1.00800000E+00  0.00000000E+00  1.60000000E+01
  1.00800000E+00  1.00800000E+00  0.00000000E+00  1.60000000E+01  1.00800000E+00
  1.00800000E+00  0.00000000E+00  1.60000000E+01  1.00800000E+00  1.00800000E+00
  0.00000000E+00  1.60000000E+01  1.00800000E+00  1.00800000E+00  0.00000000E+00
  1.60000000E+01  1.00800000E+00  1.00800000E+00  0.00000000E+00  1.60000000E+01
  1.00800000E+00  1.00800000E+00  0.00000000E+00  1.60000000E+01  1.00800000E+00
  1.00800000E+00  0.00000000E+00  1.60000000E+01  1.00800000E+00  1.00800000E+00
  0.00000000E+00  1.60000000E+01  1.00800000E+00  1.00800000E+00  0.00000000E+00
  1.60000000E+01  1.00800000E+00  1.00800000E+00  0.00000000E+00  1.60000000E+01
  1.00800000E+00  1.00800000E+00  0.00000000E+00  1.60000000E+01  1.00800000E+00
  1.00800000E+00  0.00000000E+00  1.60000000E+01  1.00800000E+00  1.00800000E+00
  0.00000000E+00  1.60000000E+01  1.00800000E+00  1.00800000E+00  0.00000000E+00
  1.60000000E+01  1.00800000E+00  1.00800000E+00  0.00000000E+00  1.60000000E+01
  1.00800000E+00  1.00800000E+00  0.00000000E+00  1.60000000E+01  1.00800000E+00
  1.00800000E+00  0.00000000E+00  1.60000000E+01  1.00800000E+00  1.00800000E+00
  0.00000000E+00  1.60000000E+01  1.00800000E+00  1.00800000E+00  0.00000000E+00
  1.60000000E+01  1.00800000E+00  1.00800000E+00  0.00000000E+00  1.60000000E+01
  1.00800000E+00  1.00800000E+00  0.00000000E+00  1.60000000E+01  1.00800000E+00
  1.00800000E+00  0.00000000E+00  1.60000000E+01  1.00800000E+00  1.00800000E+00
  0.00000000E+00  1.60000000E+01  1.00800000E+00  1.00800000E+00  0.00000000E+00
  1.60000000E+01  1.00800000E+00  1.00800000E+00  0.00000000E+00  1.60000000E+01
  1.00800000E+00  1.00800000E+00  0.00000000E+00  1.60000000E+01  1.00800000E+00
  1.00800000E+00  0.00000000E+00  1.60000000E+01  1.00800000E+00  1.00800000E+00
  0.00000000E+00  1.60000000E+01  1.00800000E+00  1.00800000E+00  0.00000000E+00
  1.60000000E+01  1.00800000E+00  1.00800000E+00  0.00000000E+00  1.60000000E+01
  1.00800000E+00  1.00800000E+00  0.00000000E+00  1.60000000E+01  1.00800000E+00
  1.00800000E+00  0.00000000E+00  1.60000000E+01  1.00800000E+00  1.00800000E+00
  0.00000000E+00  1.60000000E+01  1.00800000E+00  1.00800000E+00  0.00000000E+00
  1.60000000E+01  1.00800000E+00  1.00800000E+00  0.00000000E+00  1.60000000E+01
  1.00800000E+00  1.00800000E+00  0.00000000E+00  1.60000000E+01  1.00800000E+00
  1.00800000E+00  0.00000000E+00  1.60000000E+01  1.00800000E+00  1.00800000E+00
  0.00000000E+00  1.60000000E+01  1.00800000E+00  1.00800000E+00  0.00000000E+00
  1.60000000E+01  1.00800000E+00  1.00800000E+00  0.00000000E+00  1.60000000E+01
  1.00800000E+00  1.00800000E+00  0.00000000E+00  1.60000000E+01  1.00800000E+00
  1.00800000E+00  0.00000000E+00  1.60000000E+01  1.00800000E+00  1.00800000E+00
  0.00000000E+00  1.60000000E+01  1.00800000E+00  1.00800000E+00  0.00000000E+00
  1.60000000E+01  1.00800000E+00  1.00800000E+00  0.00000000E+00  1.60000000E+01
  1.00800000E+00  1.00800000E+00  0.00000000E+00  1.60000000E+01  1.00800000E+00
  1.00800000E+00  0.00000000E+00  1.60000000E+01  1.00800000E+00  1.00800000E+00
  0.00000000E+00  1.60000000E+01  1.00800000E+00  1.00800000E+00  0.00000000E+00
  1.60000000E+01  1.00800000E+00  1.00800000E+00  0.00000000E+00  1.60000000E+01
  1.00800000E+00  1.00800000E+00  0.00000000E+00  1.60000000E+01  1.00800000E+00
  1.00800000E+00  0.00000000E+00  1.60000000E+01  1.00800000E+00  1.00800000E+00
  0.00000000E+00  1.60000000E+01  1.00800000E+00  1.00800000E+00  0.00000000E+00
  1.60000000E+01  1.00800000E+00  1.00800000E+00  0.00000000E+00  1.60000000E+01
  1.00800000E+00  1.00800000E+00  0.00000000E+00  1.60000000E+01  1.00800000E+00
  1.00800000E+00  0.00000000E+00  1.60000000E+01  1.00800000E+00  1.00800000E+00
  0.00000000E+00  1.60000000E+01  1.00800000E+00  1.00800000E+00  0.00000000E+00
  1.60000000E+01  1.00800000E+00  1.00800000E+00  0.00000000E+00  1.60000000E+01
  1.00800000E+00  1.00800000E+00  0.00000000E+00  1.60000000E+01  1.00800000E+00
  1.00800000E+00  0.00000000E+00  1.60000000E+01  1.00800000E+00  1.00800000E+00
  0.00000000E+00  1.60000000E+01  1.00800000E+00  1.00800000E+00  0.00000000E+00
  1.60000000E+01  1.00800000E+00  1.00800000E+00  0.00000000E+00  1.60000000E+01
  1.00800000E+00  1.00800000E+00  0.00000000E+00  1.60000000E+01  1.00800000E+00
  1.00800000E+00  0.00000000E+00  1.60000000E+01  1.00800000E+00  1.00800000E+00
  0.00000000E+00  1.60000000E+01  1.00800000E+00  1.00800000E+00  0.00000000E+00
  1.60000000E+01  1.00800000E+00  1.00800000E+00  0.00000000E+00  1.60000000E+01
  1.00800000E+00  1.00800000E+00  0.00000000E+00  1.60000000E+01  1.00800000E+00
  1.00800000E+00  0.00000000E+00  1.60000000E+01  1.00800000E+00  1.00800000E+00
  0.00000000E+00  1.60000000E+01  1.00800000E+00  1.00800000E+00  0.00000000E+00
  1.60000000E+01  1.00800000E+00  1.00800000E+00  0.00000000E+00  1.60000000E+01
  1.00800000E+00  1.00800000E+00  0.00000000E+00  1.60000000E+01  1.00800000E+00
  1.00800000E+00  0.00000000E+00  1.60000000E+01  1.00800000E+00  1.00800000E+00
  0.00000000E+00  1.60000000E+01  1.00800000E+00  1.00800000E+00  0.00000000E+00
  1.60000000E+01  1.00800000E+00  1.00800000E+00  0.00000000E+00  1.60000000E+01
  1.00800000E+00  1.00800000E+00  0.00000000E+00  1.60000000E+01  1.00800000E+00
  1.00800000E+00  0.00000000E+00  1.60000000E+01  1.00800000E+00  1.00800000E+00
  0.00000000E+00  1.60000000E+01  1.00800000E+00  1.00800000E+00  0.00000000E+00
  1.60000000E+01  1.00800000E+00  1.00800000E+00  0.00000000E+00  1.60000000E+01
  1.00800000E+00  1.00800000E+00  0.00000000E+00  1.60000000E+01  1.00800000E+00
  1.00800000E+00  0.00000000E+00  1.60000000E+01  1.00800000E+00  1.00800000E+00
  0.00000000E+00  1.60000000E+01  1.00800000E+00  1.00800000E+00  0.00000000E+00
  1.60000000E+01  1.00800000E+00  1.00800000E+00  0.00000000E+00  1.60000000E+01
  1.00800000E+00  1.00800000E+00  0.00000000E+00  1.60000000E+01  1.00800000E+00
  1.00800000E+00  0.00000000E+00  1.60000000E+01  1.00800000E+00  1.00800000E+00
  0.00000000E+00  1.60000000E+01  1.00800000E+00  1.00800000E+00  0.00000000E+00
  1.60000000E+01  1.00800000E+00  1.00800000E+00  0.00000000E+00  1.60000000E+01
  1.00800000E+00  1.00800000E+00  0.00000000E+00  1.60000000E+01  1.00800000E+00
  1.00800000E+00  0.00000000E+00  1.60000000E+01  1.00800000E+00  1.00800000E+00
  0.00000000E+00  1.60000000E+01  1.00800000E+00  1.00800000E+00  0.00000000E+00
  1.60000000E+01  1.00800000E+00  1.00800000E+00  0.00000000E+00  1.60000000E+01
  1.00800000E+00  1.00800000E+00  0.00000000E+00  1.60000000E+01  1.00800000E+00
  1.00800000E+00  0.00000000E+00  1.60000000E+01  1.00800000E+00  1.00800000E+00
  0.00000000E+00  1.60000000E+01  1.00800000E+00  1.00800000E+00  0.00000000E+00
  1.60000000E+01  1.00800000E+00  1.00800000E+00  0.00000000E+00  1.60000000E+01
  1.00800000E+00  1.00800000E+00  0.00000000E+00  1.60000000E+01  1.00800000E+00
  1.00800000E+00  0.00000000E+00  1.60000000E+01  1.00800000E+00  1.00800000E+00
  0.00000000E+00  1.60000000E+01  1.00800000E+00  1.00800000E+00  0.00000000E+00
  1.60000000E+01  1.00800000E+00  1.00800000E+00  0.00000000E+00  1.60000000E+01
  1.00800000E+00  1.00800000E+00  0.00000000E+00  1.60000000E+01  1.00800000E+00
  1.00800000E+00  0.00000000E+00  1.60000000E+01  1.00800000E+00  1.00800000E+00
  0.00000000E+00  1.60000000E+01  1.00800000E+00  1.00800000E+00  0.00000000E+00
  1.60000000E+01  1.00800000E+00  1.00800000E+00  0.00000000E+00  1.60000000E+01
  1.00800000E+00  1.00800000E+00  0.00000000E+00  1.60000000E+01  1.00800000E+00
  1.00800000E+00  0.00000000E+00  1.60000000E+01  1.00800000E+00  1.00800000E+00
  0.00000000E+00  1.60000000E+01  1.00800000E+00  1.00800000E+00  0.00000000E+00
  1.60000000E+01  1.00800000E+00  1.00800000E+00  0.00000000E+00  1.60000000E+01
  1.00800000E+00  1.00800000E+00  0.00000000E+00  1.60000000E+01  1.00800000E+00
  1.00800000E+00  0.00000000E+00  1.60000000E+01  1.00800000E+00  1.00800000E+00
  0.00000000E+00  1.60000000E+01  1.00800000E+00  1.00800000E+00  0.00000000E+00
  1.60000000E+01  1.00800000E+00  1.00800000E+00  0.00000000E+00  1.60000000E+01
  1.00800000E+00  1.00800000E+00  0.00000000E+00  1.60000000E+01  1.00800000E+00
  1.00800000E+00  0.00000000E+00  1.60000000E+01  1.00800000E+00  1.00800000E+00
  0.00000000E+00  1.60000000E+01  1.00800000E+00  1.00800000E+00  0.00000000E+00
  1.60000000E+01  1.00800000E+00  1.00800000E+00  0.00000000E+00  1.60000000E+01
  1.00800000E+00  1.00800000E+00  0.00000000E+00  1.60000000E+01  1.00800000E+00
  1.00800000E+00  0.00000000E+00  1.60000000E+01  1.00800000E+00  1.00800000E+00
  0.00000000E+00  1.60000000E+01  1.00800000E+00  1.00800000E+00  0.00000000E+00
  1.60000000E+01  1.00800000E+00  1.00800000E+00  0.00000000E+00  1.60000000E+01
  1.00800000E+00  1.00800000E+00  0.00000000E+00  1.60000000E+01  1.00800000E+00
  1.00800000E+00  0.00000000E+00  1.60000000E+01  1.00800000E+00  1.00800000E+00
  0.00000000E+00  1.60000000E+01  1.00800000E+00  1.00800000E+00  0.00000000E+00
  1.60000000E+01  1.00800000E+00  1.00800000E+00  0.00000000E+00  1.60000000E+01
  1.00800000E+00  1.00800000E+00  0.00000000E+00  1.60000000E+01  1.00800000E+00
  1.00800000E+00  0.00000000E+00  1.60000000E+01  1.00800000E+00  1.00800000E+00
  0.00000000E+00  1.60000000E+01  1.00800000E+00  1.00800000E+00  0.00000000E+00
  1.60000000E+01  1.00800000E+00  1.00800000E+00  0.00000000E+00  1.60000000E+01
  1.00800000E+00  1.00800000E+00  0.00000000E+00  1.60000000E+01  1.00800000E+00
  1.00800000E+00  0.00000000E+00  1.60000000E+01  1.00800000E+00  1.00800000E+00
  0.00000000E+00  1.60000000E+01  1.00800000E+00  1.00800000E+00  0.00000000E+00
  1.60000000E+01  1.00800000E+00  1.00800000E+00  0.00000000E+00  1.60000000E+01
  1.00800000E+00  1.00800000E+00  0.00000000E+00  1.60000000E+01  1.00800000E+00
  1.00800000E+00  0.00000000E+00  1.60000000E+01  1.00800000E+00  1.00800000E+00
  0.00000000E+00  1.60000000E+01  1.00800000E+00  1.00800000E+00  0.00000000E+00
  1.60000000E+01  1.00800000E+00  1.00800000E+00  0.00000000E+00  1.60000000E+01
  1.00800000E+00  1.00800000E+00  0.00000000E+00  1.60000000E+01  1.00800000E+00
  1.00800000E+00  0.00000000E+00  1.60000000E+01  1.00800000E+00  1.00800000E+00
  0.00000000E+00  1.60000000E+01  1.00800000E+00  1.00800000E+00  0.00000000E+00
  1.60000000E+01  1.00800000E+00  1.00800000E+00  0.00000000E+00  1.60000000E+01
  1.00800000E+00  1.00800000E+00  0.00000000E+00  1.60000000E+01  1.00800000E+00
  1.00800000E+00  0.00000000E+00  1.60000000E+01  1.00800000E+00  1.00800000E+00
  0.00000000E+00  1.60000000E+01  1.00800000E+00  1.00800000E+00  0.00000000E+00
  1.60000000E+01  1.00800000E+00  1.00800000E+00  0.00000000E+00  1.60000000E+01
  1.00800000E+00  1.00800000E+00  0.00000000E+00  1.60000000E+01  1.00800000E+00
  1.00800000E+00  0.00000000E+00  1.60000000E+01  1.00800000E+00  1.00800000E+00
  0.00000000E+00  1.60000000E+01  1.00800000E+00  1.00800000E+00  0.00000000E+00
  1.60000000E+01  1.00800000E+00  1.00800000E+00  0.00000000E+00  1.60000000E+01
  1.00800000E+00  1.00800000E+00  0.00000000E+00  1.60000000E+01  1.00800000E+00
  1.00800000E+00  0.00000000E+00  1.60000000E+01  1.00800000E+00  1.00800000E+00
  0.00000000E+00  1.60000000E+01  1.00800000E+00  1.00800000E+00  0.00000000E+00
  1.60000000E+01  1.00800000E+00  1.00800000E+00  0.00000000E+00  1.60000000E+01
  1.00800000E+00  1.00800000E+00  0.00000000E+00  1.60000000E+01  1.00800000E+00
  1.00800000E+00  0.00000000E+00  1.60000000E+01  1.00800000E+00  1.00800000E+00
  0.00000000E+00  1.60000000E+01  1.00800000E+00  1.00800000E+00  0.00000000E+00
  1.60000000E+01  1.00800000E+00  1.00800000E+00  0.00000000E+00  1.60000000E+01
  1.00800000E+00  1.00800000E+00  0.00000000E+00  1.60000000E+01  1.00800000E+00
  1.00800000E+00  0.00000000E+00  1.60000000E+01  1.00800000E+00  1.00800000E+00
  0.00000000E+00  1.60000000E+01  1.00800000E+00  1.00800000E+00  0.00000000E+00
  1.60000000E+01  1.00800000E+00  1.00800000E+00  0.00000000E+00  1.60000000E+01
  1.00800000E+00  1.00800000E+00  0.00000000E+00  1.60000000E+01  1.00800000E+00
  1.00800000E+00  0.00000000E+00  1.60000000E+01  1.00800000E+00  1.00800000E+00
  0.00000000E+00  1.60000000E+01  1.00800000E+00  1.00800000E+00  0.00000000E+00
  1.60000000E+01  1.00800000E+00  1.00800000E+00  0.00000000E+00  1.60000000E+01
  1.00800000E+00  1.00800000E+00  0.00000000E+00  1.60000000E+01  1.00800000E+00
  1.00800000E+00  0.00000000E+00  1.60000000E+01  1.00800000E+00  1.00800000E+00
  0.00000000E+00  1.60000000E+01  1.00800000E+00  1.00800000E+00  0.00000000E+00
  1.60000000E+01  1.00800000E+00  1.00800000E+00  0.00000000E+00  1.60000000E+01
  1.00800000E+00  1.00800000E+00  0.00000000E+00  1.60000000E+01  1.00800000E+00
  1.00800000E+00  0.00000000E+00  1.60000000E+01  1.00800000E+00  1.00800000E+00
  0.00000000E+00  1.60000000E+01  1.00800000E+00  1.00800000E+00  0.00000000E+00
  1.60000000E+01  1.00800000E+00  1.00800000E+00  0.00000000E+00  1.60000000E+01
  1.00800000E+00  1.00800000E+00  0.00000000E+00  1.60000000E+01  1.00800000E+00
  1.00800000E+00  0.00000000E+00  1.60000000E+01  1.00800000E+00  1.00800000E+00
  0.00000000E+00  1.60000000E+01  1.00800000E+00  1.00800000E+00  0.00000000E+00
  1.60000000E+01  1.00800000E+00  1.00800000E+00  0.00000000E+00  1.60000000E+01
  1.00800000E+00  1.00800000E+00  0.00000000E+00  1.60000000E+01  1.00800000E+00
  1.00800000E+00  0.00000000E+00  1.60000000E+01  1.00800000E+00  1.00800000E+00
  0.00000000E+00  1.60000000E+01  1.00800000E+00  1.00800000E+00  0.00000000E+00
  1.60000000E+01  1.00800000E+00  1.00800000E+00  0.00000000E+00  1.60000000E+01
  1.00800000E+00  1.00800000E+00  0.00000000E+00  1.60000000E+01  1.00800000E+00
  1.00800000E+00  0.00000000E+00  1.60000000E+01  1.00800000E+00  1.00800000E+00
  0.00000000E+00  1.60000000E+01  1.00800000E+00  1.00800000E+00  0.00000000E+00
  1.60000000E+01  1.00800000E+00  1.00800000E+00  0.00000000E+00  1.60000000E+01
  1.00800000E+00  1.00800000E+00  0.00000000E+00  1.60000000E+01  1.00800000E+00
  1.00800000E+00  0.00000000E+00  1.60000000E+01  1.00800000E+00  1.00800000E+00
  0.00000000E+00  1.60000000E+01  1.00800000E+00  1.00800000E+00  0.00000000E+00
  1.60000000E+01  1.00800000E+00  1.00800000E+00  0.00000000E+00  1.60000000E+01
  1.00800000E+00  1.00800000E+00  0.00000000E+00  1.60000000E+01  1.00800000E+00
  1.00800000E+00  0.00000000E+00  1.60000000E+01  1.00800000E+00  1.00800000E+00
  0.00000000E+00  1.60000000E+01  1.00800000E+00  1.00800000E+00  0.00000000E+00
  1.60000000E+01  1.00800000E+00  1.00800000E+00  0.00000000E+00  1.60000000E+01
  1.00800000E+00  1.00800000E+00  0.00000000E+00  1.60000000E+01  1.00800000E+00
  1.00800000E+00  0.00000000E+00  1.60000000E+01  1.00800000E+00  1.00800000E+00
  0.00000000E+00  1.60000000E+01  1.00800000E+00  1.00800000E+00  0.00000000E+00
  1.60000000E+01  1.00800000E+00  1.00800000E+00  0.00000000E+00  1.60000000E+01
  1.00800000E+00  1.00800000E+00  0.00000000E+00  1.60000000E+01  1.00800000E+00
  1.00800000E+00  0.00000000E+00  1.60000000E+01  1.00800000E+00  1.00800000E+00
  0.00000000E+00  1.60000000E+01  1.00800000E+00  1.00800000E+00  0.00000000E+00
  1.60000000E+01  1.00800000E+00  1.00800000E+00  0.00000000E+00  1.60000000E+01
  1.00800000E+00  1.00800000E+00  0.00000000E+00  1.60000000E+01  1.00800000E+00
  1.00800000E+00  0.00000000E+00  1.60000000E+01  1.00800000E+00  1.00800000E+00
  0.00000000E+00  1.60000000E+01  1.00800000E+00  1.00800000E+00  0.00000000E+00
  1.60000000E+01  1.00800000E+00  1.00800000E+00  0.00000000E+00  1.60000000E+01
  1.00800000E+00  1.00800000E+00  0.00000000E+00  1.60000000E+01  1.00800000E+00
  1.00800000E+00  0.00000000E+00  1.60000000E+01  1.00800000E+00  1.00800000E+00
  0.00000000E+00  1.60000000E+01  1.00800000E+00  1.00800000E+00  0.00000000E+00
  1.60000000E+01  1.00800000E+00  1.00800000E+00  0.00000000E+00  1.60000000E+01
  1.00800000E+00  1.00800000E+00  0.00000000E+00  1.60000000E+01  1.00800000E+00
  1.00800000E+00  0.00000000E+00  1.60000000E+01  1.00800000E+00  1.00800000E+00
  0.00000000E+00  1.60000000E+01  1.00800000E+00  1.00800000E+00  0.00000000E+00
  1.60000000E+01  1.00800000E+00  1.00800000E+00  0.00000000E+00  1.60000000E+01
  1.00800000E+00  1.00800000E+00  0.00000000E+00  1.60000000E+01  1.00800000E+00
  1.00800000E+00  0.00000000E+00  1.60000000E+01  1.00800000E+00  1.00800000E+00
  0.00000000E+00  1.60000000E+01  1.00800000E+00  1.00800000E+00  0.00000000E+00
  1.60000000E+01  1.00800000E+00  1.00800000E+00  0.00000000E+00  1.60000000E+01
  1.00800000E+00  1.00800000E+00  0.00000000E+00  1.60000000E+01  1.00800000E+00
  1.00800000E+00  0.00000000E+00  1.60000000E+01  1.00800000E+00  1.00800000E+00
  0.00000000E+00  1.60000000E+01  1.00800000E+00  1.00800000E+00  0.00000000E+00
  1.60000000E+01  1.00800000E+00  1.00800000E+00  0.00000000E+00  1.60000000E+01
  1.00800000E+00  1.00800000E+00  0.00000000E+00  1.60000000E+01  1.00800000E+00
  1.00800000E+00  0.00000000E+00  1.60000000E+01  1.00800000E+00  1.00800000E+00
  0.00000000E+00  1.60000000E+01  1.00800000E+00  1.00800000E+00  0.00000000E+00
  1.60000000E+01  1.00800000E+00  1.00800000E+00  0.00000000E+00  1.60000000E+01
  1.00800000E+00  1.00800000E+00  0.00000000E+00  1.60000000E+01  1.00800000E+00
  1.00800000E+00  0.00000000E+00  1.60000000E+01  1.00800000E+00  1.00800000E+00
  0.00000000E+00  1.60000000E+01  1.00800000E+00  1.00800000E+00  0.00000000E+00
  1.60000000E+01  1.00800000E+00  1.00800000E+00  0.00000000E+00  1.60000000E+01
  1.00800000E+00  1.00800000E+00  0.00000000E+00  1.60000000E+01  1.00800000E+00
  1.00800000E+00  0.00000000E+00  1.60000000E+01  1.00800000E+00  1.00800000E+00
  0.00000000E+00  1.60000000E+01  1.00800000E+00  1.00800000E+00  0.00000000E+00
  1.60000000E+01  1.00800000E+00  1.00800000E+00  0.00000000E+00  1.60000000E+01
  1.00800000E+00  1.00800000E+00  0.00000000E+00  1.60000000E+01  1.00800000E+00
  1.00800000E+00  0.00000000E+00  1.60000000E+01  1.00800000E+00  1.00800000E+00
  0.00000000E+00  1.60000000E+01  1.00800000E+00  1.00800000E+00  0.00000000E+00
  1.60000000E+01  1.00800000E+00  1.00800000E+00  0.00000000E+00  1.60000000E+01
  1.00800000E+00  1.00800000E+00  0.00000000E+00  1.60000000E+01  1.00800000E+00
  1.00800000E+00  0.00000000E+00  1.60000000E+01  1.00800000E+00  1.00800000E+00
  0.00000000E+00  1.60000000E+01  1.00800000E+00  1.00800000E+00  0.00000000E+00
  1.60000000E+01  1.00800000E+00  1.00800000E+00  0.00000000E+00  1.60000000E+01
  1.00800000E+00  1.00800000E+00  0.00000000E+00  1.60000000E+01  1.00800000E+00
  1.00800000E+00  0.00000000E+00  1.60000000E+01  1.00800000E+00  1.00800000E+00
  0.00000000E+00  1.60000000E+01  1.00800000E+00  1.00800000E+00  0.00000000E+00
  1.60000000E+01  1.00800000E+00  1.00800000E+00  0.00000000E+00  1.60000000E+01
  1.00800000E+00  1.00800000E+00  0.00000000E+00  1.60000000E+01  1.00800000E+00
  1.00800000E+00  0.00000000E+00  1.60000000E+01  1.00800000E+00  1.00800000E+00
  0.00000000E+00  1.60000000E+01  1.00800000E+00  1.00800000E+00  0.00000000E+00
  1.60000000E+01  1.00800000E+00  1.00800000E+00  0.00000000E+00  1.60000000E+01
  1.00800000E+00  1.00800000E+00  0.00000000E+00  1.60000000E+01  1.00800000E+00
  1.00800000E+00  0.00000000E+00  1.60000000E+01  1.00800000E+00  1.00800000E+00
  0.00000000E+00  1.60000000E+01  1.00800000E+00  1.00800000E+00  0.00000000E+00
  1.60000000E+01  1.00800000E+00  1.00800000E+00  0.00000000E+00  1.60000000E+01
  1.00800000E+00  1.00800000E+00  0.00000000E+00  1.60000000E+01  1.00800000E+00
  1.00800000E+00  0.00000000E+00  1.60000000E+01  1.00800000E+00  1.00800000E+00
  0.00000000E+00  1.60000000E+01  1.00800000E+00  1.00800000E+00  0.00000000E+00
  1.60000000E+01  1.00800000E+00  1.00800000E+00  0.00000000E+00  1.60000000E+01
  1.00800000E+00  1.00800000E+00  0.00000000E+00  1.60000000E+01  1.00800000E+00
  1.00800000E+00  0.00000000E+00  1.60000000E+01  1.00800000E+00  1.00800000E+00
  0.00000000E+00  1.60000000E+01  1.00800000E+00  1.00800000E+00  0.00000000E+00
  1.60000000E+01  1.00800000E+00  1.00800000E+00  0.00000000E+00  1.60000000E+01
  1.00800000E+00  1.00800000E+00  0.00000000E+00  1.60000000E+01  1.00800000E+00
  1.00800000E+00  0.00000000E+00  1.60000000E+01  1.00800000E+00  1.00800000E+00
  0.00000000E+00  1.60000000E+01  1.00800000E+00  1.00800000E+00  0.00000000E+00
  1.60000000E+01  1.00800000E+00  1.00800000E+00  0.00000000E+00  1.60000000E+01
  1.00800000E+00  1.00800000E+00  0.00000000E+00  1.60000000E+01  1.00800000E+00
  1.00800000E+00  0.00000000E+00  1.60000000E+01  1.00800000E+00  1.00800000E+00
  0.00000000E+00  1.60000000E+01  1.00800000E+00  1.00800000E+00  0.00000000E+00
  1.60000000E+01  1.00800000E+00  1.00800000E+00  0.00000000E+00  1.60000000E+01
  1.00800000E+00  1.00800000E+00  0.00000000E+00  1.60000000E+01  1.00800000E+00
  1.00800000E+00  0.00000000E+00  1.60000000E+01  1.00800000E+00  1.00800000E+00
  0.00000000E+00  1.60000000E+01  1.00800000E+00  1.00800000E+00  0.00000000E+00
  1.60000000E+01  1.00800000E+00  1.00800000E+00  0.00000000E+00  1.60000000E+01
  1.00800000E+00  1.00800000E+00  0.00000000E+00  1.60000000E+01  1.00800000E+00
  1.00800000E+00  0.00000000E+00  1.60000000E+01  1.00800000E+00  1.00800000E+00
  0.00000000E+00  1.60000000E+01  1.00800000E+00  1.00800000E+00  0.00000000E+00
  1.60000000E+01  1.00800000E+00  1.00800000E+00  0.00000000E+00  1.60000000E+01
  1.00800000E+00  1.00800000E+00  0.00000000E+00  1.60000000E+01  1.00800000E+00
  1.00800000E+00  0.00000000E+00  1.60000000E+01  1.00800000E+00  1.00800000E+00
  0.00000000E+00  1.60000000E+01  1.00800000E+00  1.00800000E+00  0.00000000E+00
  1.60000000E+01  1.00800000E+00  1.00800000E+00  0.00000000E+00  1.60000000E+01
  1.00800000E+00  1.00800000E+00  0.00000000E+00  1.60000000E+01  1.00800000E+00
  1.00800000E+00  0.00000000E+00  1.60000000E+01  1.00800000E+00  1.00800000E+00
  0.00000000E+00  1.60000000E+01  1.00800000E+00  1.00800000E+00  0.00000000E+00
  1.60000000E+01  1.00800000E+00  1.00800000E+00  0.00000000E+00  1.60000000E+01
  1.00800000E+00  1.00800000E+00  0.00000000E+00  1.60000000E+01  1.00800000E+00
  1.00800000E+00  0.00000000E+00  1.60000000E+01  1.00800000E+00  1.00800000E+00
  0.00000000E+00  1.60000000E+01  1.00800000E+00  1.00800000E+00  0.00000000E+00
  1.60000000E+01  1.00800000E+00  1.00800000E+00  0.00000000E+00  1.60000000E+01
  1.00800000E+00  1.00800000E+00  0.00000000E+00  1.60000000E+01  1.00800000E+00
  1.00800000E+00  0.00000000E+00  1.60000000E+01  1.00800000E+00  1.00800000E+00
  0.00000000E+00  1.60000000E+01  1.00800000E+00  1.00800000E+00  0.00000000E+00
  1.60000000E+01  1.00800000E+00  1.00800000E+00  0.00000000E+00  1.60000000E+01
  1.00800000E+00  1.00800000E+00  0.00000000E+00  1.60000000E+01  1.00800000E+00
  1.00800000E+00  0.00000000E+00  1.60000000E+01  1.00800000E+00  1.00800000E+00
  0.00000000E+00  1.60000000E+01  1.00800000E+00  1.00800000E+00  0.00000000E+00
  1.60000000E+01  1.00800000E+00  1.00800000E+00  0.00000000E+00  1.60000000E+01
  1.00800000E+00  1.00800000E+00  0.00000000E+00  1.60000000E+01  1.00800000E+00
  1.00800000E+00  0.00000000E+00  1.60000000E+01  1.00800000E+00  1.00800000E+00
  0.00000000E+00  1.60000000E+01  1.00800000E+00  1.00800000E+00  0.00000000E+00
  1.60000000E+01  1.00800000E+00  1.00800000E+00  0.00000000E+00  1.60000000E+01
  1.00800000E+00  1.00800000E+00  0.00000000E+00  1.60000000E+01  1.00800000E+00
  1.00800000E+00  0.00000000E+00  1.60000000E+01  1.00800000E+00  1.00800000E+00
  0.00000000E+00  1.60000000E+01  1.00800000E+00  1.00800000E+00  0.00000000E+00
  1.60000000E+01  1.00800000E+00  1.00800000E+00  0.00000000E+00  1.60000000E+01
  1.00800000E+00  1.00800000E+00  0.00000000E+00  1.60000000E+01  1.00800000E+00
  1.00800000E+00  0.00000000E+00  1.60000000E+01  1.00800000E+00  1.00800000E+00
  0.00000000E+00  1.60000000E+01  1.00800000E+00  1.00800000E+00  0.00000000E+00
  1.60000000E+01  1.00800000E+00  1.00800000E+00  0.00000000E+00  1.60000000E+01
  1.00800000E+00  1.00800000E+00  0.00000000E+00  1.60000000E+01  1.00800000E+00
  1.00800000E+00  0.00000000E+00  1.60000000E+01  1.00800000E+00  1.00800000E+00
  0.00000000E+00  1.60000000E+01  1.00800000E+00  1.00800000E+00  0.00000000E+00
  1.60000000E+01  1.00800000E+00  1.00800000E+00  0.00000000E+00  1.60000000E+01
  1.00800000E+00  1.00800000E+00  0.00000000E+00  1.60000000E+01  1.00800000E+00
  1.00800000E+00  0.00000000E+00  1.60000000E+01  1.00800000E+00  1.00800000E+00
  0.00000000E+00  1.60000000E+01  1.00800000E+00  1.00800000E+00  0.00000000E+00
  1.60000000E+01  1.00800000E+00  1.00800000E+00  0.00000000E+00  1.60000000E+01
  1.00800000E+00  1.00800000E+00  0.00000000E+00  1.60000000E+01  1.00800000E+00
  1.00800000E+00  0.00000000E+00  1.60000000E+01  1.00800000E+00  1.00800000E+00
  0.00000000E+00  1.60000000E+01  1.00800000E+00  1.00800000E+00  0.00000000E+00
  1.60000000E+01  1.00800000E+00  1.00800000E+00  0.00000000E+00  1.60000000E+01
  1.00800000E+00  1.00800000E+00  0.00000000E+00  1.60000000E+01  1.00800000E+00
  1.00800000E+00  0.00000000E+00  1.60000000E+01  1.00800000E+00  1.00800000E+00
  0.00000000E+00  1.60000000E+01  1.00800000E+00  1.00800000E+00  0.00000000E+00
  1.60000000E+01  1.00800000E+00  1.00800000E+00  0.00000000E+00  1.60000000E+01
  1.00800000E+00  1.00800000E+00  0.00000000E+00  1.60000000E+01  1.00800000E+00
  1.00800000E+00  0.00000000E+00  1.60000000E+01  1.00800000E+00  1.00800000E+00
  0.00000000E+00  1.60000000E+01  1.00800000E+00  1.00800000E+00  0.00000000E+00
  1.60000000E+01  1.00800000E+00  1.00800000E+00  0.00000000E+00  1.60000000E+01
  1.00800000E+00  1.00800000E+00  0.00000000E+00  1.60000000E+01  1.00800000E+00
  1.00800000E+00  0.00000000E+00  1.60000000E+01  1.00800000E+00  1.00800000E+00
  0.00000000E+00  1.60000000E+01  1.00800000E+00  1.00800000E+00  0.00000000E+00
  1.60000000E+01  1.00800000E+00  1.00800000E+00  0.00000000E+00  1.60000000E+01
  1.00800000E+00  1.00800000E+00  0.00000000E+00  1.60000000E+01  1.00800000E+00
  1.00800000E+00  0.00000000E+00  1.60000000E+01  1.00800000E+00  1.00800000E+00
  0.00000000E+00  1.60000000E+01  1.00800000E+00  1.00800000E+00  0.00000000E+00
  1.60000000E+01  1.00800000E+00  1.00800000E+00  0.00000000E+00  1.60000000E+01
  1.00800000E+00  1.00800000E+00  0.00000000E+00  1.60000000E+01  1.00800000E+00
  1.00800000E+00  0.00000000E+00  1.60000000E+01  1.00800000E+00  1.00800000E+00
  0.00000000E+00  1.60000000E+01  1.00800000E+00  1.00800000E+00  0.00000000E+00
  1.60000000E+01  1.00800000E+00  1.00800000E+00  0.00000000E+00  1.60000000E+01
  1.00800000E+00  1.00800000E+00  0.00000000E+00  1.60000000E+01  1.00800000E+00
  1.00800000E+00  0.00000000E+00  1.60000000E+01  1.00800000E+00  1.00800000E+00
  0.00000000E+00  1.60000000E+01  1.00800000E+00  1.00800000E+00  0.00000000E+00
  1.60000000E+01  1.00800000E+00  1.00800000E+00  0.00000000E+00  1.60000000E+01
  1.00800000E+00  1.00800000E+00  0.00000000E+00  1.60000000E+01  1.00800000E+00
  1.00800000E+00  0.00000000E+00  1.60000000E+01  1.00800000E+00  1.00800000E+00
  0.00000000E+00  1.60000000E+01  1.00800000E+00  1.00800000E+00  0.00000000E+00
  1.60000000E+01  1.00800000E+00  1.00800000E+00  0.00000000E+00  1.60000000E+01
  1.00800000E+00  1.00800000E+00  0.00000000E+00  1.60000000E+01  1.00800000E+00
  1.00800000E+00  0.00000000E+00  1.60000000E+01  1.00800000E+00  1.00800000E+00
  0.00000000E+00  1.60000000E+01  1.00800000E+00  1.00800000E+00  0.00000000E+00
  1.60000000E+01  1.00800000E+00  1.00800000E+00  0.00000000E+00  1.60000000E+01
  1.00800000E+00  1.00800000E+00  0.00000000E+00  1.60000000E+01  1.00800000E+00
  1.00800000E+00  0.00000000E+00  1.60000000E+01  1.00800000E+00  1.00800000E+00
  0.00000000E+00  1.60000000E+01  1.00800000E+00  1.00800000E+00  0.00000000E+00
  1.60000000E+01  1.00800000E+00  1.00800000E+00  0.00000000E+00  1.60000000E+01
  1.00800000E+00  1.00800000E+00  0.00000000E+00  1.60000000E+01  1.00800000E+00
  1.00800000E+00  0.00000000E+00  1.60000000E+01  1.00800000E+00  1.00800000E+00
  0.00000000E+00  1.60000000E+01  1.00800000E+00  1.00800000E+00  0.00000000E+00
  1.60000000E+01  1.00800000E+00  1.00800000E+00  0.00000000E+00  1.60000000E+01
  1.00800000E+00  1.00800000E+00  0.00000000E+00  1.60000000E+01  1.00800000E+00
  1.00800000E+00  0.00000000E+00  1.60000000E+01  1.00800000E+00  1.00800000E+00
  0.00000000E+00  1.60000000E+01  1.00800000E+00  1.00800000E+00  0.00000000E+00
  1.60000000E+01  1.00800000E+00  1.00800000E+00  0.00000000E+00  1.60000000E+01
  1.00800000E+00  1.00800000E+00  0.00000000E+00  1.60000000E+01  1.00800000E+00
  1.00800000E+00  0.00000000E+00  1.60000000E+01  1.00800000E+00  1.00800000E+00
  0.00000000E+00  1.60000000E+01  1.00800000E+00  1.00800000E+00  0.00000000E+00
  1.60000000E+01  1.00800000E+00  1.00800000E+00  0.00000000E+00  1.60000000E+01
  1.00800000E+00  1.00800000E+00  0.00000000E+00  1.60000000E+01  1.00800000E+00
  1.00800000E+00  0.00000000E+00  1.60000000E+01  1.00800000E+00  1.00800000E+00
  0.00000000E+00  1.60000000E+01  1.00800000E+00  1.00800000E+00  0.00000000E+00
  1.60000000E+01  1.00800000E+00  1.00800000E+00  0.00000000E+00  1.60000000E+01
  1.00800000E+00  1.00800000E+00  0.00000000E+00  1.60000000E+01  1.00800000E+00
  1.00800000E+00  0.00000000E+00  1.60000000E+01  1.00800000E+00  1.00800000E+00
  0.00000000E+00  1.60000000E+01  1.00800000E+00  1.00800000E+00  0.00000000E+00
  1.60000000E+01  1.00800000E+00  1.00800000E+00  0.00000000E+00  1.60000000E+01
  1.00800000E+00  1.00800000E+00  0.00000000E+00  1.60000000E+01  1.00800000E+00
  1.00800000E+00  0.00000000E+00  1.60000000E+01  1.00800000E+00  1.00800000E+00
  0.00000000E+00  1.60000000E+01  1.00800000E+00  1.00800000E+00  0.00000000E+00
  1.60000000E+01  1.00800000E+00  1.00800000E+00  0.00000000E+00  1.60000000E+01
  1.00800000E+00  1.00800000E+00  0.00000000E+00  1.60000000E+01  1.00800000E+00
  1.00800000E+00  0.00000000E+00  1.60000000E+01  1.00800000E+00  1.00800000E+00
  0.00000000E+00  1.60000000E+01  1.00800000E+00  1.00800000E+00  0.00000000E+00
  1.60000000E+01  1.00800000E+00  1.00800000E+00  0.00000000E+00  1.60000000E+01
  1.00800000E+00  1.00800000E+00  0.00000000E+00  1.60000000E+01  1.00800000E+00
  1.00800000E+00  0.00000000E+00  1.60000000E+01  1.00800000E+00  1.00800000E+00
  0.00000000E+00  1.60000000E+01  1.00800000E+00  1.00800000E+00  0.00000000E+00
  1.60000000E+01  1.00800000E+00  1.00800000E+00  0.00000000E+00  1.60000000E+01
  1.00800000E+00  1.00800000E+00  0.00000000E+00  1.60000000E+01  1.00800000E+00
  1.00800000E+00  0.00000000E+00  1.60000000E+01  1.00800000E+00  1.00800000E+00
  0.00000000E+00  1.60000000E+01  1.00800000E+00  1.00800000E+00  0.00000000E+00
  1.60000000E+01  1.00800000E+00  1.00800000E+00  0.00000000E+00  1.60000000E+01
  1.00800000E+00  1.00800000E+00  0.00000000E+00  1.60000000E+01  1.00800000E+00
  1.00800000E+00  0.00000000E+00  1.60000000E+01  1.00800000E+00  1.00800000E+00
  0.00000000E+00  1.60000000E+01  1.00800000E+00  1.00800000E+00  0.00000000E+00
  1.60000000E+01  1.00800000E+00  1.00800000E+00  0.00000000E+00  1.60000000E+01
  1.00800000E+00  1.00800000E+00  0.00000000E+00  1.60000000E+01  1.00800000E+00
  1.00800000E+00  0.00000000E+00  1.60000000E+01  1.00800000E+00  1.00800000E+00
  0.00000000E+00  1.60000000E+01  1.00800000E+00  1.00800000E+00  0.00000000E+00
  1.60000000E+01  1.00800000E+00  1.00800000E+00  0.00000000E+00  1.60000000E+01
  1.00800000E+00  1.00800000E+00  0.00000000E+00  1.60000000E+01  1.00800000E+00
  1.00800000E+00  0.00000000E+00  1.60000000E+01  1.00800000E+00  1.00800000E+00
  0.00000000E+00  1.60000000E+01  1.00800000E+00  1.00800000E+00  0.00000000E+00
  1.60000000E+01  1.00800000E+00  1.00800000E+00  0.00000000E+00  1.60000000E+01
  1.00800000E+00  1.00800000E+00  0.00000000E+00  1.60000000E+01  1.00800000E+00
  1.00800000E+00  0.00000000E+00  1.60000000E+01  1.00800000E+00  1.00800000E+00
  0.00000000E+00  1.60000000E+01  1.00800000E+00  1.00800000E+00  0.00000000E+00
  1.60000000E+01  1.00800000E+00  1.00800000E+00  0.00000000E+00  1.60000000E+01
  1.00800000E+00  1.00800000E+00  0.00000000E+00  1.60000000E+01  1.00800000E+00
  1.00800000E+00  0.00000000E+00  1.60000000E+01  1.00800000E+00  1.00800000E+00
  0.00000000E+00  1.60000000E+01  1.00800000E+00  1.00800000E+00  0.00000000E+00
  1.60000000E+01  1.00800000E+00  1.00800000E+00  0.00000000E+00  1.60000000E+01
  1.00800000E+00  1.00800000E+00  0.00000000E+00  1.60000000E+01  1.00800000E+00
  1.00800000E+00  0.00000000E+00  1.60000000E+01  1.00800000E+00  1.00800000E+00
  0.00000000E+00  1.60000000E+01  1.00800000E+00  1.00800000E+00  0.00000000E+00
  1.60000000E+01  1.00800000E+00  1.00800000E+00  0.00000000E+00  1.60000000E+01
  1.00800000E+00  1.00800000E+00  0.00000000E+00  1.60000000E+01  1.00800000E+00
  1.00800000E+00  0.00000000E+00  1.60000000E+01  1.00800000E+00  1.00800000E+00
  0.00000000E+00  1.60000000E+01  1.00800000E+00  1.00800000E+00  0.00000000E+00
  1.60000000E+01  1.00800000E+00  1.00800000E+00  0.00000000E+00  1.60000000E+01
  1.00800000E+00  1.00800000E+00  0.00000000E+00  1.60000000E+01  1.00800000E+00
  1.00800000E+00  0.00000000E+00  1.60000000E+01  1.00800000E+00  1.00800000E+00
  0.00000000E+00  1.60000000E+01  1.00800000E+00  1.00800000E+00  0.00000000E+00
  1.60000000E+01  1.00800000E+00  1.00800000E+00  0.00000000E+00  1.60000000E+01
  1.00800000E+00  1.00800000E+00  0.00000000E+00  1.60000000E+01  1.00800000E+00
  1.00800000E+00  0.00000000E+00  1.60000000E+01  1.00800000E+00  1.00800000E+00
  0.00000000E+00  1.60000000E+01  1.00800000E+00  1.00800000E+00  0.00000000E+00
  1.60000000E+01  1.00800000E+00  1.00800000E+00  0.00000000E+00  1.60000000E+01
  1.00800000E+00  1.00800000E+00  0.00000000E+00  1.60000000E+01  1.00800000E+00
  1.00800000E+00  0.00000000E+00  1.60000000E+01  1.00800000E+00  1.00800000E+00
  0.00000000E+00  1.60000000E+01  1.00800000E+00  1.00800000E+00  0.00000000E+00
  1.60000000E+01  1.00800000E+00  1.00800000E+00  0.00000000E+00  1.60000000E+01
  1.00800000E+00  1.00800000E+00  0.00000000E+00  1.60000000E+01  1.00800000E+00
  1.00800000E+00  0.00000000E+00  1.60000000E+01  1.00800000E+00  1.00800000E+00
  0.00000000E+00  1.60000000E+01  1.00800000E+00  1.00800000E+00  0.00000000E+00
  1.60000000E+01  1.00800000E+00  1.00800000E+00  0.00000000E+00  1.60000000E+01
  1.00800000E+00  1.00800000E+00  0.00000000E+00  1.60000000E+01  1.00800000E+00
  1.00800000E+00  0.00000000E+00  1.60000000E+01  1.00800000E+00  1.00800000E+00
  0.00000000E+00  1.60000000E+01  1.00800000E+00  1.00800000E+00  0.00000000E+00
  1.60000000E+01  1.00800000E+00  1.00800000E+00  0.00000000E+00  1.60000000E+01
  1.00800000E+00  1.00800000E+00  0.00000000E+00  1.60000000E+01  1.00800000E+00
  1.00800000E+00  0.00000000E+00  1.60000000E+01  1.00800000E+00  1.00800000E+00
  0.00000000E+00  1.60000000E+01  1.00800000E+00  1.00800000E+00  0.00000000E+00
  1.60000000E+01  1.00800000E+00  1.00800000E+00  0.00000000E+00  1.60000000E+01
  1.00800000E+00  1.00800000E+00  0.00000000E+00  1.60000000E+01  1.00800000E+00
  1.00800000E+00  0.00000000E+00  1.60000000E+01  1.00800000E+00  1.00800000E+00
  0.00000000E+00  1.60000000E+01  1.00800000E+00  1.00800000E+00  0.00000000E+00
  1.60000000E+01  1.00800000E+00  1.00800000E+00  0.00000000E+00  1.60000000E+01
  1.00800000E+00  1.00800000E+00  0.00000000E+00  1.60000000E+01  1.00800000E+00
  1.00800000E+00  0.00000000E+00  1.60000000E+01  1.00800000E+00  1.00800000E+00
  0.00000000E+00  1.60000000E+01  1.00800000E+00  1.00800000E+00  0.00000000E+00
  1.60000000E+01  1.00800000E+00  1.00800000E+00  0.00000000E+00  1.60000000E+01
  1.00800000E+00  1.00800000E+00  0.00000000E+00  1.60000000E+01  1.00800000E+00
  1.00800000E+00  0.00000000E+00  1.60000000E+01  1.00800000E+00  1.00800000E+00
  0.00000000E+00  1.60000000E+01  1.00800000E+00  1.00800000E+00  0.00000000E+00
  1.60000000E+01  1.00800000E+00  1.00800000E+00  0.00000000E+00  1.60000000E+01
  1.00800000E+00  1.00800000E+00  0.00000000E+00  1.60000000E+01  1.00800000E+00
  1.00800000E+00  0.00000000E+00  1.60000000E+01  1.00800000E+00  1.00800000E+00
  0.00000000E+00  1.60000000E+01  1.00800000E+00  1.00800000E+00  0.00000000E+00
  1.60000000E+01  1.00800000E+00  1.00800000E+00  0.00000000E+00  1.60000000E+01
  1.00800000E+00  1.00800000E+00  0.00000000E+00  1.60000000E+01  1.00800000E+00
  1.00800000E+00  0.00000000E+00  1.60000000E+01  1.00800000E+00  1.00800000E+00
  0.00000000E+00  1.60000000E+01  1.00800000E+00  1.00800000E+00  0.00000000E+00
  1.60000000E+01  1.00800000E+00  1.00800000E+00  0.00000000E+00  1.60000000E+01
  1.00800000E+00  1.00800000E+00  0.00000000E+00  1.60000000E+01  1.00800000E+00
  1.00800000E+00  0.00000000E+00  1.60000000E+01  1.00800000E+00  1.00800000E+00
  0.00000000E+00  1.60000000E+01  1.00800000E+00  1.00800000E+00  0.00000000E+00
  1.60000000E+01  1.00800000E+00  1.00800000E+00  0.00000000E+00  1.60000000E+01
  1.00800000E+00  1.00800000E+00  0.00000000E+00  1.60000000E+01  1.00800000E+00
  1.00800000E+00  0.00000000E+00  1.60000000E+01  1.00800000E+00  1.00800000E+00
  0.00000000E+00  1.60000000E+01  1.00800000E+00  1.00800000E+00  0.00000000E+00
  1.60000000E+01  1.00800000E+00  1.00800000E+00  0.00000000E+00  1.60000000E+01
  1.00800000E+00  1.00800000E+00  0.00000000E+00  1.60000000E+01  1.00800000E+00
  1.00800000E+00  0.00000000E+00  1.60000000E+01  1.00800000E+00  1.00800000E+00
  0.00000000E+00  1.60000000E+01  1.00800000E+00  1.00800000E+00  0.00000000E+00
  1.60000000E+01  1.00800000E+00  1.00800000E+00  0.00000000E+00  1.60000000E+01
  1.00800000E+00  1.00800000E+00  0.00000000E+00  1.60000000E+01  1.00800000E+00
  1.00800000E+00  0.00000000E+00  1.60000000E+01  1.00800000E+00  1.00800000E+00
  0.00000000E+00  1.60000000E+01  1.00800000E+00  1.00800000E+00  0.00000000E+00
  1.60000000E+01  1.00800000E+00  1.00800000E+00  0.00000000E+00  1.60000000E+01
  1.00800000E+00  1.00800000E+00  0.00000000E+00  1.60000000E+01  1.00800000E+00
  1.00800000E+00  0.00000000E+00  1.60000000E+01  1.00800000E+00  1.00800000E+00
  0.00000000E+00  1.60000000E+01  1.00800000E+00  1.00800000E+00  0.00000000E+00
  1.60000000E+01  1.00800000E+00  1.00800000E+00  0.00000000E+00  1.60000000E+01
  1.00800000E+00  1.00800000E+00  0.00000000E+00  1.60000000E+01  1.00800000E+00
  1.00800000E+00  0.00000000E+00  1.60000000E+01  1.00800000E+00  1.00800000E+00
  0.00000000E+00  1.60000000E+01  1.00800000E+00  1.00800000E+00  0.00000000E+00
  1.60000000E+01  1.00800000E+00  1.00800000E+00  0.00000000E+00  1.60000000E+01
  1.00800000E+00  1.00800000E+00  0.00000000E+00  1.60000000E+01  1.00800000E+00
  1.00800000E+00  0.00000000E+00  1.60000000E+01  1.00800000E+00  1.00800000E+00
  0.00000000E+00  1.60000000E+01  1.00800000E+00  1.00800000E+00  0.00000000E+00
  1.60000000E+01  1.00800000E+00  1.00800000E+00  0.00000000E+00  1.60000000E+01
  1.00800000E+00  1.00800000E+00  0.00000000E+00  1.60000000E+01  1.00800000E+00
  1.00800000E+00  0.00000000E+00  1.60000000E+01  1.00800000E+00  1.00800000E+00
  0.00000000E+00  1.60000000E+01  1.00800000E+00  1.00800000E+00  0.00000000E+00
  1.60000000E+01  1.00800000E+00  1.00800000E+00  0.00000000E+00  1.60000000E+01
  1.00800000E+00  1.00800000E+00  0.00000000E+00  1.60000000E+01  1.00800000E+00
  1.00800000E+00  0.00000000E+00  1.60000000E+01  1.00800000E+00  1.00800000E+00
  0.00000000E+00  1.60000000E+01  1.00800000E+00  1.00800000E+00  0.00000000E+00
  1.60000000E+01  1.00800000E+00  1.00800000E+00  0.00000000E+00  1.60000000E+01
  1.00800000E+00  1.00800000E+00  0.00000000E+00  1.60000000E+01  1.00800000E+00
  1.00800000E+00  0.00000000E+00  1.60000000E+01  1.00800000E+00  1.00800000E+00
  0.00000000E+00  1.60000000E+01  1.00800000E+00  1.00800000E+00  0.00000000E+00
  1.60000000E+01  1.00800000E+00  1.00800000E+00  0.00000000E+00  1.60000000E+01
  1.00800000E+00  1.00800000E+00  0.00000000E+00  1.60000000E+01  1.00800000E+00
  1.00800000E+00  0.00000000E+00  1.60000000E+01  1.00800000E+00  1.00800000E+00
  0.00000000E+00  1.60000000E+01  1.00800000E+00  1.00800000E+00  0.00000000E+00
  1.60000000E+01  1.00800000E+00  1.00800000E+00  0.00000000E+00  1.60000000E+01
  1.00800000E+00  1.00800000E+00  0.00000000E+00  1.60000000E+01  1.00800000E+00
  1.00800000E+00  0.00000000E+00  1.60000000E+01  1.00800000E+00  1.00800000E+00
  0.00000000E+00  1.60000000E+01  1.00800000E+00  1.00800000E+00  0.00000000E+00
  1.60000000E+01  1.00800000E+00  1.00800000E+00  0.00000000E+00  1.60000000E+01
  1.00800000E+00  1.00800000E+00  0.00000000E+00  1.60000000E+01  1.00800000E+00
  1.00800000E+00  0.00000000E+00  1.60000000E+01  1.00800000E+00  1.00800000E+00
  0.00000000E+00  1.60000000E+01  1.00800000E+00  1.00800000E+00  0.00000000E+00
  1.60000000E+01  1.00800000E+00  1.00800000E+00  0.00000000E+00  1.60000000E+01
  1.00800000E+00  1.00800000E+00  0.00000000E+00  1.60000000E+01  1.00800000E+00
  1.00800000E+00  0.00000000E+00  1.60000000E+01  1.00800000E+00  1.00800000E+00
  0.00000000E+00  1.60000000E+01  1.00800000E+00  1.00800000E+00  0.00000000E+00
  1.60000000E+01  1.00800000E+00  1.00800000E+00  0.00000000E+00  1.60000000E+01
  1.00800000E+00  1.00800000E+00  0.00000000E+00  1.60000000E+01  1.00800000E+00
  1.00800000E+00  0.00000000E+00  1.60000000E+01  1.00800000E+00  1.00800000E+00
  0.00000000E+00  1.60000000E+01  1.00800000E+00  1.00800000E+00  0.00000000E+00
  1.60000000E+01  1.00800000E+00  1.00800000E+00  0.00000000E+00  1.60000000E+01
  1.00800000E+00  1.00800000E+00  0.00000000E+00  1.60000000E+01  1.00800000E+00
  1.00800000E+00  0.00000000E+00  1.60000000E+01  1.00800000E+00  1.00800000E+00
  0.00000000E+00  1.60000000E+01  1.00800000E+00  1.00800000E+00  0.00000000E+00
  1.60000000E+01  1.00800000E+00  1.00800000E+00  0.00000000E+00  1.60000000E+01
  1.00800000E+00  1.00800000E+00  0.00000000E+00  1.60000000E+01  1.00800000E+00
  1.00800000E+00  0.00000000E+00  1.60000000E+01  1.00800000E+00  1.00800000E+00
  0.00000000E+00  1.60000000E+01  1.00800000E+00  1.00800000E+00  0.00000000E+00
  1.60000000E+01  1.00800000E+00  1.00800000E+00  0.00000000E+00  1.60000000E+01
  1.00800000E+00  1.00800000E+00  0.00000000E+00  1.60000000E+01  1.00800000E+00
  1.00800000E+00  0.00000000E+00  1.60000000E+01  1.00800000E+00  1.00800000E+00
  0.00000000E+00  1.60000000E+01  1.00800000E+00  1.00800000E+00  0.00000000E+00
  1.60000000E+01  1.00800000E+00  1.00800000E+00  0.00000000E+00  1.60000000E+01
  1.00800000E+00  1.00800000E+00  0.00000000E+00  1.60000000E+01  1.00800000E+00
  1.00800000E+00  0.00000000E+00  1.60000000E+01  1.00800000E+00  1.00800000E+00
  0.00000000E+00  1.60000000E+01  1.00800000E+00  1.00800000E+00  0.00000000E+00
  1.60000000E+01  1.00800000E+00  1.00800000E+00  0.00000000E+00  1.60000000E+01
  1.00800000E+00  1.00800000E+00  0.00000000E+00  1.60000000E+01  1.00800000E+00
  1.00800000E+00  0.00000000E+00  1.60000000E+01  1.00800000E+00  1.00800000E+00
  0.00000000E+00  1.60000000E+01  1.00800000E+00  1.00800000E+00  0.00000000E+00
  1.60000000E+01  1.00800000E+00  1.00800000E+00  0.00000000E+00  1.60000000E+01
  1.00800000E+00  1.00800000E+00  0.00000000E+00  1.60000000E+01  1.00800000E+00
  1.00800000E+00  0.00000000E+00  1.60000000E+01  1.00800000E+00  1.00800000E+00
  0.00000000E+00  1.60000000E+01  1.00800000E+00  1.00800000E+00  0.00000000E+00
  1.60000000E+01  1.00800000E+00  1.00800000E+00  0.00000000E+00  1.60000000E+01
  1.00800000E+00  1.00800000E+00  0.00000000E+00  1.60000000E+01  1.00800000E+00
  1.00800000E+00  0.00000000E+00  1.60000000E+01  1.00800000E+00  1.00800000E+00
  0.00000000E+00  1.60000000E+01  1.00800000E+00  1.00800000E+00  0.00000000E+00
  1.60000000E+01  1.00800000E+00  1.00800000E+00  0.00000000E+00  1.60000000E+01
  1.00800000E+00  1.00800000E+00  0.00000000E+00  1.60000000E+01  1.00800000E+00
  1.00800000E+00  0.00000000E+00  1.60000000E+01  1.00800000E+00  1.00800000E+00
  0.00000000E+00  1.60000000E+01  1.00800000E+00  1.00800000E+00  0.00000000E+00
  1.60000000E+01  1.00800000E+00  1.00800000E+00  0.00000000E+00  1.60000000E+01
  1.00800000E+00  1.00800000E+00  0.00000000E+00  1.60000000E+01  1.00800000E+00
  1.00800000E+00  0.00000000E+00  1.60000000E+01  1.00800000E+00  1.00800000E+00
  0.00000000E+00  1.60000000E+01  1.00800000E+00  1.00800000E+00  0.00000000E+00
  1.60000000E+01  1.00800000E+00  1.00800000E+00  0.00000000E+00  1.60000000E+01
  1.00800000E+00  1.00800000E+00  0.00000000E+00  1.60000000E+01  1.00800000E+00
  1.00800000E+00  0.00000000E+00  1.60000000E+01  1.00800000E+00  1.00800000E+00
  0.00000000E+00  1.60000000E+01  1.00800000E+00  1.00800000E+00  0.00000000E+00
  1.60000000E+01  1.00800000E+00  1.00800000E+00  0.00000000E+00  1.60000000E+01
  1.00800000E+00  1.00800000E+00  0.00000000E+00  1.60000000E+01  1.00800000E+00
  1.00800000E+00  0.00000000E+00  1.60000000E+01  1.00800000E+00  1.00800000E+00
  0.00000000E+00  1.60000000E+01  1.00800000E+00  1.00800000E+00  0.00000000E+00
  1.60000000E+01  1.00800000E+00  1.00800000E+00  0.00000000E+00  1.60000000E+01
  1.00800000E+00  1.00800000E+00  0.00000000E+00  1.60000000E+01  1.00800000E+00
  1.00800000E+00  0.00000000E+00  1.60000000E+01  1.00800000E+00  1.00800000E+00
  0.00000000E+00  1.60000000E+01  1.00800000E+00  1.00800000E+00  0.00000000E+00
  1.60000000E+01  1.00800000E+00  1.00800000E+00  0.00000000E+00  1.60000000E+01
  1.00800000E+00  1.00800000E+00  0.00000000E+00  1.60000000E+01  1.00800000E+00
  1.00800000E+00  0.00000000E+00  1.60000000E+01  1.00800000E+00  1.00800000E+00
  0.00000000E+00  1.60000000E+01  1.00800000E+00  1.00800000E+00  0.00000000E+00
  1.60000000E+01  1.00800000E+00  1.00800000E+00  0.00000000E+00  1.60000000E+01
  1.00800000E+00  1.00800000E+00  0.00000000E+00  1.60000000E+01  1.00800000E+00
  1.00800000E+00  0.00000000E+00  1.60000000E+01  1.00800000E+00  1.00800000E+00
  0.00000000E+00  1.60000000E+01  1.00800000E+00  1.00800000E+00  0.00000000E+00
  1.60000000E+01  1.00800000E+00  1.00800000E+00  0.00000000E+00  1.60000000E+01
  1.00800000E+00  1.00800000E+00  0.00000000E+00  1.60000000E+01  1.00800000E+00
  1.00800000E+00  0.00000000E+00  1.60000000E+01  1.00800000E+00  1.00800000E+00
  0.00000000E+00  1.60000000E+01  1.00800000E+00  1.00800000E+00  0.00000000E+00
  1.60000000E+01  1.00800000E+00  1.00800000E+00  0.00000000E+00  1.60000000E+01
  1.00800000E+00  1.00800000E+00  0.00000000E+00  1.60000000E+01  1.00800000E+00
  1.00800000E+00  0.00000000E+00  1.60000000E+01  1.00800000E+00  1.00800000E+00
  0.00000000E+00  1.60000000E+01  1.00800000E+00  1.00800000E+00  0.00000000E+00
  1.60000000E+01  1.00800000E+00  1.00800000E+00  0.00000000E+00  1.60000000E+01
  1.00800000E+00  1.00800000E+00  0.00000000E+00  1.60000000E+01  1.00800000E+00
  1.00800000E+00  0.00000000E+00  1.60000000E+01  1.00800000E+00  1.00800000E+00
  0.00000000E+00  1.60000000E+01  1.00800000E+00  1.00800000E+00  0.00000000E+00
  1.60000000E+01  1.00800000E+00  1.00800000E+00  0.00000000E+00  1.60000000E+01
  1.00800000E+00  1.00800000E+00  0.00000000E+00  1.60000000E+01  1.00800000E+00
  1.00800000E+00  0.00000000E+00  1.60000000E+01  1.00800000E+00  1.00800000E+00
  0.00000000E+00  1.60000000E+01  1.00800000E+00  1.00800000E+00  0.00000000E+00
  1.60000000E+01  1.00800000E+00  1.00800000E+00  0.00000000E+00  1.60000000E+01
  1.00800000E+00  1.00800000E+00  0.00000000E+00  1.60000000E+01  1.00800000E+00
  1.00800000E+00  0.00000000E+00  1.60000000E+01  1.00800000E+00  1.00800000E+00
  0.00000000E+00  1.60000000E+01  1.00800000E+00  1.00800000E+00  0.00000000E+00
  1.60000000E+01  1.00800000E+00  1.00800000E+00  0.00000000E+00  1.60000000E+01
  1.00800000E+00  1.00800000E+00  0.00000000E+00  1.60000000E+01  1.00800000E+00
  1.00800000E+00  0.00000000E+00  1.60000000E+01  1.00800000E+00  1.00800000E+00
  0.00000000E+00  1.60000000E+01  1.00800000E+00  1.00800000E+00  0.00000000E+00
  1.60000000E+01  1.00800000E+00  1.00800000E+00  0.00000000E+00  1.60000000E+01
  1.00800000E+00  1.00800000E+00  0.00000000E+00  1.60000000E+01  1.00800000E+00
  1.00800000E+00  0.00000000E+00  1.60000000E+01  1.00800000E+00  1.00800000E+00
  0.00000000E+00  1.60000000E+01  1.00800000E+00  1.00800000E+00  0.00000000E+00
  1.60000000E+01  1.00800000E+00  1.00800000E+00  0.00000000E+00  1.60000000E+01
  1.00800000E+00  1.00800000E+00  0.00000000E+00  1.60000000E+01  1.00800000E+00
  1.00800000E+00  0.00000000E+00  1.60000000E+01  1.00800000E+00  1.00800000E+00
  0.00000000E+00  1.60000000E+01  1.00800000E+00  1.00800000E+00  0.00000000E+00
  1.60000000E+01  1.00800000E+00  1.00800000E+00  0.00000000E+00  1.60000000E+01
  1.00800000E+00  1.00800000E+00  0.00000000E+00  1.60000000E+01  1.00800000E+00
  1.00800000E+00  0.00000000E+00  1.60000000E+01  1.00800000E+00  1.00800000E+00
  0.00000000E+00  1.60000000E+01  1.00800000E+00  1.00800000E+00  0.00000000E+00
  1.60000000E+01  1.00800000E+00  1.00800000E+00  0.00000000E+00  1.60000000E+01
  1.00800000E+00  1.00800000E+00  0.00000000E+00  1.60000000E+01  1.00800000E+00
  1.00800000E+00  0.00000000E+00  1.60000000E+01  1.00800000E+00  1.00800000E+00
  0.00000000E+00  1.60000000E+01  1.00800000E+00  1.00800000E+00  0.00000000E+00
  1.60000000E+01  1.00800000E+00  1.00800000E+00  0.00000000E+00  1.60000000E+01
  1.00800000E+00  1.00800000E+00  0.00000000E+00  1.60000000E+01  1.00800000E+00
  1.00800000E+00  0.00000000E+00  1.60000000E+01  1.00800000E+00  1.00800000E+00
  0.00000000E+00  1.60000000E+01  1.00800000E+00  1.00800000E+00  0.00000000E+00
  1.60000000E+01  1.00800000E+00  1.00800000E+00  0.00000000E+00  1.60000000E+01
  1.00800000E+00  1.00800000E+00  0.00000000E+00  1.60000000E+01  1.00800000E+00
  1.00800000E+00  0.00000000E+00  1.60000000E+01  1.00800000E+00  1.00800000E+00
  0.00000000E+00  1.60000000E+01  1.00800000E+00  1.00800000E+00  0.00000000E+00
  1.60000000E+01  1.00800000E+00  1.00800000E+00  0.00000000E+00  1.60000000E+01
  1.00800000E+00  1.00800000E+00  0.00000000E+00  1.60000000E+01  1.00800000E+00
  1.00800000E+00  0.00000000E+00  1.60000000E+01  1.00800000E+00  1.00800000E+00
  0.00000000E+00  1.60000000E+01  1.00800000E+00  1.00800000E+00  0.00000000E+00
  1.60000000E+01  1.00800000E+00  1.00800000E+00  0.00000000E+00  1.60000000E+01
  1.00800000E+00  1.00800000E+00  0.00000000E+00  1.60000000E+01  1.00800000E+00
  1.00800000E+00  0.00000000E+00  1.60000000E+01  1.00800000E+00  1.00800000E+00
  0.00000000E+00  1.60000000E+01  1.00800000E+00  1.00800000E+00  0.00000000E+00
  1.60000000E+01  1.00800000E+00  1.00800000E+00  0.00000000E+00  1.60000000E+01
  1.00800000E+00  1.00800000E+00  0.00000000E+00  1.60000000E+01  1.00800000E+00
  1.00800000E+00  0.00000000E+00  1.60000000E+01  1.00800000E+00  1.00800000E+00
  0.00000000E+00  1.60000000E+01  1.00800000E+00  1.00800000E+00  0.00000000E+00
  1.60000000E+01  1.00800000E+00  1.00800000E+00  0.00000000E+00  1.60000000E+01
  1.00800000E+00  1.00800000E+00  0.00000000E+00  1.60000000E+01  1.00800000E+00
  1.00800000E+00  0.00000000E+00  1.60000000E+01  1.00800000E+00  1.00800000E+00
  0.00000000E+00  1.60000000E+01  1.00800000E+00  1.00800000E+00  0.00000000E+00
  1.60000000E+01  1.00800000E+00  1.00800000E+00  0.00000000E+00  1.60000000E+01
  1.00800000E+00  1.00800000E+00  0.00000000E+00  1.60000000E+01  1.00800000E+00
  1.00800000E+00  0.00000000E+00  1.60000000E+01  1.00800000E+00  1.00800000E+00
  0.00000000E+00  1.60000000E+01  1.00800000E+00  1.00800000E+00  0.00000000E+00
  1.60000000E+01  1.00800000E+00  1.00800000E+00  0.00000000E+00  1.60000000E+01
  1.00800000E+00  1.00800000E+00  0.00000000E+00  1.60000000E+01  1.00800000E+00
  1.00800000E+00  0.00000000E+00  1.60000000E+01  1.00800000E+00  1.00800000E+00
  0.00000000E+00  1.60000000E+01  1.00800000E+00  1.00800000E+00  0.00000000E+00
  1.60000000E+01  1.00800000E+00  1.00800000E+00  0.00000000E+00  1.60000000E+01
  1.00800000E+00  1.00800000E+00  0.00000000E+00  1.60000000E+01  1.00800000E+00
  1.00800000E+00  0.00000000E+00  1.60000000E+01  1.00800000E+00  1.00800000E+00
  0.00000000E+00  1.60000000E+01  1.00800000E+00  1.00800000E+00  0.00000000E+00
  1.60000000E+01  1.00800000E+00  1.00800000E+00  0.00000000E+00  1.60000000E+01
  1.00800000E+00  1.00800000E+00  0.00000000E+00  1.60000000E+01  1.00800000E+00
  1.00800000E+00  0.00000000E+00  1.60000000E+01  1.00800000E+00  1.00800000E+00
  0.00000000E+00  1.60000000E+01  1.00800000E+00  1.00800000E+00  0.00000000E+00
  1.60000000E+01  1.00800000E+00  1.00800000E+00  0.00000000E+00  1.60000000E+01
  1.00800000E+00  1.00800000E+00  0.00000000E+00  1.60000000E+01  1.00800000E+00
  1.00800000E+00  0.00000000E+00  1.60000000E+01  1.00800000E+00  1.00800000E+00
  0.00000000E+00  1.60000000E+01  1.00800000E+00  1.00800000E+00  0.00000000E+00
  1.60000000E+01  1.00800000E+00  1.00800000E+00  0.00000000E+00  1.60000000E+01
  1.00800000E+00  1.00800000E+00  0.00000000E+00  1.60000000E+01  1.00800000E+00
  1.00800000E+00  0.00000000E+00  1.60000000E+01  1.00800000E+00  1.00800000E+00
  0.00000000E+00  1.60000000E+01  1.00800000E+00  1.00800000E+00  0.00000000E+00
  1.60000000E+01  1.00800000E+00  1.00800000E+00  0.00000000E+00  1.60000000E+01
  1.00800000E+00  1.00800000E+00  0.00000000E+00  1.60000000E+01  1.00800000E+00
  1.00800000E+00  0.00000000E+00  1.60000000E+01  1.00800000E+00  1.00800000E+00
  0.00000000E+00  1.60000000E+01  1.00800000E+00  1.00800000E+00  0.00000000E+00
  1.60000000E+01  1.00800000E+00  1.00800000E+00  0.00000000E+00  1.60000000E+01
  1.00800000E+00  1.00800000E+00  0.00000000E+00  1.60000000E+01  1.00800000E+00
  1.00800000E+00  0.00000000E+00  1.60000000E+01  1.00800000E+00  1.00800000E+00
  0.00000000E+00  1.60000000E+01  1.00800000E+00  1.00800000E+00  0.00000000E+00
  1.60000000E+01  1.00800000E+00  1.00800000E+00  0.00000000E+00  1.60000000E+01
  1.00800000E+00  1.00800000E+00  0.00000000E+00  1.60000000E+01  1.00800000E+00
  1.00800000E+00  0.00000000E+00  1.60000000E+01  1.00800000E+00  1.00800000E+00
  0.00000000E+00  1.60000000E+01  1.00800000E+00  1.00800000E+00  0.00000000E+00
  1.60000000E+01  1.00800000E+00  1.00800000E+00  0.00000000E+00  1.60000000E+01
  1.00800000E+00  1.00800000E+00  0.00000000E+00  1.60000000E+01  1.00800000E+00
  1.00800000E+00  0.00000000E+00  1.60000000E+01  1.00800000E+00  1.00800000E+00
  0.00000000E+00  1.60000000E+01  1.00800000E+00  1.00800000E+00  0.00000000E+00
  1.60000000E+01  1.00800000E+00  1.00800000E+00  0.00000000E+00  1.60000000E+01
  1.00800000E+00  1.00800000E+00  0.00000000E+00  1.60000000E+01  1.00800000E+00
  1.00800000E+00  0.00000000E+00  1.60000000E+01  1.00800000E+00  1.00800000E+00
  0.00000000E+00  1.60000000E+01  1.00800000E+00  1.00800000E+00  0.00000000E+00
  1.60000000E+01  1.00800000E+00  1.00800000E+00  0.00000000E+00  1.60000000E+01
  1.00800000E+00  1.00800000E+00  0.00000000E+00  1.60000000E+01  1.00800000E+00
  1.00800000E+00  0.00000000E+00  1.60000000E+01  1.00800000E+00  1.00800000E+00
  0.00000000E+00  1.60000000E+01  1.00800000E+00  1.00800000E+00  0.00000000E+00
  1.60000000E+01  1.00800000E+00  1.00800000E+00  0.00000000E+00  1.60000000E+01
  1.00800000E+00  1.00800000E+00  0.00000000E+00  1.60000000E+01  1.00800000E+00
  1.00800000E+00  0.00000000E+00  1.60000000E+01  1.00800000E+00  1.00800000E+00
  0.00000000E+00  1.60000000E+01  1.00800000E+00  1.00800000E+00  0.00000000E+00
  1.60000000E+01  1.00800000E+00  1.00800000E+00  0.00000000E+00  1.60000000E+01
  1.00800000E+00  1.00800000E+00  0.00000000E+00  1.60000000E+01  1.00800000E+00
  1.00800000E+00  0.00000000E+00  1.60000000E+01  1.00800000E+00  1.00800000E+00
  0.00000000E+00  1.60000000E+01  1.00800000E+00  1.00800000E+00  0.00000000E+00
  1.60000000E+01  1.00800000E+00  1.00800000E+00  0.00000000E+00  1.60000000E+01
  1.00800000E+00  1.00800000E+00  0.00000000E+00  1.60000000E+01  1.00800000E+00
  1.00800000E+00  0.00000000E+00  1.60000000E+01  1.00800000E+00  1.00800000E+00
  0.00000000E+00  1.60000000E+01  1.00800000E+00  1.00800000E+00  0.00000000E+00
  1.60000000E+01  1.00800000E+00  1.00800000E+00  0.00000000E+00  1.60000000E+01
  1.00800000E+00  1.00800000E+00  0.00000000E+00  1.60000000E+01  1.00800000E+00
  1.00800000E+00  0.00000000E+00  1.60000000E+01  1.00800000E+00  1.00800000E+00
  0.00000000E+00  1.60000000E+01  1.00800000E+00  1.00800000E+00  0.00000000E+00
  1.60000000E+01  1.00800000E+00  1.00800000E+00  0.00000000E+00  1.60000000E+01
  1.00800000E+00  1.00800000E+00  0.00000000E+00  1.60000000E+01  1.00800000E+00
  1.00800000E+00  0.00000000E+00  1.60000000E+01  1.00800000E+00  1.00800000E+00
  0.00000000E+00  1.60000000E+01  1.00800000E+00  1.00800000E+00  0.00000000E+00
  1.60000000E+01  1.00800000E+00  1.00800000E+00  0.00000000E+00  1.60000000E+01
  1.00800000E+00  1.00800000E+00  0.00000000E+00  1.60000000E+01  1.00800000E+00
  1.00800000E+00  0.00000000E+00  1.60000000E+01  1.00800000E+00  1.00800000E+00
  0.00000000E+00  1.60000000E+01  1.00800000E+00  1.00800000E+00  0.00000000E+00
  1.60000000E+01  1.00800000E+00  1.00800000E+00  0.00000000E+00  1.60000000E+01
  1.00800000E+00  1.00800000E+00  0.00000000E+00  1.60000000E+01  1.00800000E+00
  1.00800000E+00  0.00000000E+00  1.60000000E+01  1.00800000E+00  1.00800000E+00
  0.00000000E+00  1.60000000E+01  1.00800000E+00  1.00800000E+00  0.00000000E+00
  1.60000000E+01  1.00800000E+00  1.00800000E+00  0.00000000E+00  1.60000000E+01
  1.00800000E+00  1.00800000E+00  0.00000000E+00  1.60000000E+01  1.00800000E+00
  1.00800000E+00  0.00000000E+00  1.60000000E+01  1.00800000E+00  1.00800000E+00
  0.00000000E+00  1.60000000E+01  1.00800000E+00  1.00800000E+00  0.00000000E+00
  1.60000000E+01  1.00800000E+00  1.00800000E+00  0.00000000E+00  1.60000000E+01
  1.00800000E+00  1.00800000E+00  0.00000000E+00  1.60000000E+01  1.00800000E+00
  1.00800000E+00  0.00000000E+00  1.60000000E+01  1.00800000E+00  1.00800000E+00
  0.00000000E+00  1.60000000E+01  1.00800000E+00  1.00800000E+00  0.00000000E+00
  1.60000000E+01  1.00800000E+00  1.00800000E+00  0.00000000E+00  1.60000000E+01
  1.00800000E+00  1.00800000E+00  0.00000000E+00  1.60000000E+01  1.00800000E+00
  1.00800000E+00  0.00000000E+00  1.60000000E+01  1.00800000E+00  1.00800000E+00
  0.00000000E+00  1.60000000E+01  1.00800000E+00  1.00800000E+00  0.00000000E+00
  1.60000000E+01  1.00800000E+00  1.00800000E+00  0.00000000E+00  1.60000000E+01
  1.00800000E+00  1.00800000E+00  0.00000000E+00  1.60000000E+01  1.00800000E+00
  1.00800000E+00  0.00000000E+00  1.60000000E+01  1.00800000E+00  1.00800000E+00
  0.00000000E+00  1.60000000E+01  1.00800000E+00  1.00800000E+00  0.00000000E+00
  1.60000000E+01  1.00800000E+00  1.00800000E+00  0.00000000E+00  1.60000000E+01
  1.00800000E+00  1.00800000E+00  0.00000000E+00  1.60000000E+01  1.00800000E+00
  1.00800000E+00  0.00000000E+00  1.60000000E+01  1.00800000E+00  1.00800000E+00
  0.00000000E+00  1.60000000E+01  1.00800000E+00  1.00800000E+00  0.00000000E+00
  1.60000000E+01  1.00800000E+00  1.00800000E+00  0.00000000E+00  1.60000000E+01
  1.00800000E+00  1.00800000E+00  0.00000000E+00  1.60000000E+01  1.00800000E+00
  1.00800000E+00  0.00000000E+00  1.60000000E+01  1.00800000E+00  1.00800000E+00
  0.00000000E+00  1.60000000E+01  1.00800000E+00  1.00800000E+00  0.00000000E+00
  1.60000000E+01  1.00800000E+00  1.00800000E+00  0.00000000E+00  1.60000000E+01
  1.00800000E+00  1.00800000E+00  0.00000000E+00  1.60000000E+01  1.00800000E+00
  1.00800000E+00  0.00000000E+00  1.60000000E+01  1.00800000E+00  1.00800000E+00
  0.00000000E+00  1.60000000E+01  1.00800000E+00  1.00800000E+00  0.00000000E+00
  1.60000000E+01  1.00800000E+00  1.00800000E+00  0.00000000E+00  1.60000000E+01
  1.00800000E+00  1.00800000E+00  0.00000000E+00  1.60000000E+01  1.00800000E+00
  1.00800000E+00  0.00000000E+00  1.60000000E+01  1.00800000E+00  1.00800000E+00
  0.00000000E+00  1.60000000E+01  1.00800000E+00  1.00800000E+00  0.00000000E+00
  1.60000000E+01  1.00800000E+00  1.00800000E+00  0.00000000E+00  1.60000000E+01
  1.00800000E+00  1.00800000E+00  0.00000000E+00  1.60000000E+01  1.00800000E+00
  1.00800000E+00  0.00000000E+00  1.60000000E+01  1.00800000E+00  1.00800000E+00
  0.00000000E+00  1.60000000E+01  1.00800000E+00  1.00800000E+00  0.00000000E+00
  1.60000000E+01  1.00800000E+00  1.00800000E+00  0.00000000E+00  1.60000000E+01
  1.00800000E+00  1.00800000E+00  0.00000000E+00  1.60000000E+01  1.00800000E+00
  1.00800000E+00  0.00000000E+00  1.60000000E+01  1.00800000E+00  1.00800000E+00
  0.00000000E+00  1.60000000E+01  1.00800000E+00  1.00800000E+00  0.00000000E+00
  1.60000000E+01  1.00800000E+00  1.00800000E+00  0.00000000E+00  1.60000000E+01
  1.00800000E+00  1.00800000E+00  0.00000000E+00  1.60000000E+01  1.00800000E+00
  1.00800000E+00  0.00000000E+00  1.60000000E+01  1.00800000E+00  1.00800000E+00
  0.00000000E+00  1.60000000E+01  1.00800000E+00  1.00800000E+00  0.00000000E+00
  1.60000000E+01  1.00800000E+00  1.00800000E+00  0.00000000E+00  1.60000000E+01
  1.00800000E+00  1.00800000E+00  0.00000000E+00  1.60000000E+01  1.00800000E+00
  1.00800000E+00  0.00000000E+00  1.60000000E+01  1.00800000E+00  1.00800000E+00
  0.00000000E+00  1.60000000E+01  1.00800000E+00  1.00800000E+00  0.00000000E+00
  1.60000000E+01  1.00800000E+00  1.00800000E+00  0.00000000E+00  1.60000000E+01
  1.00800000E+00  1.00800000E+00  0.00000000E+00  1.60000000E+01  1.00800000E+00
  1.00800000E+00  0.00000000E+00  1.60000000E+01  1.00800000E+00  1.00800000E+00
  0.00000000E+00  1.60000000E+01  1.00800000E+00  1.00800000E+00  0.00000000E+00
  1.60000000E+01  1.00800000E+00  1.00800000E+00  0.00000000E+00  1.60000000E+01
  1.00800000E+00  1.00800000E+00  0.00000000E+00  1.60000000E+01  1.00800000E+00
  1.00800000E+00  0.00000000E+00  1.60000000E+01  1.00800000E+00  1.00800000E+00
  0.00000000E+00  1.60000000E+01  1.00800000E+00  1.00800000E+00  0.00000000E+00
  1.60000000E+01  1.00800000E+00  1.00800000E+00  0.00000000E+00  1.60000000E+01
  1.00800000E+00  1.00800000E+00  0.00000000E+00  1.60000000E+01  1.00800000E+00
  1.00800000E+00  0.00000000E+00  1.60000000E+01  1.00800000E+00  1.00800000E+00
  0.00000000E+00  1.60000000E+01  1.00800000E+00  1.00800000E+00  0.00000000E+00
  1.60000000E+01  1.00800000E+00  1.00800000E+00  0.00000000E+00  1.60000000E+01
  1.00800000E+00  1.00800000E+00  0.00000000E+00  1.60000000E+01  1.00800000E+00
  1.00800000E+00  0.00000000E+00  1.60000000E+01  1.00800000E+00  1.00800000E+00
  0.00000000E+00  1.60000000E+01  1.00800000E+00  1.00800000E+00  0.00000000E+00
  1.60000000E+01  1.00800000E+00  1.00800000E+00  0.00000000E+00  1.60000000E+01
  1.00800000E+00  1.00800000E+00  0.00000000E+00  1.60000000E+01  1.00800000E+00
  1.00800000E+00  0.00000000E+00  1.60000000E+01  1.00800000E+00  1.00800000E+00
  0.00000000E+00  1.60000000E+01  1.00800000E+00  1.00800000E+00  0.00000000E+00
  1.60000000E+01  1.00800000E+00  1.00800000E+00  0.00000000E+00  1.60000000E+01
  1.00800000E+00  1.00800000E+00  0.00000000E+00  1.60000000E+01  1.00800000E+00
  1.00800000E+00  0.00000000E+00  1.60000000E+01  1.00800000E+00  1.00800000E+00
  0.00000000E+00  1.60000000E+01  1.00800000E+00  1.00800000E+00  0.00000000E+00
  1.60000000E+01  1.00800000E+00  1.00800000E+00  0.00000000E+00  1.60000000E+01
  1.00800000E+00  1.00800000E+00  0.00000000E+00  1.60000000E+01  1.00800000E+00
  1.00800000E+00  0.00000000E+00  1.60000000E+01  1.00800000E+00  1.00800000E+00
  0.00000000E+00  1.60000000E+01  1.00800000E+00  1.00800000E+00  0.00000000E+00
  1.60000000E+01  1.00800000E+00  1.00800000E+00  0.00000000E+00  1.60000000E+01
  1.00800000E+00  1.00800000E+00  0.00000000E+00  1.60000000E+01  1.00800000E+00
  1.00800000E+00  0.00000000E+00  1.60000000E+01  1.00800000E+00  1.00800000E+00
  0.00000000E+00  1.60000000E+01  1.00800000E+00  1.00800000E+00  0.00000000E+00
  1.60000000E+01  1.00800000E+00  1.00800000E+00  0.00000000E+00  1.60000000E+01
  1.00800000E+00  1.00800000E+00  0.00000000E+00  1.60000000E+01  1.00800000E+00
  1.00800000E+00  0.00000000E+00  1.60000000E+01  1.00800000E+00  1.00800000E+00
  0.00000000E+00  1.60000000E+01  1.00800000E+00  1.00800000E+00  0.00000000E+00
  1.60000000E+01  1.00800000E+00  1.00800000E+00  0.00000000E+00  1.60000000E+01
  1.00800000E+00  1.00800000E+00  0.00000000E+00  1.60000000E+01  1.00800000E+00
  1.00800000E+00  0.00000000E+00  1.60000000E+01  1.00800000E+00  1.00800000E+00
  0.00000000E+00  1.60000000E+01  1.00800000E+00  1.00800000E+00  0.00000000E+00
  1.60000000E+01  1.00800000E+00  1.00800000E+00  0.00000000E+00  1.60000000E+01
  1.00800000E+00  1.00800000E+00  0.00000000E+00  1.60000000E+01  1.00800000E+00
  1.00800000E+00  0.00000000E+00  1.60000000E+01  1.00800000E+00  1.00800000E+00
  0.00000000E+00  1.60000000E+01  1.00800000E+00  1.00800000E+00  0.00000000E+00
  1.60000000E+01  1.00800000E+00  1.00800000E+00  0.00000000E+00  1.60000000E+01
  1.00800000E+00  1.00800000E+00  0.00000000E+00  1.60000000E+01  1.00800000E+00
  1.00800000E+00  0.00000000E+00  1.60000000E+01  1.00800000E+00  1.00800000E+00
  0.00000000E+00  1.60000000E+01  1.00800000E+00  1.00800000E+00  0.00000000E+00
  1.60000000E+01  1.00800000E+00  1.00800000E+00  0.00000000E+00  1.60000000E+01
  1.00800000E+00  1.00800000E+00  0.00000000E+00  1.60000000E+01  1.00800000E+00
  1.00800000E+00  0.00000000E+00  1.60000000E+01  1.00800000E+00  1.00800000E+00
  0.00000000E+00  1.60000000E+01  1.00800000E+00  1.00800000E+00  0.00000000E+00
  1.60000000E+01  1.00800000E+00  1.00800000E+00  0.00000000E+00  1.60000000E+01
  1.00800000E+00  1.00800000E+00  0.00000000E+00  1.60000000E+01  1.00800000E+00
  1.00800000E+00  0.00000000E+00  1.60000000E+01  1.00800000E+00  1.00800000E+00
  0.00000000E+00  1.60000000E+01  1.00800000E+00  1.00800000E+00  0.00000000E+00
  1.60000000E+01  1.00800000E+00  1.00800000E+00  0.00000000E+00  1.60000000E+01
  1.00800000E+00  1.00800000E+00  0.00000000E+00  1.60000000E+01  1.00800000E+00
  1.00800000E+00  0.00000000E+00  1.60000000E+01  1.00800000E+00  1.00800000E+00
  0.00000000E+00  1.60000000E+01  1.00800000E+00  1.00800000E+00  0.00000000E+00
  1.60000000E+01  1.00800000E+00  1.00800000E+00  0.00000000E+00  1.60000000E+01
  1.00800000E+00  1.00800000E+00  0.00000000E+00  1.60000000E+01  1.00800000E+00
  1.00800000E+00  0.00000000E+00  1.60000000E+01  1.00800000E+00  1.00800000E+00
  0.00000000E+00  1.60000000E+01  1.00800000E+00  1.00800000E+00  0.00000000E+00
  1.60000000E+01  1.00800000E+00  1.00800000E+00  0.00000000E+00  1.60000000E+01
  1.00800000E+00  1.00800000E+00  0.00000000E+00  1.60000000E+01  1.00800000E+00
  1.00800000E+00  0.00000000E+00  1.60000000E+01  1.00800000E+00  1.00800000E+00
  0.00000000E+00  1.60000000E+01  1.00800000E+00  1.00800000E+00  0.00000000E+00
  1.60000000E+01  1.00800000E+00  1.00800000E+00  0.00000000E+00  1.60000000E+01
  1.00800000E+00  1.00800000E+00  0.00000000E+00  1.60000000E+01  1.00800000E+00
  1.00800000E+00  0.00000000E+00  1.60000000E+01  1.00800000E+00  1.00800000E+00
  0.00000000E+00  1.60000000E+01  1.00800000E+00  1.00800000E+00  0.00000000E+00
  1.60000000E+01  1.00800000E+00  1.00800000E+00  0.00000000E+00  1.60000000E+01
  1.00800000E+00  1.00800000E+00  0.00000000E+00  1.60000000E+01  1.00800000E+00
  1.00800000E+00  0.00000000E+00  1.60000000E+01  1.00800000E+00  1.00800000E+00
  0.00000000E+00  1.60000000E+01  1.00800000E+00  1.00800000E+00  0.00000000E+00
  1.60000000E+01  1.00800000E+00  1.00800000E+00  0.00000000E+00  1.60000000E+01
  1.00800000E+00  1.00800000E+00  0.00000000E+00  1.60000000E+01  1.00800000E+00
  1.00800000E+00  0.00000000E+00  1.60000000E+01  1.00800000E+00  1.00800000E+00
  0.00000000E+00  1.60000000E+01  1.00800000E+00  1.00800000E+00  0.00000000E+00
  1.60000000E+01  1.00800000E+00  1.00800000E+00  0.00000000E+00  1.60000000E+01
  1.00800000E+00  1.00800000E+00  0.00000000E+00  1.60000000E+01  1.00800000E+00
  1.00800000E+00  0.00000000E+00  1.60000000E+01  1.00800000E+00  1.00800000E+00
  0.00000000E+00  1.60000000E+01  1.00800000E+00  1.00800000E+00  0.00000000E+00
  1.60000000E+01  1.00800000E+00  1.00800000E+00  0.00000000E+00  1.60000000E+01
  1.00800000E+00  1.00800000E+00  0.00000000E+00  1.60000000E+01  1.00800000E+00
  1.00800000E+00  0.00000000E+00  1.60000000E+01  1.00800000E+00  1.00800000E+00
  0.00000000E+00  1.60000000E+01  1.00800000E+00  1.00800000E+00  0.00000000E+00
  1.60000000E+01  1.00800000E+00  1.00800000E+00  0.00000000E+00  1.60000000E+01
  1.00800000E+00  1.00800000E+00  0.00000000E+00  1.60000000E+01  1.00800000E+00
  1.00800000E+00  0.00000000E+00  1.60000000E+01  1.00800000E+00  1.00800000E+00
  0.00000000E+00  1.60000000E+01  1.00800000E+00  1.00800000E+00  0.00000000E+00
  1.60000000E+01  1.00800000E+00  1.00800000E+00  0.00000000E+00  1.60000000E+01
  1.00800000E+00  1.00800000E+00  0.00000000E+00  1.60000000E+01  1.00800000E+00
  1.00800000E+00  0.00000000E+00  1.60000000E+01  1.00800000E+00  1.00800000E+00
  0.00000000E+00  1.60000000E+01  1.00800000E+00  1.00800000E+00  0.00000000E+00
  1.60000000E+01  1.00800000E+00  1.00800000E+00  0.00000000E+00  1.60000000E+01
  1.00800000E+00  1.00800000E+00  0.00000000E+00  1.60000000E+01  1.00800000E+00
  1.00800000E+00  0.00000000E+00  1.60000000E+01  1.00800000E+00  1.00800000E+00
  0.00000000E+00  1.60000000E+01  1.00800000E+00  1.00800000E+00  0.00000000E+00
  1.60000000E+01  1.00800000E+00  1.00800000E+00  0.00000000E+00  1.60000000E+01
  1.00800000E+00  1.00800000E+00  0.00000000E+00  1.60000000E+01  1.00800000E+00
  1.00800000E+00  0.00000000E+00  1.60000000E+01  1.00800000E+00  1.00800000E+00
  0.00000000E+00  1.60000000E+01  1.00800000E+00  1.00800000E+00  0.00000000E+00
  1.60000000E+01  1.00800000E+00  1.00800000E+00  0.00000000E+00  1.60000000E+01
  1.00800000E+00  1.00800000E+00  0.00000000E+00  1.60000000E+01  1.00800000E+00
  1.00800000E+00  0.00000000E+00  1.60000000E+01  1.00800000E+00  1.00800000E+00
  0.00000000E+00  1.60000000E+01  1.00800000E+00  1.00800000E+00  0.00000000E+00
  1.60000000E+01  1.00800000E+00  1.00800000E+00  0.00000000E+00  1.60000000E+01
  1.00800000E+00  1.00800000E+00  0.00000000E+00  1.60000000E+01  1.00800000E+00
  1.00800000E+00  0.00000000E+00  1.60000000E+01  1.00800000E+00  1.00800000E+00
  0.00000000E+00  1.60000000E+01  1.00800000E+00  1.00800000E+00  0.00000000E+00
  1.60000000E+01  1.00800000E+00  1.00800000E+00  0.00000000E+00  1.60000000E+01
  1.00800000E+00  1.00800000E+00  0.00000000E+00  1.60000000E+01  1.00800000E+00
  1.00800000E+00  0.00000000E+00  1.60000000E+01  1.00800000E+00  1.00800000E+00
  0.00000000E+00  1.60000000E+01  1.00800000E+00  1.00800000E+00  0.00000000E+00
  1.60000000E+01  1.00800000E+00  1.00800000E+00  0.00000000E+00  1.60000000E+01
  1.00800000E+00  1.00800000E+00  0.00000000E+00  1.60000000E+01  1.00800000E+00
  1.00800000E+00  0.00000000E+00  1.60000000E+01  1.00800000E+00  1.00800000E+00
  0.00000000E+00  1.60000000E+01  1.00800000E+00  1.00800000E+00  0.00000000E+00
  1.60000000E+01  1.00800000E+00  1.00800000E+00  0.00000000E+00  1.60000000E+01
  1.00800000E+00  1.00800000E+00  0.00000000E+00  1.60000000E+01  1.00800000E+00
  1.00800000E+00  0.00000000E+00  1.60000000E+01  1.00800000E+00  1.00800000E+00
  0.00000000E+00  1.60000000E+01  1.00800000E+00  1.00800000E+00  0.00000000E+00
  1.60000000E+01  1.00800000E+00  1.00800000E+00  0.00000000E+00  1.60000000E+01
  1.00800000E+00  1.00800000E+00  0.00000000E+00  1.60000000E+01  1.00800000E+00
  1.00800000E+00  0.00000000E+00  1.60000000E+01  1.00800000E+00  1.00800000E+00
  0.00000000E+00  1.60000000E+01  1.00800000E+00  1.00800000E+00  0.00000000E+00
  1.60000000E+01  1.00800000E+00  1.00800000E+00  0.00000000E+00  1.60000000E+01
  1.00800000E+00  1.00800000E+00  0.00000000E+00  1.60000000E+01  1.00800000E+00
  1.00800000E+00  0.00000000E+00  1.60000000E+01  1.00800000E+00  1.00800000E+00
  0.00000000E+00  1.60000000E+01  1.00800000E+00  1.00800000E+00  0.00000000E+00
  1.60000000E+01  1.00800000E+00  1.00800000E+00  0.00000000E+00  1.60000000E+01
  1.00800000E+00  1.00800000E+00  0.00000000E+00  1.60000000E+01  1.00800000E+00
  1.00800000E+00  0.00000000E+00  1.60000000E+01  1.00800000E+00  1.00800000E+00
  0.00000000E+00  1.60000000E+01  1.00800000E+00  1.00800000E+00  0.00000000E+00
  1.60000000E+01  1.00800000E+00  1.00800000E+00  0.00000000E+00  1.60000000E+01
  1.00800000E+00  1.00800000E+00  0.00000000E+00  1.60000000E+01  1.00800000E+00
  1.00800000E+00  0.00000000E+00  1.60000000E+01  1.00800000E+00  1.00800000E+00
  0.00000000E+00  1.60000000E+01  1.00800000E+00  1.00800000E+00  0.00000000E+00
  1.60000000E+01  1.00800000E+00  1.00800000E+00  0.00000000E+00  1.60000000E+01
  1.00800000E+00  1.00800000E+00  0.00000000E+00  1.60000000E+01  1.00800000E+00
  1.00800000E+00  0.00000000E+00  1.60000000E+01  1.00800000E+00  1.00800000E+00
  0.00000000E+00  1.60000000E+01  1.00800000E+00  1.00800000E+00  0.00000000E+00
  1.60000000E+01  1.00800000E+00  1.00800000E+00  0.00000000E+00  1.60000000E+01
  1.00800000E+00  1.00800000E+00  0.00000000E+00  1.60000000E+01  1.00800000E+00
  1.00800000E+00  0.00000000E+00  1.60000000E+01  1.00800000E+00  1.00800000E+00
  0.00000000E+00  1.60000000E+01  1.00800000E+00  1.00800000E+00  0.00000000E+00
  1.60000000E+01  1.00800000E+00  1.00800000E+00  0.00000000E+00  1.60000000E+01
  1.00800000E+00  1.00800000E+00  0.00000000E+00  1.60000000E+01  1.00800000E+00
  1.00800000E+00  0.00000000E+00  1.60000000E+01  1.00800000E+00  1.00800000E+00
  0.00000000E+00  1.60000000E+01  1.00800000E+00  1.00800000E+00  0.00000000E+00
  1.60000000E+01  1.00800000E+00  1.00800000E+00  0.00000000E+00  1.60000000E+01
  1.00800000E+00  1.00800000E+00  0.00000000E+00  1.60000000E+01  1.00800000E+00
  1.00800000E+00  0.00000000E+00  1.60000000E+01  1.00800000E+00  1.00800000E+00
  0.00000000E+00  1.60000000E+01  1.00800000E+00  1.00800000E+00  0.00000000E+00
  1.60000000E+01  1.00800000E+00  1.00800000E+00  0.00000000E+00  1.60000000E+01
  1.00800000E+00  1.00800000E+00  0.00000000E+00  1.60000000E+01  1.00800000E+00
  1.00800000E+00  0.00000000E+00  1.60000000E+01  1.00800000E+00  1.00800000E+00
  0.00000000E+00  1.60000000E+01  1.00800000E+00  1.00800000E+00  0.00000000E+00
  1.60000000E+01  1.00800000E+00  1.00800000E+00  0.00000000E+00  1.60000000E+01
  1.00800000E+00  1.00800000E+00  0.00000000E+00  1.60000000E+01  1.00800000E+00
  1.00800000E+00  0.00000000E+00  1.60000000E+01  1.00800000E+00  1.00800000E+00
  0.00000000E+00  1.60000000E+01  1.00800000E+00  1.00800000E+00  0.00000000E+00
  1.60000000E+01  1.00800000E+00  1.00800000E+00  0.00000000E+00  1.60000000E+01
  1.00800000E+00  1.00800000E+00  0.00000000E+00  1.60000000E+01  1.00800000E+00
  1.00800000E+00  0.00000000E+00  1.60000000E+01  1.00800000E+00  1.00800000E+00
  0.00000000E+00  1.60000000E+01  1.00800000E+00  1.00800000E+00  0.00000000E+00
  1.60000000E+01  1.00800000E+00  1.00800000E+00  0.00000000E+00  1.60000000E+01
  1.00800000E+00  1.00800000E+00  0.00000000E+00  1.60000000E+01  1.00800000E+00
  1.00800000E+00  0.00000000E+00  1.60000000E+01  1.00800000E+00  1.00800000E+00
  0.00000000E+00  1.60000000E+01  1.00800000E+00  1.00800000E+00  0.00000000E+00
  1.60000000E+01  1.00800000E+00  1.00800000E+00  0.00000000E+00  1.60000000E+01
  1.00800000E+00  1.00800000E+00  0.00000000E+00  1.60000000E+01  1.00800000E+00
  1.00800000E+00  0.00000000E+00  1.60000000E+01  1.00800000E+00  1.00800000E+00
  0.00000000E+00  1.60000000E+01  1.00800000E+00  1.00800000E+00  0.00000000E+00
  1.60000000E+01  1.00800000E+00  1.00800000E+00  0.00000000E+00  1.60000000E+01
  1.00800000E+00  1.00800000E+00  0.00000000E+00  1.60000000E+01  1.00800000E+00
  1.00800000E+00  0.00000000E+00  1.60000000E+01  1.00800000E+00  1.00800000E+00
  0.00000000E+00  1.60000000E+01  1.00800000E+00  1.00800000E+00  0.00000000E+00
  1.60000000E+01  1.00800000E+00  1.00800000E+00  0.00000000E+00  1.60000000E+01
  1.00800000E+00  1.00800000E+00  0.00000000E+00  1.60000000E+01  1.00800000E+00
  1.00800000E+00  0.00000000E+00  1.60000000E+01  1.00800000E+00  1.00800000E+00
  0.00000000E+00  1.60000000E+01  1.00800000E+00  1.00800000E+00  0.00000000E+00
  1.60000000E+01  1.00800000E+00  1.00800000E+00  0.00000000E+00  1.60000000E+01
  1.00800000E+00  1.00800000E+00  0.00000000E+00  1.60000000E+01  1.00800000E+00
  1.00800000E+00  0.00000000E+00  1.60000000E+01  1.00800000E+00  1.00800000E+00
  0.00000000E+00  1.60000000E+01  1.00800000E+00  1.00800000E+00  0.00000000E+00
  1.60000000E+01  1.00800000E+00  1.00800000E+00  0.00000000E+00  1.60000000E+01
  1.00800000E+00  1.00800000E+00  0.00000000E+00  1.60000000E+01  1.00800000E+00
  1.00800000E+00  0.00000000E+00  1.60000000E+01  1.00800000E+00  1.00800000E+00
  0.00000000E+00  1.60000000E+01  1.00800000E+00  1.00800000E+00  0.00000000E+00
  1.60000000E+01  1.00800000E+00  1.00800000E+00  0.00000000E+00  1.60000000E+01
  1.00800000E+00  1.00800000E+00  0.00000000E+00  1.60000000E+01  1.00800000E+00
  1.00800000E+00  0.00000000E+00  1.60000000E+01  1.00800000E+00  1.00800000E+00
  0.00000000E+00  1.60000000E+01  1.00800000E+00  1.00800000E+00  0.00000000E+00
  1.60000000E+01  1.00800000E+00  1.00800000E+00  0.00000000E+00  1.60000000E+01
  1.00800000E+00  1.00800000E+00  0.00000000E+00  1.60000000E+01  1.00800000E+00
  1.00800000E+00  0.00000000E+00  1.60000000E+01  1.00800000E+00  1.00800000E+00
  0.00000000E+00  1.60000000E+01  1.00800000E+00  1.00800000E+00  0.00000000E+00
  1.60000000E+01  1.00800000E+00  1.00800000E+00  0.00000000E+00  1.60000000E+01
  1.00800000E+00  1.00800000E+00  0.00000000E+00  1.60000000E+01  1.00800000E+00
  1.00800000E+00  0.00000000E+00  1.60000000E+01  1.00800000E+00  1.00800000E+00
  0.00000000E+00  1.60000000E+01  1.00800000E+00  1.00800000E+00  0.00000000E+00
  1.60000000E+01  1.00800000E+00  1.00800000E+00  0.00000000E+00  1.60000000E+01
  1.00800000E+00  1.00800000E+00  0.00000000E+00  1.60000000E+01  1.00800000E+00
  1.00800000E+00  0.00000000E+00  1.60000000E+01  1.00800000E+00  1.00800000E+00
  0.00000000E+00  1.60000000E+01  1.00800000E+00  1.00800000E+00  0.00000000E+00
  1.60000000E+01  1.00800000E+00  1.00800000E+00  0.00000000E+00  1.60000000E+01
  1.00800000E+00  1.00800000E+00  0.00000000E+00  1.60000000E+01  1.00800000E+00
  1.00800000E+00  0.00000000E+00  1.60000000E+01  1.00800000E+00  1.00800000E+00
  0.00000000E+00  1.60000000E+01  1.00800000E+00  1.00800000E+00  0.00000000E+00
  1.60000000E+01  1.00800000E+00  1.00800000E+00  0.00000000E+00  1.60000000E+01
  1.00800000E+00  1.00800000E+00  0.00000000E+00  1.60000000E+01  1.00800000E+00
  1.00800000E+00  0.00000000E+00  1.60000000E+01  1.00800000E+00  1.00800000E+00
  0.00000000E+00  1.60000000E+01  1.00800000E+00  1.00800000E+00  0.00000000E+00
  1.60000000E+01  1.00800000E+00  1.00800000E+00  0.00000000E+00  1.60000000E+01
  1.00800000E+00  1.00800000E+00  0.00000000E+00  1.60000000E+01  1.00800000E+00
  1.00800000E+00  0.00000000E+00  1.60000000E+01  1.00800000E+00  1.00800000E+00
  0.00000000E+00  1.60000000E+01  1.00800000E+00  1.00800000E+00  0.00000000E+00
  1.60000000E+01  1.00800000E+00  1.00800000E+00  0.00000000E+00  1.60000000E+01
  1.00800000E+00  1.00800000E+00  0.00000000E+00  1.60000000E+01  1.00800000E+00
  1.00800000E+00  0.00000000E+00  1.60000000E+01  1.00800000E+00  1.00800000E+00
  0.00000000E+00  1.60000000E+01  1.00800000E+00  1.00800000E+00  0.00000000E+00
  1.60000000E+01  1.00800000E+00  1.00800000E+00  0.00000000E+00  1.60000000E+01
  1.00800000E+00  1.00800000E+00  0.00000000E+00  1.60000000E+01  1.00800000E+00
  1.00800000E+00  0.00000000E+00  1.60000000E+01  1.00800000E+00  1.00800000E+00
  0.00000000E+00  1.60000000E+01  1.00800000E+00  1.00800000E+00  0.00000000E+00
  1.60000000E+01  1.00800000E+00  1.00800000E+00  0.00000000E+00  1.60000000E+01
  1.00800000E+00  1.00800000E+00  0.00000000E+00  1.60000000E+01  1.00800000E+00
  1.00800000E+00  0.00000000E+00  1.60000000E+01  1.00800000E+00  1.00800000E+00
  0.00000000E+00  1.60000000E+01  1.00800000E+00  1.00800000E+00  0.00000000E+00
  1.60000000E+01  1.00800000E+00  1.00800000E+00  0.00000000E+00  1.60000000E+01
  1.00800000E+00  1.00800000E+00  0.00000000E+00  1.60000000E+01  1.00800000E+00
  1.00800000E+00  0.00000000E+00  1.60000000E+01  1.00800000E+00  1.00800000E+00
  0.00000000E+00  1.60000000E+01  1.00800000E+00  1.00800000E+00  0.00000000E+00
  1.60000000E+01  1.00800000E+00  1.00800000E+00  0.00000000E+00  1.60000000E+01
  1.00800000E+00  1.00800000E+00  0.00000000E+00  1.60000000E+01  1.00800000E+00
  1.00800000E+00  0.00000000E+00  1.60000000E+01  1.00800000E+00  1.00800000E+00
  0.00000000E+00  1.60000000E+01  1.00800000E+00  1.00800000E+00  0.00000000E+00
  1.60000000E+01  1.00800000E+00  1.00800000E+00  0.00000000E+00  1.60000000E+01
  1.00800000E+00  1.00800000E+00  0.00000000E+00  1.60000000E+01  1.00800000E+00
  1.00800000E+00  0.00000000E+00  1.60000000E+01  1.00800000E+00  1.00800000E+00
  0.00000000E+00  1.60000000E+01  1.00800000E+00  1.00800000E+00  0.00000000E+00
  1.60000000E+01  1.00800000E+00  1.00800000E+00  0.00000000E+00  1.60000000E+01
  1.00800000E+00  1.00800000E+00  0.00000000E+00  1.60000000E+01  1.00800000E+00
  1.00800000E+00  0.00000000E+00  1.60000000E+01  1.00800000E+00  1.00800000E+00
  0.00000000E+00  1.60000000E+01  1.00800000E+00  1.00800000E+00  0.00000000E+00
  1.60000000E+01  1.00800000E+00  1.00800000E+00  0.00000000E+00  1.60000000E+01
  1.00800000E+00  1.00800000E+00  0.00000000E+00  1.60000000E+01  1.00800000E+00
  1.00800000E+00  0.00000000E+00  1.60000000E+01  1.00800000E+00  1.00800000E+00
  0.00000000E+00  1.60000000E+01  1.00800000E+00  1.00800000E+00  0.00000000E+00
  1.60000000E+01  1.00800000E+00  1.00800000E+00  0.00000000E+00  1.60000000E+01
  1.00800000E+00  1.00800000E+00  0.00000000E+00  1.60000000E+01  1.00800000E+00
  1.00800000E+00  0.00000000E+00  1.60000000E+01  1.00800000E+00  1.00800000E+00
  0.00000000E+00  1.60000000E+01  1.00800000E+00  1.00800000E+00  0.00000000E+00
  1.60000000E+01  1.00800000E+00  1.00800000E+00  0.00000000E+00  1.60000000E+01
  1.00800000E+00  1.00800000E+00  0.00000000E+00  1.60000000E+01  1.00800000E+00
  1.00800000E+00  0.00000000E+00  1.60000000E+01  1.00800000E+00  1.00800000E+00
  0.00000000E+00  1.60000000E+01  1.00800000E+00  1.00800000E+00  0.00000000E+00
  1.60000000E+01  1.00800000E+00  1.00800000E+00  0.00000000E+00  1.60000000E+01
  1.00800000E+00  1.00800000E+00  0.00000000E+00  1.60000000E+01  1.00800000E+00
  1.00800000E+00  0.00000000E+00  1.60000000E+01  1.00800000E+00  1.00800000E+00
  0.00000000E+00  1.60000000E+01  1.00800000E+00  1.00800000E+00  0.00000000E+00
  1.60000000E+01  1.00800000E+00  1.00800000E+00  0.00000000E+00  1.60000000E+01
  1.00800000E+00  1.00800000E+00  0.00000000E+00  1.60000000E+01  1.00800000E+00
  1.00800000E+00  0.00000000E+00  1.60000000E+01  1.00800000E+00  1.00800000E+00
  0.00000000E+00  1.60000000E+01  1.00800000E+00  1.00800000E+00  0.00000000E+00
  1.60000000E+01  1.00800000E+00  1.00800000E+00  0.00000000E+00  1.60000000E+01
  1.00800000E+00  1.00800000E+00  0.00000000E+00  1.60000000E+01  1.00800000E+00
  1.00800000E+00  0.00000000E+00  1.60000000E+01  1.00800000E+00  1.00800000E+00
  0.00000000E+00  1.60000000E+01  1.00800000E+00  1.00800000E+00  0.00000000E+00
  1.60000000E+01  1.00800000E+00  1.00800000E+00  0.00000000E+00  1.60000000E+01
  1.00800000E+00  1.00800000E+00  0.00000000E+00  1.60000000E+01  1.00800000E+00
  1.00800000E+00  0.00000000E+00  1.60000000E+01  1.00800000E+00  1.00800000E+00
  0.00000000E+00  1.60000000E+01  1.00800000E+00  1.00800000E+00  0.00000000E+00
  1.60000000E+01  1.00800000E+00  1.00800000E+00  0.00000000E+00  1.60000000E+01
  1.00800000E+00  1.00800000E+00  0.00000000E+00  1.60000000E+01  1.00800000E+00
  1.00800000E+00  0.00000000E+00  1.60000000E+01  1.00800000E+00  1.00800000E+00
  0.00000000E+00  1.60000000E+01  1.00800000E+00  1.00800000E+00  0.00000000E+00
  1.60000000E+01  1.00800000E+00  1.00800000E+00  0.00000000E+00  1.60000000E+01
  1.00800000E+00  1.00800000E+00  0.00000000E+00  1.60000000E+01  1.00800000E+00
  1.00800000E+00  0.00000000E+00  1.60000000E+01  1.00800000E+00  1.00800000E+00
  0.00000000E+00  1.60000000E+01  1.00800000E+00  1.00800000E+00  0.00000000E+00
  1.60000000E+01  1.00800000E+00  1.00800000E+00  0.00000000E+00  1.60000000E+01
  1.00800000E+00  1.00800000E+00  0.00000000E+00  1.60000000E+01  1.00800000E+00
  1.00800000E+00  0.00000000E+00  1.60000000E+01  1.00800000E+00  1.00800000E+00
  0.00000000E+00  1.60000000E+01  1.00800000E+00  1.00800000E+00  0.00000000E+00
  1.60000000E+01  1.00800000E+00  1.00800000E+00  0.00000000E+00  1.60000000E+01
  1.00800000E+00  1.00800000E+00  0.00000000E+00  1.60000000E+01  1.00800000E+00
  1.00800000E+00  0.00000000E+00  1.60000000E+01  1.00800000E+00  1.00800000E+00
  0.00000000E+00  1.60000000E+01  1.00800000E+00  1.00800000E+00  0.00000000E+00
  1.60000000E+01  1.00800000E+00  1.00800000E+00  0.00000000E+00  1.60000000E+01
  1.00800000E+00  1.00800000E+00  0.00000000E+00  1.60000000E+01  1.00800000E+00
  1.00800000E+00  0.00000000E+00  1.60000000E+01  1.00800000E+00  1.00800000E+00
  0.00000000E+00  1.60000000E+01  1.00800000E+00  1.00800000E+00  0.00000000E+00
  1.60000000E+01  1.00800000E+00  1.00800000E+00  0.00000000E+00  1.60000000E+01
  1.00800000E+00  1.00800000E+00  0.00000000E+00  1.60000000E+01  1.00800000E+00
  1.00800000E+00  0.00000000E+00  1.60000000E+01  1.00800000E+00  1.00800000E+00
  0.00000000E+00  1.60000000E+01  1.00800000E+00  1.00800000E+00  0.00000000E+00
  1.60000000E+01  1.00800000E+00  1.00800000E+00  0.00000000E+00  1.60000000E+01
  1.00800000E+00  1.00800000E+00  0.00000000E+00  1.60000000E+01  1.00800000E+00
  1.00800000E+00  0.00000000E+00  1.60000000E+01  1.00800000E+00  1.00800000E+00
  0.00000000E+00  1.60000000E+01  1.00800000E+00  1.00800000E+00  0.00000000E+00
  1.60000000E+01  1.00800000E+00  1.00800000E+00  0.00000000E+00  1.60000000E+01
  1.00800000E+00  1.00800000E+00  0.00000000E+00  1.60000000E+01  1.00800000E+00
  1.00800000E+00  0.00000000E+00  1.60000000E+01  1.00800000E+00  1.00800000E+00
  0.00000000E+00  1.60000000E+01  1.00800000E+00  1.00800000E+00  0.00000000E+00
  1.60000000E+01  1.00800000E+00  1.00800000E+00  0.00000000E+00  1.60000000E+01
  1.00800000E+00  1.00800000E+00  0.00000000E+00  1.60000000E+01  1.00800000E+00
  1.00800000E+00  0.00000000E+00  1.60000000E+01  1.00800000E+00  1.00800000E+00
  0.00000000E+00  1.60000000E+01  1.00800000E+00  1.00800000E+00  0.00000000E+00
  1.60000000E+01  1.00800000E+00  1.00800000E+00  0.00000000E+00  1.60000000E+01
  1.00800000E+00  1.00800000E+00  0.00000000E+00  1.60000000E+01  1.00800000E+00
  1.00800000E+00  0.00000000E+00  1.60000000E+01  1.00800000E+00  1.00800000E+00
  0.00000000E+00  1.60000000E+01  1.00800000E+00  1.00800000E+00  0.00000000E+00
  1.60000000E+01  1.00800000E+00  1.00800000E+00  0.00000000E+00  1.60000000E+01
  1.00800000E+00  1.00800000E+00  0.00000000E+00  1.60000000E+01  1.00800000E+00
  1.00800000E+00  0.00000000E+00  1.60000000E+01  1.00800000E+00  1.00800000E+00
  0.00000000E+00  1.60000000E+01  1.00800000E+00  1.00800000E+00  0.00000000E+00
  1.60000000E+01  1.00800000E+00  1.00800000E+00  0.00000000E+00  1.60000000E+01
  1.00800000E+00  1.00800000E+00  0.00000000E+00  1.60000000E+01  1.00800000E+00
  1.00800000E+00  0.00000000E+00  1.60000000E+01  1.00800000E+00  1.00800000E+00
  0.00000000E+00  1.60000000E+01  1.00800000E+00  1.00800000E+00  0.00000000E+00
  1.60000000E+01  1.00800000E+00  1.00800000E+00  0.00000000E+00  1.60000000E+01
  1.00800000E+00  1.00800000E+00  0.00000000E+00  1.60000000E+01  1.00800000E+00
  1.00800000E+00  0.00000000E+00  1.60000000E+01  1.00800000E+00  1.00800000E+00
  0.00000000E+00  1.60000000E+01  1.00800000E+00  1.00800000E+00  0.00000000E+00
  1.60000000E+01  1.00800000E+00  1.00800000E+00  0.00000000E+00  1.60000000E+01
  1.00800000E+00  1.00800000E+00  0.00000000E+00  1.60000000E+01  1.00800000E+00
  1.00800000E+00  0.00000000E+00  1.60000000E+01  1.00800000E+00  1.00800000E+00
  0.00000000E+00  1.60000000E+01  1.00800000E+00  1.00800000E+00  0.00000000E+00
  1.60000000E+01  1.00800000E+00  1.00800000E+00  0.00000000E+00  1.60000000E+01
  1.00800000E+00  1.00800000E+00  0.00000000E+00  1.60000000E+01  1.00800000E+00
  1.00800000E+00  0.00000000E+00  1.60000000E+01  1.00800000E+00  1.00800000E+00
  0.00000000E+00  1.60000000E+01  1.00800000E+00  1.00800000E+00  0.00000000E+00
  1.60000000E+01  1.00800000E+00  1.00800000E+00  0.00000000E+00  1.60000000E+01
  1.00800000E+00  1.00800000E+00  0.00000000E+00  1.60000000E+01  1.00800000E+00
  1.00800000E+00  0.00000000E+00  1.60000000E+01  1.00800000E+00  1.00800000E+00
  0.00000000E+00  1.60000000E+01  1.00800000E+00  1.00800000E+00  0.00000000E+00
  1.60000000E+01  1.00800000E+00  1.00800000E+00  0.00000000E+00  1.60000000E+01
  1.00800000E+00  1.00800000E+00  0.00000000E+00  1.60000000E+01  1.00800000E+00
  1.00800000E+00  0.00000000E+00  1.60000000E+01  1.00800000E+00  1.00800000E+00
  0.00000000E+00  1.60000000E+01  1.00800000E+00  1.00800000E+00  0.00000000E+00
  1.60000000E+01  1.00800000E+00  1.00800000E+00  0.00000000E+00  1.60000000E+01
  1.00800000E+00  1.00800000E+00  0.00000000E+00  1.60000000E+01  1.00800000E+00
  1.00800000E+00  0.00000000E+00  1.60000000E+01  1.00800000E+00  1.00800000E+00
  0.00000000E+00  1.60000000E+01  1.00800000E+00  1.00800000E+00  0.00000000E+00
  1.60000000E+01  1.00800000E+00  1.00800000E+00  0.00000000E+00  1.60000000E+01
  1.00800000E+00  1.00800000E+00  0.00000000E+00  1.60000000E+01  1.00800000E+00
  1.00800000E+00  0.00000000E+00  1.60000000E+01  1.00800000E+00  1.00800000E+00
  0.00000000E+00  1.60000000E+01  1.00800000E+00  1.00800000E+00  0.00000000E+00
  1.60000000E+01  1.00800000E+00  1.00800000E+00  0.00000000E+00  1.60000000E+01
  1.00800000E+00  1.00800000E+00  0.00000000E+00  1.60000000E+01  1.00800000E+00
  1.00800000E+00  0.00000000E+00  1.60000000E+01  1.00800000E+00  1.00800000E+00
  0.00000000E+00  1.60000000E+01  1.00800000E+00  1.00800000E+00  0.00000000E+00
  1.60000000E+01  1.00800000E+00  1.00800000E+00  0.00000000E+00  1.60000000E+01
  1.00800000E+00  1.00800000E+00  0.00000000E+00  1.60000000E+01  1.00800000E+00
  1.00800000E+00  0.00000000E+00  1.60000000E+01  1.00800000E+00  1.00800000E+00
  0.00000000E+00  1.60000000E+01  1.00800000E+00  1.00800000E+00  0.00000000E+00
  1.60000000E+01  1.00800000E+00  1.00800000E+00  0.00000000E+00  1.60000000E+01
  1.00800000E+00  1.00800000E+00  0.00000000E+00  1.60000000E+01  1.00800000E+00
  1.00800000E+00  0.00000000E+00  1.60000000E+01  1.00800000E+00  1.00800000E+00
  0.00000000E+00  1.60000000E+01  1.00800000E+00  1.00800000E+00  0.00000000E+00
  1.60000000E+01  1.00800000E+00  1.00800000E+00  0.00000000E+00  1.60000000E+01
  1.00800000E+00  1.00800000E+00  0.00000000E+00  1.60000000E+01  1.00800000E+00
  1.00800000E+00  0.00000000E+00  1.60000000E+01  1.00800000E+00  1.00800000E+00
  0.00000000E+00  1.60000000E+01  1.00800000E+00  1.00800000E+00  0.00000000E+00
  1.60000000E+01  1.00800000E+00  1.00800000E+00  0.00000000E+00  1.60000000E+01
  1.00800000E+00  1.00800000E+00  0.00000000E+00  1.60000000E+01  1.00800000E+00
  1.00800000E+00  0.00000000E+00  1.60000000E+01  1.00800000E+00  1.00800000E+00
  0.00000000E+00  1.60000000E+01  1.00800000E+00  1.00800000E+00  0.00000000E+00
  1.60000000E+01  1.00800000E+00  1.00800000E+00  0.00000000E+00  1.60000000E+01
  1.00800000E+00  1.00800000E+00  0.00000000E+00  1.60000000E+01  1.00800000E+00
  1.00800000E+00  0.00000000E+00  1.60000000E+01  1.00800000E+00  1.00800000E+00
  0.00000000E+00  1.60000000E+01  1.00800000E+00  1.00800000E+00  0.00000000E+00
  1.60000000E+01  1.00800000E+00  1.00800000E+00  0.00000000E+00  1.60000000E+01
  1.00800000E+00  1.00800000E+00  0.00000000E+00  1.60000000E+01  1.00800000E+00
  1.00800000E+00  0.00000000E+00  1.60000000E+01  1.00800000E+00  1.00800000E+00
  0.00000000E+00  1.60000000E+01  1.00800000E+00  1.00800000E+00  0.00000000E+00
  1.60000000E+01  1.00800000E+00  1.00800000E+00  0.00000000E+00  1.60000000E+01
  1.00800000E+00  1.00800000E+00  0.00000000E+00  1.60000000E+01  1.00800000E+00
  1.00800000E+00  0.00000000E+00  1.60000000E+01  1.00800000E+00  1.00800000E+00
  0.00000000E+00  1.60000000E+01  1.00800000E+00  1.00800000E+00  0.00000000E+00
  1.60000000E+01  1.00800000E+00  1.00800000E+00  0.00000000E+00  1.60000000E+01
  1.00800000E+00  1.00800000E+00  0.00000000E+00  1.60000000E+01  1.00800000E+00
  1.00800000E+00  0.00000000E+00  1.60000000E+01  1.00800000E+00  1.00800000E+00
  0.00000000E+00  1.60000000E+01  1.00800000E+00  1.00800000E+00  0.00000000E+00
  1.60000000E+01  1.00800000E+00  1.00800000E+00  0.00000000E+00  1.60000000E+01
  1.00800000E+00  1.00800000E+00  0.00000000E+00  1.60000000E+01  1.00800000E+00
  1.00800000E+00  0.00000000E+00  1.60000000E+01  1.00800000E+00  1.00800000E+00
  0.00000000E+00  1.60000000E+01  1.00800000E+00  1.00800000E+00  0.00000000E+00
  1.60000000E+01  1.00800000E+00  1.00800000E+00  0.00000000E+00  1.60000000E+01
  1.00800000E+00  1.00800000E+00  0.00000000E+00  1.60000000E+01  1.00800000E+00
  1.00800000E+00  0.00000000E+00  1.60000000E+01  1.00800000E+00  1.00800000E+00
  0.00000000E+00  1.60000000E+01  1.00800000E+00  1.00800000E+00  0.00000000E+00
  1.60000000E+01  1.00800000E+00  1.00800000E+00  0.00000000E+00  1.60000000E+01
  1.00800000E+00  1.00800000E+00  0.00000000E+00  1.60000000E+01  1.00800000E+00
  1.00800000E+00  0.00000000E+00  1.60000000E+01  1.00800000E+00  1.00800000E+00
  0.00000000E+00  1.60000000E+01  1.00800000E+00  1.00800000E+00  0.00000000E+00
  1.60000000E+01  1.00800000E+00  1.00800000E+00  0.00000000E+00  1.60000000E+01
  1.00800000E+00  1.00800000E+00  0.00000000E+00  1.60000000E+01  1.00800000E+00
  1.00800000E+00  0.00000000E+00  1.60000000E+01  1.00800000E+00  1.00800000E+00
  0.00000000E+00  1.60000000E+01  1.00800000E+00  1.00800000E+00  0.00000000E+00
  1.60000000E+01  1.00800000E+00  1.00800000E+00  0.00000000E+00  1.60000000E+01
  1.00800000E+00  1.00800000E+00  0.00000000E+00  1.60000000E+01  1.00800000E+00
  1.00800000E+00  0.00000000E+00  1.60000000E+01  1.00800000E+00  1.00800000E+00
  0.00000000E+00  1.60000000E+01  1.00800000E+00  1.00800000E+00  0.00000000E+00
  1.60000000E+01  1.00800000E+00  1.00800000E+00  0.00000000E+00  1.60000000E+01
  1.00800000E+00  1.00800000E+00  0.00000000E+00  1.60000000E+01  1.00800000E+00
  1.00800000E+00  0.00000000E+00  1.60000000E+01  1.00800000E+00  1.00800000E+00
  0.00000000E+00  1.60000000E+01  1.00800000E+00  1.00800000E+00  0.00000000E+00
  1.60000000E+01  1.00800000E+00  1.00800000E+00  0.00000000E+00  1.60000000E+01
  1.00800000E+00  1.00800000E+00  0.00000000E+00  1.60000000E+01  1.00800000E+00
  1.00800000E+00  0.00000000E+00  1.60000000E+01  1.00800000E+00  1.00800000E+00
  0.00000000E+00  1.60000000E+01  1.00800000E+00  1.00800000E+00  0.00000000E+00
  1.60000000E+01  1.00800000E+00  1.00800000E+00  0.00000000E+00  1.60000000E+01
  1.00800000E+00  1.00800000E+00  0.00000000E+00  1.60000000E+01  1.00800000E+00
  1.00800000E+00  0.00000000E+00  1.60000000E+01  1.00800000E+00  1.00800000E+00
  0.00000000E+00  1.60000000E+01  1.00800000E+00  1.00800000E+00  0.00000000E+00
  1.60000000E+01  1.00800000E+00  1.00800000E+00  0.00000000E+00  1.60000000E+01
  1.00800000E+00  1.00800000E+00  0.00000000E+00  1.60000000E+01  1.00800000E+00
  1.00800000E+00  0.00000000E+00  1.60000000E+01  1.00800000E+00  1.00800000E+00
  0.00000000E+00  1.60000000E+01  1.00800000E+00  1.00800000E+00  0.00000000E+00
  1.60000000E+01  1.00800000E+00  1.00800000E+00  0.00000000E+00  1.60000000E+01
  1.00800000E+00  1.00800000E+00  0.00000000E+00  1.60000000E+01  1.00800000E+00
  1.00800000E+00  0.00000000E+00  1.60000000E+01  1.00800000E+00  1.00800000E+00
  0.00000000E+00  1.60000000E+01  1.00800000E+00  1.00800000E+00  0.00000000E+00
  1.60000000E+01  1.00800000E+00  1.00800000E+00  0.00000000E+00  1.60000000E+01
  1.00800000E+00  1.00800000E+00  0.00000000E+00  1.60000000E+01  1.00800000E+00
  1.00800000E+00  0.00000000E+00  1.60000000E+01  1.00800000E+00  1.00800000E+00
  0.00000000E+00  1.60000000E+01  1.00800000E+00  1.00800000E+00  0.00000000E+00
  1.60000000E+01  1.00800000E+00  1.00800000E+00  0.00000000E+00  1.60000000E+01
  1.00800000E+00  1.00800000E+00  0.00000000E+00  1.60000000E+01  1.00800000E+00
  1.00800000E+00  0.00000000E+00  1.60000000E+01  1.00800000E+00  1.00800000E+00
  0.00000000E+00  1.60000000E+01  1.00800000E+00  1.00800000E+00  0.00000000E+00
  1.60000000E+01  1.00800000E+00  1.00800000E+00  0.00000000E+00  1.60000000E+01
  1.00800000E+00  1.00800000E+00  0.00000000E+00  1.60000000E+01  1.00800000E+00
  1.00800000E+00  0.00000000E+00  1.60000000E+01  1.00800000E+00  1.00800000E+00
  0.00000000E+00  1.60000000E+01  1.00800000E+00  1.00800000E+00  0.00000000E+00
  1.60000000E+01  1.00800000E+00  1.00800000E+00  0.00000000E+00  1.60000000E+01
  1.00800000E+00  1.00800000E+00  0.00000000E+00  1.60000000E+01  1.00800000E+00
  1.00800000E+00  0.00000000E+00  1.60000000E+01  1.00800000E+00  1.00800000E+00
  0.00000000E+00  1.60000000E+01  1.00800000E+00  1.00800000E+00  0.00000000E+00
  1.60000000E+01  1.00800000E+00  1.00800000E+00  0.00000000E+00  1.60000000E+01
  1.00800000E+00  1.00800000E+00  0.00000000E+00  1.60000000E+01  1.00800000E+00
  1.00800000E+00  0.00000000E+00  1.60000000E+01  1.00800000E+00  1.00800000E+00
  0.00000000E+00  1.60000000E+01  1.00800000E+00  1.00800000E+00  0.00000000E+00
  1.60000000E+01  1.00800000E+00  1.00800000E+00  0.00000000E+00  1.60000000E+01
  1.00800000E+00  1.00800000E+00  0.00000000E+00  1.60000000E+01  1.00800000E+00
  1.00800000E+00  0.00000000E+00  1.60000000E+01  1.00800000E+00  1.00800000E+00
  0.00000000E+00  1.60000000E+01  1.00800000E+00  1.00800000E+00  0.00000000E+00
  1.60000000E+01  1.00800000E+00  1.00800000E+00  0.00000000E+00  1.60000000E+01
  1.00800000E+00  1.00800000E+00  0.00000000E+00  1.60000000E+01  1.00800000E+00
  1.00800000E+00  0.00000000E+00  1.60000000E+01  1.00800000E+00  1.00800000E+00
  0.00000000E+00  1.60000000E+01  1.00800000E+00  1.00800000E+00  0.00000000E+00
  1.60000000E+01  1.00800000E+00  1.00800000E+00  0.00000000E+00  1.60000000E+01
  1.00800000E+00  1.00800000E+00  0.00000000E+00  1.60000000E+01  1.00800000E+00
  1.00800000E+00  0.00000000E+00  1.60000000E+01  1.00800000E+00  1.00800000E+00
  0.00000000E+00  1.60000000E+01  1.00800000E+00  1.00800000E+00  0.00000000E+00
  1.60000000E+01  1.00800000E+00  1.00800000E+00  0.00000000E+00  1.60000000E+01
  1.00800000E+00  1.00800000E+00  0.00000000E+00  1.60000000E+01  1.00800000E+00
  1.00800000E+00  0.00000000E+00  1.60000000E+01  1.00800000E+00  1.00800000E+00
  0.00000000E+00  1.60000000E+01  1.00800000E+00  1.00800000E+00  0.00000000E+00
  1.60000000E+01  1.00800000E+00  1.00800000E+00  0.00000000E+00  1.60000000E+01
  1.00800000E+00  1.00800000E+00  0.00000000E+00  1.60000000E+01  1.00800000E+00
  1.00800000E+00  0.00000000E+00  1.60000000E+01  1.00800000E+00  1.00800000E+00
  0.00000000E+00  1.60000000E+01  1.00800000E+00  1.00800000E+00  0.00000000E+00
  1.60000000E+01  1.00800000E+00  1.00800000E+00  0.00000000E+00  1.60000000E+01
  1.00800000E+00  1.00800000E+00  0.00000000E+00  1.60000000E+01  1.00800000E+00
  1.00800000E+00  0.00000000E+00  1.60000000E+01  1.00800000E+00  1.00800000E+00
  0.00000000E+00  1.60000000E+01  1.00800000E+00  1.00800000E+00  0.00000000E+00
  1.60000000E+01  1.00800000E+00  1.00800000E+00  0.00000000E+00  1.60000000E+01
  1.00800000E+00  1.00800000E+00  0.00000000E+00  1.60000000E+01  1.00800000E+00
  1.00800000E+00  0.00000000E+00  1.60000000E+01  1.00800000E+00  1.00800000E+00
  0.00000000E+00  1.60000000E+01  1.00800000E+00  1.00800000E+00  0.00000000E+00
  1.60000000E+01  1.00800000E+00  1.00800000E+00  0.00000000E+00  1.60000000E+01
  1.00800000E+00  1.00800000E+00  0.00000000E+00  1.60000000E+01  1.00800000E+00
  1.00800000E+00  0.00000000E+00  1.60000000E+01  1.00800000E+00  1.00800000E+00
  0.00000000E+00  1.60000000E+01  1.00800000E+00  1.00800000E+00  0.00000000E+00
  1.60000000E+01  1.00800000E+00  1.00800000E+00  0.00000000E+00  1.60000000E+01
  1.00800000E+00  1.00800000E+00  0.00000000E+00  1.60000000E+01  1.00800000E+00
  1.00800000E+00  0.00000000E+00  1.60000000E+01  1.00800000E+00  1.00800000E+00
  0.00000000E+00  1.60000000E+01  1.00800000E+00  1.00800000E+00  0.00000000E+00
  1.60000000E+01  1.00800000E+00  1.00800000E+00  0.00000000E+00  1.60000000E+01
  1.00800000E+00  1.00800000E+00  0.00000000E+00  1.60000000E+01  1.00800000E+00
  1.00800000E+00  0.00000000E+00  1.60000000E+01  1.00800000E+00  1.00800000E+00
  0.00000000E+00  1.60000000E+01  1.00800000E+00  1.00800000E+00  0.00000000E+00
  1.60000000E+01  1.00800000E+00  1.00800000E+00  0.00000000E+00  1.60000000E+01
  1.00800000E+00  1.00800000E+00  0.00000000E+00  1.60000000E+01  1.00800000E+00
  1.00800000E+00  0.00000000E+00  1.60000000E+01  1.00800000E+00  1.00800000E+00
  0.00000000E+00  1.60000000E+01  1.00800000E+00  1.00800000E+00  0.00000000E+00
  1.60000000E+01  1.00800000E+00  1.00800000E+00  0.00000000E+00  1.60000000E+01
  1.00800000E+00  1.00800000E+00  0.00000000E+00  1.60000000E+01  1.00800000E+00
  1.00800000E+00  0.00000000E+00  1.60000000E+01  1.00800000E+00  1.00800000E+00
  0.00000000E+00  1.60000000E+01  1.00800000E+00  1.00800000E+00  0.00000000E+00
  1.60000000E+01  1.00800000E+00  1.00800000E+00  0.00000000E+00  1.60000000E+01
  1.00800000E+00  1.00800000E+00  0.00000000E+00  1.60000000E+01  1.00800000E+00
  1.00800000E+00  0.00000000E+00  1.60000000E+01  1.00800000E+00  1.00800000E+00
  0.00000000E+00  1.60000000E+01  1.00800000E+00  1.00800000E+00  0.00000000E+00
  1.60000000E+01  1.00800000E+00  1.00800000E+00  0.00000000E+00  1.60000000E+01
  1.00800000E+00  1.00800000E+00  0.00000000E+00  1.60000000E+01  1.00800000E+00
  1.00800000E+00  0.00000000E+00  1.60000000E+01  1.00800000E+00  1.00800000E+00
  0.00000000E+00  1.60000000E+01  1.00800000E+00  1.00800000E+00  0.00000000E+00
  1.60000000E+01  1.00800000E+00  1.00800000E+00  0.00000000E+00  1.60000000E+01
  1.00800000E+00  1.00800000E+00  0.00000000E+00  1.60000000E+01  1.00800000E+00
  1.00800000E+00  0.00000000E+00  1.60000000E+01  1.00800000E+00  1.00800000E+00
  0.00000000E+00  1.60000000E+01  1.00800000E+00  1.00800000E+00  0.00000000E+00
  1.60000000E+01  1.00800000E+00  1.00800000E+00  0.00000000E+00  1.60000000E+01
  1.00800000E+00  1.00800000E+00  0.00000000E+00  1.60000000E+01  1.00800000E+00
  1.00800000E+00  0.00000000E+00  1.60000000E+01  1.00800000E+00  1.00800000E+00
  0.00000000E+00  1.60000000E+01  1.00800000E+00  1.00800000E+00  0.00000000E+00
  1.60000000E+01  1.00800000E+00  1.00800000E+00  0.00000000E+00  1.60000000E+01
  1.00800000E+00  1.00800000E+00  0.00000000E+00  1.60000000E+01  1.00800000E+00
  1.00800000E+00  0.00000000E+00  1.60000000E+01  1.00800000E+00  1.00800000E+00
  0.00000000E+00  1.60000000E+01  1.00800000E+00  1.00800000E+00  0.00000000E+00
  1.60000000E+01  1.00800000E+00  1.00800000E+00  0.00000000E+00  1.60000000E+01
  1.00800000E+00  1.00800000E+00  0.00000000E+00  1.60000000E+01  1.00800000E+00
  1.00800000E+00  0.00000000E+00  1.60000000E+01  1.00800000E+00  1.00800000E+00
  0.00000000E+00  1.60000000E+01  1.00800000E+00  1.00800000E+00  0.00000000E+00
  1.60000000E+01  1.00800000E+00  1.00800000E+00  0.00000000E+00  1.60000000E+01
  1.00800000E+00  1.00800000E+00  0.00000000E+00  1.60000000E+01  1.00800000E+00
  1.00800000E+00  0.00000000E+00  1.60000000E+01  1.00800000E+00  1.00800000E+00
  0.00000000E+00  1.60000000E+01  1.00800000E+00  1.00800000E+00  0.00000000E+00
  1.60000000E+01  1.00800000E+00  1.00800000E+00  0.00000000E+00  1.60000000E+01
  1.00800000E+00  1.00800000E+00  0.00000000E+00  1.60000000E+01  1.00800000E+00
  1.00800000E+00  0.00000000E+00  1.60000000E+01  1.00800000E+00  1.00800000E+00
  0.00000000E+00  1.60000000E+01  1.00800000E+00  1.00800000E+00  0.00000000E+00
  1.60000000E+01  1.00800000E+00  1.00800000E+00  0.00000000E+00  1.60000000E+01
  1.00800000E+00  1.00800000E+00  0.00000000E+00  1.60000000E+01  1.00800000E+00
  1.00800000E+00  0.00000000E+00  1.60000000E+01  1.00800000E+00  1.00800000E+00
  0.00000000E+00  1.60000000E+01  1.00800000E+00  1.00800000E+00  0.00000000E+00
  1.60000000E+01  1.00800000E+00  1.00800000E+00  0.00000000E+00  1.60000000E+01
  1.00800000E+00  1.00800000E+00  0.00000000E+00  1.60000000E+01  1.00800000E+00
  1.00800000E+00  0.00000000E+00  1.60000000E+01  1.00800000E+00  1.00800000E+00
  0.00000000E+00  1.60000000E+01  1.00800000E+00  1.00800000E+00  0.00000000E+00
  1.60000000E+01  1.00800000E+00  1.00800000E+00  0.00000000E+00  1.60000000E+01
  1.00800000E+00  1.00800000E+00  0.00000000E+00  1.60000000E+01  1.00800000E+00
  1.00800000E+00  0.00000000E+00  1.60000000E+01  1.00800000E+00  1.00800000E+00
  0.00000000E+00  1.60000000E+01  1.00800000E+00  1.00800000E+00  0.00000000E+00
  1.60000000E+01  1.00800000E+00  1.00800000E+00  0.00000000E+00  1.60000000E+01
  1.00800000E+00  1.00800000E+00  0.00000000E+00  1.60000000E+01  1.00800000E+00
  1.00800000E+00  0.00000000E+00  1.60000000E+01  1.00800000E+00  1.00800000E+00
  0.00000000E+00  1.60000000E+01  1.00800000E+00  1.00800000E+00  0.00000000E+00
  1.60000000E+01  1.00800000E+00  1.00800000E+00  0.00000000E+00  1.60000000E+01
  1.00800000E+00  1.00800000E+00  0.00000000E+00  1.60000000E+01  1.00800000E+00
  1.00800000E+00  0.00000000E+00  1.60000000E+01  1.00800000E+00  1.00800000E+00
  0.00000000E+00  1.60000000E+01  1.00800000E+00  1.00800000E+00  0.00000000E+00
  1.60000000E+01  1.00800000E+00  1.00800000E+00  0.00000000E+00  1.60000000E+01
  1.00800000E+00  1.00800000E+00  0.00000000E+00  1.60000000E+01  1.00800000E+00
  1.00800000E+00  0.00000000E+00  1.60000000E+01  1.00800000E+00  1.00800000E+00
  0.00000000E+00  1.60000000E+01  1.00800000E+00  1.00800000E+00  0.00000000E+00
  1.60000000E+01  1.00800000E+00  1.00800000E+00  0.00000000E+00  1.60000000E+01
  1.00800000E+00  1.00800000E+00  0.00000000E+00  1.60000000E+01  1.00800000E+00
  1.00800000E+00  0.00000000E+00  1.60000000E+01  1.00800000E+00  1.00800000E+00
  0.00000000E+00  1.60000000E+01  1.00800000E+00  1.00800000E+00  0.00000000E+00
  1.60000000E+01  1.00800000E+00  1.00800000E+00  0.00000000E+00  1.60000000E+01
  1.00800000E+00  1.00800000E+00  0.00000000E+00  1.60000000E+01  1.00800000E+00
  1.00800000E+00  0.00000000E+00  1.60000000E+01  1.00800000E+00  1.00800000E+00
  0.00000000E+00  1.60000000E+01  1.00800000E+00  1.00800000E+00  0.00000000E+00
  1.60000000E+01  1.00800000E+00  1.00800000E+00  0.00000000E+00  1.60000000E+01
  1.00800000E+00  1.00800000E+00  0.00000000E+00  1.60000000E+01  1.00800000E+00
  1.00800000E+00  0.00000000E+00  1.60000000E+01  1.00800000E+00  1.00800000E+00
  0.00000000E+00  1.60000000E+01  1.00800000E+00  1.00800000E+00  0.00000000E+00
  1.60000000E+01  1.00800000E+00  1.00800000E+00  0.00000000E+00  1.60000000E+01
  1.00800000E+00  1.00800000E+00  0.00000000E+00  1.60000000E+01  1.00800000E+00
  1.00800000E+00  0.00000000E+00  1.60000000E+01  1.00800000E+00  1.00800000E+00
  0.00000000E+00  1.60000000E+01  1.00800000E+00  1.00800000E+00  0.00000000E+00
  1.60000000E+01  1.00800000E+00  1.00800000E+00  0.00000000E+00  1.60000000E+01
  1.00800000E+00  1.00800000E+00  0.00000000E+00  1.60000000E+01  1.00800000E+00
  1.00800000E+00  0.00000000E+00  1.60000000E+01  1.00800000E+00  1.00800000E+00
  0.00000000E+00  1.60000000E+01  1.00800000E+00  1.00800000E+00  0.00000000E+00
  1.60000000E+01  1.00800000E+00  1.00800000E+00  0.00000000E+00  1.60000000E+01
  1.00800000E+00  1.00800000E+00  0.00000000E+00  1.60000000E+01  1.00800000E+00
  1.00800000E+00  0.00000000E+00  1.60000000E+01  1.00800000E+00  1.00800000E+00
  0.00000000E+00  1.60000000E+01  1.00800000E+00  1.00800000E+00  0.00000000E+00
  1.60000000E+01  1.00800000E+00  1.00800000E+00  0.00000000E+00  1.60000000E+01
  1.00800000E+00  1.00800000E+00  0.00000000E+00  1.60000000E+01  1.00800000E+00
  1.00800000E+00  0.00000000E+00  1.60000000E+01  1.00800000E+00  1.00800000E+00
  0.00000000E+00  1.60000000E+01  1.00800000E+00  1.00800000E+00  0.00000000E+00
  1.60000000E+01  1.00800000E+00  1.00800000E+00  0.00000000E+00  1.60000000E+01
  1.00800000E+00  1.00800000E+00  0.00000000E+00  1.60000000E+01  1.00800000E+00
  1.00800000E+00  0.00000000E+00  1.60000000E+01  1.00800000E+00  1.00800000E+00
  0.00000000E+00  1.60000000E+01  1.00800000E+00  1.00800000E+00  0.00000000E+00
  1.60000000E+01  1.00800000E+00  1.00800000E+00  0.00000000E+00  1.60000000E+01
  1.00800000E+00  1.00800000E+00  0.00000000E+00  1.60000000E+01  1.00800000E+00
  1.00800000E+00  0.00000000E+00  1.60000000E+01  1.00800000E+00  1.00800000E+00
  0.00000000E+00  1.60000000E+01  1.00800000E+00  1.00800000E+00  0.00000000E+00
  1.60000000E+01  1.00800000E+00  1.00800000E+00  0.00000000E+00  1.60000000E+01
  1.00800000E+00  1.00800000E+00  0.00000000E+00  1.60000000E+01  1.00800000E+00
  1.00800000E+00  0.00000000E+00  1.60000000E+01  1.00800000E+00  1.00800000E+00
  0.00000000E+00  1.60000000E+01  1.00800000E+00  1.00800000E+00  0.00000000E+00
  1.60000000E+01  1.00800000E+00  1.00800000E+00  0.00000000E+00  1.60000000E+01
  1.00800000E+00  1.00800000E+00  0.00000000E+00  1.60000000E+01  1.00800000E+00
  1.00800000E+00  0.00000000E+00  1.60000000E+01  1.00800000E+00  1.00800000E+00
  0.00000000E+00  1.60000000E+01  1.00800000E+00  1.00800000E+00  0.00000000E+00
  1.60000000E+01  1.00800000E+00  1.00800000E+00  0.00000000E+00  1.60000000E+01
  1.00800000E+00  1.00800000E+00  0.00000000E+00  1.60000000E+01  1.00800000E+00
  1.00800000E+00  0.00000000E+00  1.60000000E+01  1.00800000E+00  1.00800000E+00
  0.00000000E+00  1.60000000E+01  1.00800000E+00  1.00800000E+00  0.00000000E+00
  1.60000000E+01  1.00800000E+00  1.00800000E+00  0.00000000E+00  1.60000000E+01
  1.00800000E+00  1.00800000E+00  0.00000000E+00  1.60000000E+01  1.00800000E+00
  1.00800000E+00  0.00000000E+00  1.60000000E+01  1.00800000E+00  1.00800000E+00
  0.00000000E+00  1.60000000E+01  1.00800000E+00  1.00800000E+00  0.00000000E+00
  1.60000000E+01  1.00800000E+00  1.00800000E+00  0.00000000E+00  1.60000000E+01
  1.00800000E+00  1.00800000E+00  0.00000000E+00  1.60000000E+01  1.00800000E+00
  1.00800000E+00  0.00000000E+00  1.60000000E+01  1.00800000E+00  1.00800000E+00
  0.00000000E+00  1.60000000E+01  1.00800000E+00  1.00800000E+00  0.00000000E+00
  1.60000000E+01  1.00800000E+00  1.00800000E+00  0.00000000E+00  1.60000000E+01
  1.00800000E+00  1.00800000E+00  0.00000000E+00  1.60000000E+01  1.00800000E+00
  1.00800000E+00  0.00000000E+00  1.60000000E+01  1.00800000E+00  1.00800000E+00
  0.00000000E+00  1.60000000E+01  1.00800000E+00  1.00800000E+00  0.00000000E+00
  1.60000000E+01  1.00800000E+00  1.00800000E+00  0.00000000E+00  1.60000000E+01
  1.00800000E+00  1.00800000E+00  0.00000000E+00  1.60000000E+01  1.00800000E+00
  1.00800000E+00  0.00000000E+00  1.60000000E+01  1.00800000E+00  1.00800000E+00
  0.00000000E+00  1.60000000E+01  1.00800000E+00  1.00800000E+00  0.00000000E+00
  1.60000000E+01  1.00800000E+00  1.00800000E+00  0.00000000E+00  1.60000000E+01
  1.00800000E+00  1.00800000E+00  0.00000000E+00  1.60000000E+01  1.00800000E+00
  1.00800000E+00  0.00000000E+00  1.60000000E+01  1.00800000E+00  1.00800000E+00
  0.00000000E+00  1.60000000E+01  1.00800000E+00  1.00800000E+00  0.00000000E+00
  1.60000000E+01  1.00800000E+00  1.00800000E+00  0.00000000E+00  1.60000000E+01
  1.00800000E+00  1.00800000E+00  0.00000000E+00  1.60000000E+01  1.00800000E+00
  1.00800000E+00  0.00000000E+00  1.60000000E+01  1.00800000E+00  1.00800000E+00
  0.00000000E+00  1.60000000E+01  1.00800000E+00  1.00800000E+00  0.00000000E+00
  1.60000000E+01  1.00800000E+00  1.00800000E+00  0.00000000E+00  1.60000000E+01
  1.00800000E+00  1.00800000E+00  0.00000000E+00  1.60000000E+01  1.00800000E+00
  1.00800000E+00  0.00000000E+00  1.60000000E+01  1.00800000E+00  1.00800000E+00
  0.00000000E+00  1.60000000E+01  1.00800000E+00  1.00800000E+00  0.00000000E+00
  1.60000000E+01  1.00800000E+00  1.00800000E+00  0.00000000E+00  1.60000000E+01
  1.00800000E+00  1.00800000E+00  0.00000000E+00  1.60000000E+01  1.00800000E+00
  1.00800000E+00  0.00000000E+00  1.60000000E+01  1.00800000E+00  1.00800000E+00
  0.00000000E+00  1.60000000E+01  1.00800000E+00  1.00800000E+00  0.00000000E+00
  1.60000000E+01  1.00800000E+00  1.00800000E+00  0.00000000E+00  1.60000000E+01
  1.00800000E+00  1.00800000E+00  0.00000000E+00  1.60000000E+01  1.00800000E+00
  1.00800000E+00  0.00000000E+00  1.60000000E+01  1.00800000E+00  1.00800000E+00
  0.00000000E+00  1.60000000E+01  1.00800000E+00  1.00800000E+00  0.00000000E+00
  1.60000000E+01  1.00800000E+00  1.00800000E+00  0.00000000E+00  1.60000000E+01
  1.00800000E+00  1.00800000E+00  0.00000000E+00  1.60000000E+01  1.00800000E+00
  1.00800000E+00  0.00000000E+00  1.60000000E+01  1.00800000E+00  1.00800000E+00
  0.00000000E+00  1.60000000E+01  1.00800000E+00  1.00800000E+00  0.00000000E+00
  1.60000000E+01  1.00800000E+00  1.00800000E+00  0.00000000E+00  1.60000000E+01
  1.00800000E+00  1.00800000E+00  0.00000000E+00  1.60000000E+01  1.00800000E+00
  1.00800000E+00  0.00000000E+00  1.60000000E+01  1.00800000E+00  1.00800000E+00
  0.00000000E+00  1.60000000E+01  1.00800000E+00  1.00800000E+00  0.00000000E+00
  1.60000000E+01  1.00800000E+00  1.00800000E+00  0.00000000E+00  1.60000000E+01
  1.00800000E+00  1.00800000E+00  0.00000000E+00  1.60000000E+01  1.00800000E+00
  1.00800000E+00  0.00000000E+00  1.60000000E+01  1.00800000E+00  1.00800000E+00
  0.00000000E+00  1.60000000E+01  1.00800000E+00  1.00800000E+00  0.00000000E+00
  1.60000000E+01  1.00800000E+00  1.00800000E+00  0.00000000E+00  1.60000000E+01
  1.00800000E+00  1.00800000E+00  0.00000000E+00  1.60000000E+01  1.00800000E+00
  1.00800000E+00  0.00000000E+00  1.60000000E+01  1.00800000E+00  1.00800000E+00
  0.00000000E+00  1.60000000E+01  1.00800000E+00  1.00800000E+00  0.00000000E+00
  1.60000000E+01  1.00800000E+00  1.00800000E+00  0.00000000E+00  1.60000000E+01
  1.00800000E+00  1.00800000E+00  0.00000000E+00  1.60000000E+01  1.00800000E+00
  1.00800000E+00  0.00000000E+00  1.60000000E+01  1.00800000E+00  1.00800000E+00
  0.00000000E+00  1.60000000E+01  1.00800000E+00  1.00800000E+00  0.00000000E+00
  1.60000000E+01  1.00800000E+00  1.00800000E+00  0.00000000E+00  1.60000000E+01
  1.00800000E+00  1.00800000E+00  0.00000000E+00  1.60000000E+01  1.00800000E+00
  1.00800000E+00  0.00000000E+00  1.60000000E+01  1.00800000E+00  1.00800000E+00
  0.00000000E+00  1.60000000E+01  1.00800000E+00  1.00800000E+00  0.00000000E+00
  1.60000000E+01  1.00800000E+00  1.00800000E+00  0.00000000E+00  1.60000000E+01
  1.00800000E+00  1.00800000E+00  0.00000000E+00  1.60000000E+01  1.00800000E+00
  1.00800000E+00  0.00000000E+00  1.60000000E+01  1.00800000E+00  1.00800000E+00
  0.00000000E+00  1.60000000E+01  1.00800000E+00  1.00800000E+00  0.00000000E+00
  1.60000000E+01  1.00800000E+00  1.00800000E+00  0.00000000E+00  1.60000000E+01
  1.00800000E+00  1.00800000E+00  0.00000000E+00  1.60000000E+01  1.00800000E+00
  1.00800000E+00  0.00000000E+00  1.60000000E+01  1.00800000E+00  1.00800000E+00
  0.00000000E+00  1.60000000E+01  1.00800000E+00  1.00800000E+00  0.00000000E+00
  1.60000000E+01  1.00800000E+00  1.00800000E+00  0.00000000E+00  1.60000000E+01
  1.00800000E+00  1.00800000E+00  0.00000000E+00  1.60000000E+01  1.00800000E+00
  1.00800000E+00  0.00000000E+00  1.60000000E+01  1.00800000E+00  1.00800000E+00
  0.00000000E+00  1.60000000E+01  1.00800000E+00  1.00800000E+00  0.00000000E+00
  1.60000000E+01  1.00800000E+00  1.00800000E+00  0.00000000E+00  1.60000000E+01
  1.00800000E+00  1.00800000E+00  0.00000000E+00  1.60000000E+01  1.00800000E+00
  1.00800000E+00  0.00000000E+00  1.60000000E+01  1.00800000E+00  1.00800000E+00
  0.00000000E+00  1.60000000E+01  1.00800000E+00  1.00800000E+00  0.00000000E+00
  1.60000000E+01  1.00800000E+00  1.00800000E+00  0.00000000E+00  1.60000000E+01
  1.00800000E+00  1.00800000E+00  0.00000000E+00  1.60000000E+01  1.00800000E+00
  1.00800000E+00  0.00000000E+00  1.60000000E+01  1.00800000E+00  1.00800000E+00
  0.00000000E+00  1.60000000E+01  1.00800000E+00  1.00800000E+00  0.00000000E+00
  1.60000000E+01  1.00800000E+00  1.00800000E+00  0.00000000E+00  1.60000000E+01
  1.00800000E+00  1.00800000E+00  0.00000000E+00  1.60000000E+01  1.00800000E+00
  1.00800000E+00  0.00000000E+00  1.60000000E+01  1.00800000E+00  1.00800000E+00
  0.00000000E+00  1.60000000E+01  1.00800000E+00  1.00800000E+00  0.00000000E+00
  1.60000000E+01  1.00800000E+00  1.00800000E+00  0.00000000E+00  1.60000000E+01
  1.00800000E+00  1.00800000E+00  0.00000000E+00  1.60000000E+01  1.00800000E+00
  1.00800000E+00  0.00000000E+00  1.60000000E+01  1.00800000E+00  1.00800000E+00
  0.00000000E+00  1.60000000E+01  1.00800000E+00  1.00800000E+00  0.00000000E+00
  1.60000000E+01  1.00800000E+00  1.00800000E+00  0.00000000E+00  1.60000000E+01
  1.00800000E+00  1.00800000E+00  0.00000000E+00  1.60000000E+01  1.00800000E+00
  1.00800000E+00  0.00000000E+00  1.60000000E+01  1.00800000E+00  1.00800000E+00
  0.00000000E+00  1.60000000E+01  1.00800000E+00  1.00800000E+00  0.00000000E+00
  1.60000000E+01  1.00800000E+00  1.00800000E+00  0.00000000E+00  1.60000000E+01
  1.00800000E+00  1.00800000E+00  0.00000000E+00  1.60000000E+01  1.00800000E+00
  1.00800000E+00  0.00000000E+00  1.60000000E+01  1.00800000E+00  1.00800000E+00
  0.00000000E+00  1.60000000E+01  1.00800000E+00  1.00800000E+00  0.00000000E+00
  1.60000000E+01  1.00800000E+00  1.00800000E+00  0.00000000E+00  1.60000000E+01
  1.00800000E+00  1.00800000E+00  0.00000000E+00  1.60000000E+01  1.00800000E+00
  1.00800000E+00  0.00000000E+00  1.60000000E+01  1.00800000E+00  1.00800000E+00
  0.00000000E+00  1.60000000E+01  1.00800000E+00  1.00800000E+00  0.00000000E+00
  1.60000000E+01  1.00800000E+00  1.00800000E+00  0.00000000E+00  1.60000000E+01
  1.00800000E+00  1.00800000E+00  0.00000000E+00  1.60000000E+01  1.00800000E+00
  1.00800000E+00  0.00000000E+00  1.60000000E+01  1.00800000E+00  1.00800000E+00
  0.00000000E+00  1.60000000E+01  1.00800000E+00  1.00800000E+00  0.00000000E+00
  1.60000000E+01  1.00800000E+00  1.00800000E+00  0.00000000E+00  1.60000000E+01
  1.00800000E+00  1.00800000E+00  0.00000000E+00  1.60000000E+01  1.00800000E+00
  1.00800000E+00  0.00000000E+00  1.60000000E+01  1.00800000E+00  1.00800000E+00
  0.00000000E+00  1.60000000E+01  1.00800000E+00  1.00800000E+00  0.00000000E+00
  1.60000000E+01  1.00800000E+00  1.00800000E+00  0.00000000E+00  1.60000000E+01
  1.00800000E+00  1.00800000E+00  0.00000000E+00  1.60000000E+01  1.00800000E+00
  1.00800000E+00  0.00000000E+00  1.60000000E+01  1.00800000E+00  1.00800000E+00
  0.00000000E+00  1.60000000E+01  1.00800000E+00  1.00800000E+00  0.00000000E+00
  1.60000000E+01  1.00800000E+00  1.00800000E+00  0.00000000E+00  1.60000000E+01
  1.00800000E+00  1.00800000E+00  0.00000000E+00  1.60000000E+01  1.00800000E+00
  1.00800000E+00  0.00000000E+00  1.60000000E+01  1.00800000E+00  1.00800000E+00
  0.00000000E+00  1.60000000E+01  1.00800000E+00  1.00800000E+00  0.00000000E+00
  1.60000000E+01  1.00800000E+00  1.00800000E+00  0.00000000E+00  1.60000000E+01
  1.00800000E+00  1.00800000E+00  0.00000000E+00  1.60000000E+01  1.00800000E+00
  1.00800000E+00  0.00000000E+00  1.60000000E+01  1.00800000E+00  1.00800000E+00
  0.00000000E+00  1.60000000E+01  1.00800000E+00  1.00800000E+00  0.00000000E+00
  1.60000000E+01  1.00800000E+00  1.00800000E+00  0.00000000E+00  1.60000000E+01
  1.00800000E+00  1.00800000E+00  0.00000000E+00  1.60000000E+01  1.00800000E+00
  1.00800000E+00  0.00000000E+00  1.60000000E+01  1.00800000E+00  1.00800000E+00
  0.00000000E+00  1.60000000E+01  1.00800000E+00  1.00800000E+00  0.00000000E+00
  1.60000000E+01  1.00800000E+00  1.00800000E+00  0.00000000E+00  1.60000000E+01
  1.00800000E+00  1.00800000E+00  0.00000000E+00  1.60000000E+01  1.00800000E+00
  1.00800000E+00  0.00000000E+00  1.60000000E+01  1.00800000E+00  1.00800000E+00
  0.00000000E+00  1.60000000E+01  1.00800000E+00  1.00800000E+00  0.00000000E+00
  1.60000000E+01  1.00800000E+00  1.00800000E+00  0.00000000E+00  1.60000000E+01
  1.00800000E+00  1.00800000E+00  0.00000000E+00  1.60000000E+01  1.00800000E+00
  1.00800000E+00  0.00000000E+00  1.60000000E+01  1.00800000E+00  1.00800000E+00
  0.00000000E+00  1.60000000E+01  1.00800000E+00  1.00800000E+00  0.00000000E+00
  1.60000000E+01  1.00800000E+00  1.00800000E+00  0.00000000E+00  1.60000000E+01
  1.00800000E+00  1.00800000E+00  0.00000000E+00  1.60000000E+01  1.00800000E+00
  1.00800000E+00  0.00000000E+00  1.60000000E+01  1.00800000E+00  1.00800000E+00
  0.00000000E+00  1.60000000E+01  1.00800000E+00  1.00800000E+00  0.00000000E+00
  1.60000000E+01  1.00800000E+00  1.00800000E+00  0.00000000E+00  1.60000000E+01
  1.00800000E+00  1.00800000E+00  0.00000000E+00  1.60000000E+01  1.00800000E+00
  1.00800000E+00  0.00000000E+00  1.60000000E+01  1.00800000E+00  1.00800000E+00
  0.00000000E+00  1.60000000E+01  1.00800000E+00  1.00800000E+00  0.00000000E+00
  1.60000000E+01  1.00800000E+00  1.00800000E+00  0.00000000E+00  1.60000000E+01
  1.00800000E+00  1.00800000E+00  0.00000000E+00  1.60000000E+01  1.00800000E+00
  1.00800000E+00  0.00000000E+00  1.60000000E+01  1.00800000E+00  1.00800000E+00
  0.00000000E+00  1.60000000E+01  1.00800000E+00  1.00800000E+00  0.00000000E+00
  1.60000000E+01  1.00800000E+00  1.00800000E+00  0.00000000E+00  1.60000000E+01
  1.00800000E+00  1.00800000E+00  0.00000000E+00  1.60000000E+01  1.00800000E+00
  1.00800000E+00  0.00000000E+00  1.60000000E+01  1.00800000E+00  1.00800000E+00
  0.00000000E+00  1.60000000E+01  1.00800000E+00  1.00800000E+00  0.00000000E+00
  1.60000000E+01  1.00800000E+00  1.00800000E+00  0.00000000E+00  1.60000000E+01
  1.00800000E+00  1.00800000E+00  0.00000000E+00  1.60000000E+01  1.00800000E+00
  1.00800000E+00  0.00000000E+00  1.60000000E+01  1.00800000E+00  1.00800000E+00
  0.00000000E+00  1.60000000E+01  1.00800000E+00  1.00800000E+00  0.00000000E+00
  1.60000000E+01  1.00800000E+00  1.00800000E+00  0.00000000E+00  1.60000000E+01
  1.00800000E+00  1.00800000E+00  0.00000000E+00  1.60000000E+01  1.00800000E+00
  1.00800000E+00  0.00000000E+00  1.60000000E+01  1.00800000E+00  1.00800000E+00
  0.00000000E+00  1.60000000E+01  1.00800000E+00  1.00800000E+00  0.00000000E+00
  1.60000000E+01  1.00800000E+00  1.00800000E+00  0.00000000E+00  1.60000000E+01
  1.00800000E+00  1.00800000E+00  0.00000000E+00  1.60000000E+01  1.00800000E+00
  1.00800000E+00  0.00000000E+00  1.60000000E+01  1.00800000E+00  1.00800000E+00
  0.00000000E+00  1.60000000E+01  1.00800000E+00  1.00800000E+00  0.00000000E+00
  1.60000000E+01  1.00800000E+00  1.00800000E+00  0.00000000E+00  1.60000000E+01
  1.00800000E+00  1.00800000E+00  0.00000000E+00  1.60000000E+01  1.00800000E+00
  1.00800000E+00  0.00000000E+00  1.60000000E+01  1.00800000E+00  1.00800000E+00
  0.00000000E+00  1.60000000E+01  1.00800000E+00  1.00800000E+00  0.00000000E+00
  1.60000000E+01  1.00800000E+00  1.00800000E+00  0.00000000E+00  1.60000000E+01
  1.00800000E+00  1.00800000E+00  0.00000000E+00  1.60000000E+01  1.00800000E+00
  1.00800000E+00  0.00000000E+00  1.60000000E+01  1.00800000E+00  1.00800000E+00
  0.00000000E+00  1.60000000E+01  1.00800000E+00  1.00800000E+00  0.00000000E+00
  1.60000000E+01  1.00800000E+00  1.00800000E+00  0.00000000E+00  1.60000000E+01
  1.00800000E+00  1.00800000E+00  0.00000000E+00  1.60000000E+01  1.00800000E+00
  1.00800000E+00  0.00000000E+00  1.60000000E+01  1.00800000E+00  1.00800000E+00
  0.00000000E+00  1.60000000E+01  1.00800000E+00  1.00800000E+00  0.00000000E+00
  1.60000000E+01  1.00800000E+00  1.00800000E+00  0.00000000E+00  1.60000000E+01
  1.00800000E+00  1.00800000E+00  0.00000000E+00  1.60000000E+01  1.00800000E+00
  1.00800000E+00  0.00000000E+00  1.60000000E+01  1.00800000E+00  1.00800000E+00
  0.00000000E+00  1.60000000E+01  1.00800000E+00  1.00800000E+00  0.00000000E+00
  1.60000000E+01  1.00800000E+00  1.00800000E+00  0.00000000E+00  1.60000000E+01
  1.00800000E+00  1.00800000E+00  0.00000000E+00  1.60000000E+01  1.00800000E+00
  1.00800000E+00  0.00000000E+00  1.60000000E+01  1.00800000E+00  1.00800000E+00
  0.00000000E+00  1.60000000E+01  1.00800000E+00  1.00800000E+00  0.00000000E+00
  1.60000000E+01  1.00800000E+00  1.00800000E+00  0.00000000E+00  1.60000000E+01
  1.00800000E+00  1.00800000E+00  0.00000000E+00  1.60000000E+01  1.00800000E+00
  1.00800000E+00  0.00000000E+00  1.60000000E+01  1.00800000E+00  1.00800000E+00
  0.00000000E+00  1.60000000E+01  1.00800000E+00  1.00800000E+00  0.00000000E+00
  1.60000000E+01  1.00800000E+00  1.00800000E+00  0.00000000E+00  1.60000000E+01
  1.00800000E+00  1.00800000E+00  0.00000000E+00  1.60000000E+01  1.00800000E+00
  1.00800000E+00  0.00000000E+00  1.60000000E+01  1.00800000E+00  1.00800000E+00
  0.00000000E+00  1.60000000E+01  1.00800000E+00  1.00800000E+00  0.00000000E+00
  1.60000000E+01  1.00800000E+00  1.00800000E+00  0.00000000E+00  1.60000000E+01
  1.00800000E+00  1.00800000E+00  0.00000000E+00  1.60000000E+01  1.00800000E+00
  1.00800000E+00  0.00000000E+00  1.60000000E+01  1.00800000E+00  1.00800000E+00
  0.00000000E+00  1.60000000E+01  1.00800000E+00  1.00800000E+00  0.00000000E+00
  1.60000000E+01  1.00800000E+00  1.00800000E+00  0.00000000E+00  1.60000000E+01
  1.00800000E+00  1.00800000E+00  0.00000000E+00  1.60000000E+01  1.00800000E+00
  1.00800000E+00  0.00000000E+00  1.60000000E+01  1.00800000E+00  1.00800000E+00
  0.00000000E+00  1.60000000E+01  1.00800000E+00  1.00800000E+00  0.00000000E+00
  1.60000000E+01  1.00800000E+00  1.00800000E+00  0.00000000E+00  1.60000000E+01
  1.00800000E+00  1.00800000E+00  0.00000000E+00  1.60000000E+01  1.00800000E+00
  1.00800000E+00  0.00000000E+00  1.60000000E+01  1.00800000E+00  1.00800000E+00
  0.00000000E+00  1.60000000E+01  1.00800000E+00  1.00800000E+00  0.00000000E+00
  1.60000000E+01  1.00800000E+00  1.00800000E+00  0.00000000E+00  1.60000000E+01
  1.00800000E+00  1.00800000E+00  0.00000000E+00  1.60000000E+01  1.00800000E+00
  1.00800000E+00  0.00000000E+00  1.60000000E+01  1.00800000E+00  1.00800000E+00
  0.00000000E+00  1.60000000E+01  1.00800000E+00  1.00800000E+00  0.00000000E+00
  1.60000000E+01  1.00800000E+00  1.00800000E+00  0.00000000E+00  1.60000000E+01
  1.00800000E+00  1.00800000E+00  0.00000000E+00  1.60000000E+01  1.00800000E+00
  1.00800000E+00  0.00000000E+00  1.60000000E+01  1.00800000E+00  1.00800000E+00
  0.00000000E+00  1.60000000E+01  1.00800000E+00  1.00800000E+00  0.00000000E+00
  1.60000000E+01  1.00800000E+00  1.00800000E+00  0.00000000E+00  1.60000000E+01
  1.00800000E+00  1.00800000E+00  0.00000000E+00  1.60000000E+01  1.00800000E+00
  1.00800000E+00  0.00000000E+00  1.60000000E+01  1.00800000E+00  1.00800000E+00
  0.00000000E+00  1.60000000E+01  1.00800000E+00  1.00800000E+00  0.00000000E+00
  1.60000000E+01  1.00800000E+00  1.00800000E+00  0.00000000E+00  1.60000000E+01
  1.00800000E+00  1.00800000E+00  0.00000000E+00  1.60000000E+01  1.00800000E+00
  1.00800000E+00  0.00000000E+00  1.60000000E+01  1.00800000E+00  1.00800000E+00
  0.00000000E+00  1.60000000E+01  1.00800000E+00  1.00800000E+00  0.00000000E+00
  1.60000000E+01  1.00800000E+00  1.00800000E+00  0.00000000E+00  1.60000000E+01
  1.00800000E+00  1.00800000E+00  0.00000000E+00  1.60000000E+01  1.00800000E+00
  1.00800000E+00  0.00000000E+00  1.60000000E+01  1.00800000E+00  1.00800000E+00
  0.00000000E+00  1.60000000E+01  1.00800000E+00  1.00800000E+00  0.00000000E+00
  1.60000000E+01  1.00800000E+00  1.00800000E+00  0.00000000E+00  1.60000000E+01
  1.00800000E+00  1.00800000E+00  0.00000000E+00  1.60000000E+01  1.00800000E+00
  1.00800000E+00  0.00000000E+00  1.60000000E+01  1.00800000E+00  1.00800000E+00
  0.00000000E+00  1.60000000E+01  1.00800000E+00  1.00800000E+00  0.00000000E+00
  1.60000000E+01  1.00800000E+00  1.00800000E+00  0.00000000E+00  1.60000000E+01
  1.00800000E+00  1.00800000E+00  0.00000000E+00  1.60000000E+01  1.00800000E+00
  1.00800000E+00  0.00000000E+00  1.60000000E+01  1.00800000E+00  1.00800000E+00
  0.00000000E+00  1.60000000E+01  1.00800000E+00  1.00800000E+00  0.00000000E+00
  1.60000000E+01  1.00800000E+00  1.00800000E+00  0.00000000E+00  1.60000000E+01
  1.00800000E+00  1.00800000E+00  0.00000000E+00  1.60000000E+01  1.00800000E+00
  1.00800000E+00  0.00000000E+00  1.60000000E+01  1.00800000E+00  1.00800000E+00
  0.00000000E+00  1.60000000E+01  1.00800000E+00  1.00800000E+00  0.00000000E+00
  1.60000000E+01  1.00800000E+00  1.00800000E+00  0.00000000E+00  1.60000000E+01
  1.00800000E+00  1.00800000E+00  0.00000000E+00  1.60000000E+01  1.00800000E+00
  1.00800000E+00  0.00000000E+00  1.60000000E+01  1.00800000E+00  1.00800000E+00
  0.00000000E+00  1.60000000E+01  1.00800000E+00  1.00800000E+00  0.00000000E+00
  1.60000000E+01  1.00800000E+00  1.00800000E+00  0.00000000E+00  1.60000000E+01
  1.00800000E+00  1.00800000E+00  0.00000000E+00  1.60000000E+01  1.00800000E+00
  1.00800000E+00  0.00000000E+00  1.60000000E+01  1.00800000E+00  1.00800000E+00
  0.00000000E+00  1.60000000E+01  1.00800000E+00  1.00800000E+00  0.00000000E+00
  1.60000000E+01  1.00800000E+00  1.00800000E+00  0.00000000E+00  1.60000000E+01
  1.00800000E+00  1.00800000E+00  0.00000000E+00  1.60000000E+01  1.00800000E+00
  1.00800000E+00  0.00000000E+00  1.60000000E+01  1.00800000E+00  1.00800000E+00
  0.00000000E+00  1.60000000E+01  1.00800000E+00  1.00800000E+00  0.00000000E+00
  1.60000000E+01  1.00800000E+00  1.00800000E+00  0.00000000E+00  1.60000000E+01
  1.00800000E+00  1.00800000E+00  0.00000000E+00  1.60000000E+01  1.00800000E+00
  1.00800000E+00  0.00000000E+00  1.60000000E+01  1.00800000E+00  1.00800000E+00
  0.00000000E+00  1.60000000E+01  1.00800000E+00  1.00800000E+00  0.00000000E+00
  1.60000000E+01  1.00800000E+00  1.00800000E+00  0.00000000E+00  1.60000000E+01
  1.00800000E+00  1.00800000E+00  0.00000000E+00  1.60000000E+01  1.00800000E+00
  1.00800000E+00  0.00000000E+00  1.60000000E+01  1.00800000E+00  1.00800000E+00
  0.00000000E+00  1.60000000E+01  1.00800000E+00  1.00800000E+00  0.00000000E+00
  1.60000000E+01  1.00800000E+00  1.00800000E+00  0.00000000E+00  1.60000000E+01
  1.00800000E+00  1.00800000E+00  0.00000000E+00  1.60000000E+01  1.00800000E+00
  1.00800000E+00  0.00000000E+00  1.60000000E+01  1.00800000E+00  1.00800000E+00
  0.00000000E+00  1.60000000E+01  1.00800000E+00  1.00800000E+00  0.00000000E+00
  1.60000000E+01  1.00800000E+00  1.00800000E+00  0.00000000E+00  1.60000000E+01
  1.00800000E+00  1.00800000E+00  0.00000000E+00  1.60000000E+01  1.00800000E+00
  1.00800000E+00  0.00000000E+00  1.60000000E+01  1.00800000E+00  1.00800000E+00
  0.00000000E+00  1.60000000E+01  1.00800000E+00  1.00800000E+00  0.00000000E+00
  1.60000000E+01  1.00800000E+00  1.00800000E+00  0.00000000E+00  1.60000000E+01
  1.00800000E+00  1.00800000E+00  0.00000000E+00  1.60000000E+01  1.00800000E+00
  1.00800000E+00  0.00000000E+00  1.60000000E+01  1.00800000E+00  1.00800000E+00
  0.00000000E+00  1.60000000E+01  1.00800000E+00  1.00800000E+00  0.00000000E+00
  1.60000000E+01  1.00800000E+00  1.00800000E+00  0.00000000E+00  1.60000000E+01
  1.00800000E+00  1.00800000E+00  0.00000000E+00  1.60000000E+01  1.00800000E+00
  1.00800000E+00  0.00000000E+00  1.60000000E+01  1.00800000E+00  1.00800000E+00
  0.00000000E+00  1.60000000E+01  1.00800000E+00  1.00800000E+00  0.00000000E+00
  1.60000000E+01  1.00800000E+00  1.00800000E+00  0.00000000E+00  1.60000000E+01
  1.00800000E+00  1.00800000E+00  0.00000000E+00  1.60000000E+01  1.00800000E+00
  1.00800000E+00  0.00000000E+00  1.60000000E+01  1.00800000E+00  1.00800000E+00
  0.00000000E+00  1.60000000E+01  1.00800000E+00  1.00800000E+00  0.00000000E+00
  1.60000000E+01  1.00800000E+00  1.00800000E+00  0.00000000E+00  1.60000000E+01
  1.00800000E+00  1.00800000E+00  0.00000000E+00  1.60000000E+01  1.00800000E+00
  1.00800000E+00  0.00000000E+00  1.60000000E+01  1.00800000E+00  1.00800000E+00
  0.00000000E+00  1.60000000E+01  1.00800000E+00  1.00800000E+00  0.00000000E+00
  1.60000000E+01  1.00800000E+00  1.00800000E+00  0.00000000E+00  1.60000000E+01
  1.00800000E+00  1.00800000E+00  0.00000000E+00  1.60000000E+01  1.00800000E+00
  1.00800000E+00  0.00000000E+00  1.60000000E+01  1.00800000E+00  1.00800000E+00
  0.00000000E+00  1.60000000E+01  1.00800000E+00  1.00800000E+00  0.00000000E+00
  1.60000000E+01  1.00800000E+00  1.00800000E+00  0.00000000E+00  1.60000000E+01
  1.00800000E+00  1.00800000E+00  0.00000000E+00  1.60000000E+01  1.00800000E+00
  1.00800000E+00  0.00000000E+00  1.60000000E+01  1.00800000E+00  1.00800000E+00
  0.00000000E+00  1.60000000E+01  1.00800000E+00  1.00800000E+00  0.00000000E+00
  1.60000000E+01  1.00800000E+00  1.00800000E+00  0.00000000E+00  1.60000000E+01
  1.00800000E+00  1.00800000E+00  0.00000000E+00  1.60000000E+01  1.00800000E+00
  1.00800000E+00  0.00000000E+00  1.60000000E+01  1.00800000E+00  1.00800000E+00
  0.00000000E+00  1.60000000E+01  1.00800000E+00  1.00800000E+00  0.00000000E+00
  1.60000000E+01  1.00800000E+00  1.00800000E+00  0.00000000E+00  1.60000000E+01
  1.00800000E+00  1.00800000E+00  0.00000000E+00  1.60000000E+01  1.00800000E+00
  1.00800000E+00  0.00000000E+00  1.60000000E+01  1.00800000E+00  1.00800000E+00
  0.00000000E+00  1.60000000E+01  1.00800000E+00  1.00800000E+00  0.00000000E+00
  1.60000000E+01  1.00800000E+00  1.00800000E+00  0.00000000E+00  1.60000000E+01
  1.00800000E+00  1.00800000E+00  0.00000000E+00  1.60000000E+01  1.00800000E+00
  1.00800000E+00  0.00000000E+00  1.60000000E+01  1.00800000E+00  1.00800000E+00
  0.00000000E+00  1.60000000E+01  1.00800000E+00  1.00800000E+00  0.00000000E+00
  1.60000000E+01  1.00800000E+00  1.00800000E+00  0.00000000E+00  1.60000000E+01
  1.00800000E+00  1.00800000E+00  0.00000000E+00  1.60000000E+01  1.00800000E+00
  1.00800000E+00  0.00000000E+00  1.60000000E+01  1.00800000E+00  1.00800000E+00
  0.00000000E+00  1.60000000E+01  1.00800000E+00  1.00800000E+00  0.00000000E+00
  1.60000000E+01  1.00800000E+00  1.00800000E+00  0.00000000E+00  1.60000000E+01
  1.00800000E+00  1.00800000E+00  0.00000000E+00  1.60000000E+01  1.00800000E+00
  1.00800000E+00  0.00000000E+00  1.60000000E+01  1.00800000E+00  1.00800000E+00
  0.00000000E+00  1.60000000E+01  1.00800000E+00  1.00800000E+00  0.00000000E+00
  1.60000000E+01  1.00800000E+00  1.00800000E+00  0.00000000E+00  1.60000000E+01
  1.00800000E+00  1.00800000E+00  0.00000000E+00  1.60000000E+01  1.00800000E+00
  1.00800000E+00  0.00000000E+00  1.60000000E+01  1.00800000E+00  1.00800000E+00
  0.00000000E+00  1.60000000E+01  1.00800000E+00  1.00800000E+00  0.00000000E+00
  1.60000000E+01  1.00800000E+00  1.00800000E+00  0.00000000E+00  1.60000000E+01
  1.00800000E+00  1.00800000E+00  0.00000000E+00  1.60000000E+01  1.00800000E+00
  1.00800000E+00  0.00000000E+00  1.60000000E+01  1.00800000E+00  1.00800000E+00
  0.00000000E+00  1.60000000E+01  1.00800000E+00  1.00800000E+00  0.00000000E+00
  1.60000000E+01  1.00800000E+00  1.00800000E+00  0.00000000E+00  1.60000000E+01
  1.00800000E+00  1.00800000E+00  0.00000000E+00  1.60000000E+01  1.00800000E+00
  1.00800000E+00  0.00000000E+00  1.60000000E+01  1.00800000E+00  1.00800000E+00
  0.00000000E+00  1.60000000E+01  1.00800000E+00  1.00800000E+00  0.00000000E+00
  1.60000000E+01  1.00800000E+00  1.00800000E+00  0.00000000E+00  1.60000000E+01
  1.00800000E+00  1.00800000E+00  0.00000000E+00  1.60000000E+01  1.00800000E+00
  1.00800000E+00  0.00000000E+00  1.60000000E+01  1.00800000E+00  1.00800000E+00
  0.00000000E+00  1.60000000E+01  1.00800000E+00  1.00800000E+00  0.00000000E+00
  1.60000000E+01  1.00800000E+00  1.00800000E+00  0.00000000E+00  1.60000000E+01
  1.00800000E+00  1.00800000E+00  0.00000000E+00  1.60000000E+01  1.00800000E+00
  1.00800000E+00  0.00000000E+00  1.60000000E+01  1.00800000E+00  1.00800000E+00
  0.00000000E+00  1.60000000E+01  1.00800000E+00  1.00800000E+00  0.00000000E+00
  1.60000000E+01  1.00800000E+00  1.00800000E+00  0.00000000E+00  1.60000000E+01
  1.00800000E+00  1.00800000E+00  0.00000000E+00  1.60000000E+01  1.00800000E+00
  1.00800000E+00  0.00000000E+00  1.60000000E+01  1.00800000E+00  1.00800000E+00
  0.00000000E+00  1.60000000E+01  1.00800000E+00  1.00800000E+00  0.00000000E+00
  1.60000000E+01  1.00800000E+00  1.00800000E+00  0.00000000E+00  1.60000000E+01
  1.00800000E+00  1.00800000E+00  0.00000000E+00  1.60000000E+01  1.00800000E+00
  1.00800000E+00  0.00000000E+00  1.60000000E+01  1.00800000E+00  1.00800000E+00
  0.00000000E+00  1.60000000E+01  1.00800000E+00  1.00800000E+00  0.00000000E+00
  1.60000000E+01  1.00800000E+00  1.00800000E+00  0.00000000E+00  1.60000000E+01
  1.00800000E+00  1.00800000E+00  0.00000000E+00  1.60000000E+01  1.00800000E+00
  1.00800000E+00  0.00000000E+00  1.60000000E+01  1.00800000E+00  1.00800000E+00
  0.00000000E+00  1.60000000E+01  1.00800000E+00  1.00800000E+00  0.00000000E+00
  1.60000000E+01  1.00800000E+00  1.00800000E+00  0.00000000E+00  1.60000000E+01
  1.00800000E+00  1.00800000E+00  0.00000000E+00  1.60000000E+01  1.00800000E+00
  1.00800000E+00  0.00000000E+00  1.60000000E+01  1.00800000E+00  1.00800000E+00
  0.00000000E+00  1.60000000E+01  1.00800000E+00  1.00800000E+00  0.00000000E+00
  1.60000000E+01  1.00800000E+00  1.00800000E+00  0.00000000E+00  1.60000000E+01
  1.00800000E+00  1.00800000E+00  0.00000000E+00  1.60000000E+01  1.00800000E+00
  1.00800000E+00  0.00000000E+00  1.60000000E+01  1.00800000E+00  1.00800000E+00
  0.00000000E+00  1.60000000E+01  1.00800000E+00  1.00800000E+00  0.00000000E+00
  1.60000000E+01  1.00800000E+00  1.00800000E+00  0.00000000E+00  1.60000000E+01
  1.00800000E+00  1.00800000E+00  0.00000000E+00  1.60000000E+01  1.00800000E+00
  1.00800000E+00  0.00000000E+00  1.60000000E+01  1.00800000E+00  1.00800000E+00
  0.00000000E+00  1.60000000E+01  1.00800000E+00  1.00800000E+00  0.00000000E+00
  1.60000000E+01  1.00800000E+00  1.00800000E+00  0.00000000E+00  1.60000000E+01
  1.00800000E+00  1.00800000E+00  0.00000000E+00  1.60000000E+01  1.00800000E+00
  1.00800000E+00  0.00000000E+00  1.60000000E+01  1.00800000E+00  1.00800000E+00
  0.00000000E+00  1.60000000E+01  1.00800000E+00  1.00800000E+00  0.00000000E+00
  1.60000000E+01  1.00800000E+00  1.00800000E+00  0.00000000E+00  1.60000000E+01
  1.00800000E+00  1.00800000E+00  0.00000000E+00  1.60000000E+01  1.00800000E+00
  1.00800000E+00  0.00000000E+00  1.60000000E+01  1.00800000E+00  1.00800000E+00
  0.00000000E+00  1.60000000E+01  1.00800000E+00  1.00800000E+00  0.00000000E+00
  1.60000000E+01  1.00800000E+00  1.00800000E+00  0.00000000E+00  1.60000000E+01
  1.00800000E+00  1.00800000E+00  0.00000000E+00  1.60000000E+01  1.00800000E+00
  1.00800000E+00  0.00000000E+00  1.60000000E+01  1.00800000E+00  1.00800000E+00
  0.00000000E+00  1.60000000E+01  1.00800000E+00  1.00800000E+00  0.00000000E+00
  1.60000000E+01  1.00800000E+00  1.00800000E+00  0.00000000E+00  1.60000000E+01
  1.00800000E+00  1.00800000E+00  0.00000000E+00  1.60000000E+01  1.00800000E+00
  1.00800000E+00  0.00000000E+00  1.60000000E+01  1.00800000E+00  1.00800000E+00
  0.00000000E+00  1.60000000E+01  1.00800000E+00  1.00800000E+00  0.00000000E+00
  1.60000000E+01  1.00800000E+00  1.00800000E+00  0.00000000E+00  1.60000000E+01
  1.00800000E+00  1.00800000E+00  0.00000000E+00  1.60000000E+01  1.00800000E+00
  1.00800000E+00  0.00000000E+00  1.60000000E+01  1.00800000E+00  1.00800000E+00
  0.00000000E+00  1.60000000E+01  1.00800000E+00  1.00800000E+00  0.00000000E+00
  1.60000000E+01  1.00800000E+00  1.00800000E+00  0.00000000E+00  1.60000000E+01
  1.00800000E+00  1.00800000E+00  0.00000000E+00  1.60000000E+01  1.00800000E+00
  1.00800000E+00  0.00000000E+00  1.60000000E+01  1.00800000E+00  1.00800000E+00
  0.00000000E+00  1.60000000E+01  1.00800000E+00  1.00800000E+00  0.00000000E+00
  1.60000000E+01  1.00800000E+00  1.00800000E+00  0.00000000E+00  1.60000000E+01
  1.00800000E+00  1.00800000E+00  0.00000000E+00  1.60000000E+01  1.00800000E+00
  1.00800000E+00  0.00000000E+00  1.60000000E+01  1.00800000E+00  1.00800000E+00
  0.00000000E+00  1.60000000E+01  1.00800000E+00  1.00800000E+00  0.00000000E+00
  1.60000000E+01  1.00800000E+00  1.00800000E+00  0.00000000E+00  1.60000000E+01
  1.00800000E+00  1.00800000E+00  0.00000000E+00  1.60000000E+01  1.00800000E+00
  1.00800000E+00  0.00000000E+00  1.60000000E+01  1.00800000E+00  1.00800000E+00
  0.00000000E+00  1.60000000E+01  1.00800000E+00  1.00800000E+00  0.00000000E+00
  1.60000000E+01  1.00800000E+00  1.00800000E+00  0.00000000E+00  1.60000000E+01
  1.00800000E+00  1.00800000E+00  0.00000000E+00  1.60000000E+01  1.00800000E+00
  1.00800000E+00  0.00000000E+00  1.60000000E+01  1.00800000E+00  1.00800000E+00
  0.00000000E+00  1.60000000E+01  1.00800000E+00  1.00800000E+00  0.00000000E+00
  1.60000000E+01  1.00800000E+00  1.00800000E+00  0.00000000E+00  1.60000000E+01
  1.00800000E+00  1.00800000E+00  0.00000000E+00  1.60000000E+01  1.00800000E+00
  1.00800000E+00  0.00000000E+00  1.60000000E+01  1.00800000E+00  1.00800000E+00
  0.00000000E+00  1.60000000E+01  1.00800000E+00  1.00800000E+00  0.00000000E+00
  1.60000000E+01  1.00800000E+00  1.00800000E+00  0.00000000E+00  1.60000000E+01
  1.00800000E+00  1.00800000E+00  0.00000000E+00  1.60000000E+01  1.00800000E+00
  1.00800000E+00  0.00000000E+00  1.60000000E+01  1.00800000E+00  1.00800000E+00
  0.00000000E+00  1.60000000E+01  1.00800000E+00  1.00800000E+00  0.00000000E+00
  1.60000000E+01  1.00800000E+00  1.00800000E+00  0.00000000E+00  1.60000000E+01
  1.00800000E+00  1.00800000E+00  0.00000000E+00  1.60000000E+01  1.00800000E+00
  1.00800000E+00  0.00000000E+00  1.60000000E+01  1.00800000E+00  1.00800000E+00
  0.00000000E+00  1.60000000E+01  1.00800000E+00  1.00800000E+00  0.00000000E+00
  1.60000000E+01  1.00800000E+00  1.00800000E+00  0.00000000E+00  1.60000000E+01
  1.00800000E+00  1.00800000E+00  0.00000000E+00  1.60000000E+01  1.00800000E+00
  1.00800000E+00  0.00000000E+00  1.60000000E+01  1.00800000E+00  1.00800000E+00
  0.00000000E+00  1.60000000E+01  1.00800000E+00  1.00800000E+00  0.00000000E+00
  1.60000000E+01  1.00800000E+00  1.00800000E+00  0.00000000E+00  1.60000000E+01
  1.00800000E+00  1.00800000E+00  0.00000000E+00  1.60000000E+01  1.00800000E+00
  1.00800000E+00  0.00000000E+00  1.60000000E+01  1.00800000E+00  1.00800000E+00
  0.00000000E+00  1.60000000E+01  1.00800000E+00  1.00800000E+00  0.00000000E+00
  1.60000000E+01  1.00800000E+00  1.00800000E+00  0.00000000E+00  1.60000000E+01
  1.00800000E+00  1.00800000E+00  0.00000000E+00  1.60000000E+01  1.00800000E+00
  1.00800000E+00  0.00000000E+00  1.60000000E+01  1.00800000E+00  1.00800000E+00
  0.00000000E+00  1.60000000E+01  1.00800000E+00  1.00800000E+00  0.00000000E+00
  1.60000000E+01  1.00800000E+00  1.00800000E+00  0.00000000E+00  1.60000000E+01
  1.00800000E+00  1.00800000E+00  0.00000000E+00  1.60000000E+01  1.00800000E+00
  1.00800000E+00  0.00000000E+00  1.60000000E+01  1.00800000E+00  1.00800000E+00
  0.00000000E+00  1.60000000E+01  1.00800000E+00  1.00800000E+00  0.00000000E+00
  1.60000000E+01  1.00800000E+00  1.00800000E+00  0.00000000E+00  1.60000000E+01
  1.00800000E+00  1.00800000E+00  0.00000000E+00  1.60000000E+01  1.00800000E+00
  1.00800000E+00  0.00000000E+00  1.60000000E+01  1.00800000E+00  1.00800000E+00
  0.00000000E+00  1.60000000E+01  1.00800000E+00  1.00800000E+00  0.00000000E+00
  1.60000000E+01  1.00800000E+00  1.00800000E+00  0.00000000E+00  1.60000000E+01
  1.00800000E+00  1.00800000E+00  0.00000000E+00  1.60000000E+01  1.00800000E+00
  1.00800000E+00  0.00000000E+00  1.60000000E+01  1.00800000E+00  1.00800000E+00
  0.00000000E+00  1.60000000E+01  1.00800000E+00  1.00800000E+00  0.00000000E+00
  1.60000000E+01  1.00800000E+00  1.00800000E+00  0.00000000E+00  1.60000000E+01
  1.00800000E+00  1.00800000E+00  0.00000000E+00  1.60000000E+01  1.00800000E+00
  1.00800000E+00  0.00000000E+00  1.60000000E+01  1.00800000E+00  1.00800000E+00
  0.00000000E+00  1.60000000E+01  1.00800000E+00  1.00800000E+00  0.00000000E+00
  1.60000000E+01  1.00800000E+00  1.00800000E+00  0.00000000E+00  1.60000000E+01
  1.00800000E+00  1.00800000E+00  0.00000000E+00  1.60000000E+01  1.00800000E+00
  1.00800000E+00  0.00000000E+00  1.60000000E+01  1.00800000E+00  1.00800000E+00
  0.00000000E+00  1.60000000E+01  1.00800000E+00  1.00800000E+00  0.00000000E+00
  1.60000000E+01  1.00800000E+00  1.00800000E+00  0.00000000E+00  1.60000000E+01
  1.00800000E+00  1.00800000E+00  0.00000000E+00  1.60000000E+01  1.00800000E+00
  1.00800000E+00  0.00000000E+00  1.60000000E+01  1.00800000E+00  1.00800000E+00
  0.00000000E+00  1.60000000E+01  1.00800000E+00  1.00800000E+00  0.00000000E+00
  1.60000000E+01  1.00800000E+00  1.00800000E+00  0.00000000E+00  1.60000000E+01
  1.00800000E+00  1.00800000E+00  0.00000000E+00  1.60000000E+01  1.00800000E+00
  1.00800000E+00  0.00000000E+00  1.60000000E+01  1.00800000E+00  1.00800000E+00
  0.00000000E+00  1.60000000E+01  1.00800000E+00  1.00800000E+00  0.00000000E+00
  1.60000000E+01  1.00800000E+00  1.00800000E+00  0.00000000E+00  1.60000000E+01
  1.00800000E+00  1.00800000E+00  0.00000000E+00  1.60000000E+01  1.00800000E+00
  1.00800000E+00  0.00000000E+00  1.60000000E+01  1.00800000E+00  1.00800000E+00
  0.00000000E+00  1.60000000E+01  1.00800000E+00  1.00800000E+00  0.00000000E+00
  1.60000000E+01  1.00800000E+00  1.00800000E+00  0.00000000E+00  1.60000000E+01
  1.00800000E+00  1.00800000E+00  0.00000000E+00  1.60000000E+01  1.00800000E+00
  1.00800000E+00  0.00000000E+00  1.60000000E+01  1.00800000E+00  1.00800000E+00
  0.00000000E+00  1.60000000E+01  1.00800000E+00  1.00800000E+00  0.00000000E+00
  1.60000000E+01  1.00800000E+00  1.00800000E+00  0.00000000E+00  1.60000000E+01
  1.00800000E+00  1.00800000E+00  0.00000000E+00  1.60000000E+01  1.00800000E+00
  1.00800000E+00  0.00000000E+00  1.60000000E+01  1.00800000E+00  1.00800000E+00
  0.00000000E+00  1.60000000E+01  1.00800000E+00  1.00800000E+00  0.00000000E+00
  1.60000000E+01  1.00800000E+00  1.00800000E+00  0.00000000E+00  1.60000000E+01
  1.00800000E+00  1.00800000E+00  0.00000000E+00  1.60000000E+01  1.00800000E+00
  1.00800000E+00  0.00000000E+00  1.60000000E+01  1.00800000E+00  1.00800000E+00
  0.00000000E+00  1.60000000E+01  1.00800000E+00  1.00800000E+00  0.00000000E+00
  1.60000000E+01  1.00800000E+00  1.00800000E+00  0.00000000E+00  1.60000000E+01
  1.00800000E+00  1.00800000E+00  0.00000000E+00  1.60000000E+01  1.00800000E+00
  1.00800000E+00  0.00000000E+00  1.60000000E+01  1.00800000E+00  1.00800000E+00
  0.00000000E+00  1.60000000E+01  1.00800000E+00  1.00800000E+00  0.00000000E+00
  1.60000000E+01  1.00800000E+00  1.00800000E+00  0.00000000E+00  1.60000000E+01
  1.00800000E+00  1.00800000E+00  0.00000000E+00  1.60000000E+01  1.00800000E+00
  1.00800000E+00  0.00000000E+00  1.60000000E+01  1.00800000E+00  1.00800000E+00
  0.00000000E+00  1.60000000E+01  1.00800000E+00  1.00800000E+00  0.00000000E+00
  1.60000000E+01  1.00800000E+00  1.00800000E+00  0.00000000E+00  1.60000000E+01
  1.00800000E+00  1.00800000E+00  0.00000000E+00  1.60000000E+01  1.00800000E+00
  1.00800000E+00  0.00000000E+00  1.60000000E+01  1.00800000E+00  1.00800000E+00
  0.00000000E+00  1.60000000E+01  1.00800000E+00  1.00800000E+00  0.00000000E+00
  1.60000000E+01  1.00800000E+00  1.00800000E+00  0.00000000E+00  1.60000000E+01
  1.00800000E+00  1.00800000E+00  0.00000000E+00  1.60000000E+01  1.00800000E+00
  1.00800000E+00  0.00000000E+00  1.60000000E+01  1.00800000E+00  1.00800000E+00
  0.00000000E+00  1.60000000E+01  1.00800000E+00  1.00800000E+00  0.00000000E+00
  1.60000000E+01  1.00800000E+00  1.00800000E+00  0.00000000E+00  1.60000000E+01
  1.00800000E+00  1.00800000E+00  0.00000000E+00  1.60000000E+01  1.00800000E+00
  1.00800000E+00  0.00000000E+00  1.60000000E+01  1.00800000E+00  1.00800000E+00
  0.00000000E+00  1.60000000E+01  1.00800000E+00  1.00800000E+00  0.00000000E+00
  1.60000000E+01  1.00800000E+00  1.00800000E+00  0.00000000E+00  1.60000000E+01
  1.00800000E+00  1.00800000E+00  0.00000000E+00  1.60000000E+01  1.00800000E+00
  1.00800000E+00  0.00000000E+00  1.60000000E+01  1.00800000E+00  1.00800000E+00
  0.00000000E+00  1.60000000E+01  1.00800000E+00  1.00800000E+00  0.00000000E+00
  1.60000000E+01  1.00800000E+00  1.00800000E+00  0.00000000E+00  1.60000000E+01
  1.00800000E+00  1.00800000E+00  0.00000000E+00  1.60000000E+01  1.00800000E+00
  1.00800000E+00  0.00000000E+00  1.60000000E+01  1.00800000E+00  1.00800000E+00
  0.00000000E+00  1.60000000E+01  1.00800000E+00  1.00800000E+00  0.00000000E+00
  1.60000000E+01  1.00800000E+00  1.00800000E+00  0.00000000E+00  1.60000000E+01
  1.00800000E+00  1.00800000E+00  0.00000000E+00  1.60000000E+01  1.00800000E+00
  1.00800000E+00  0.00000000E+00  1.60000000E+01  1.00800000E+00  1.00800000E+00
  0.00000000E+00  1.60000000E+01  1.00800000E+00  1.00800000E+00  0.00000000E+00
  1.60000000E+01  1.00800000E+00  1.00800000E+00  0.00000000E+00  1.60000000E+01
  1.00800000E+00  1.00800000E+00  0.00000000E+00  1.60000000E+01  1.00800000E+00
  1.00800000E+00  0.00000000E+00  1.60000000E+01  1.00800000E+00  1.00800000E+00
  0.00000000E+00  1.60000000E+01  1.00800000E+00  1.00800000E+00  0.00000000E+00
  1.60000000E+01  1.00800000E+00  1.00800000E+00  0.00000000E+00  1.60000000E+01
  1.00800000E+00  1.00800000E+00  0.00000000E+00  1.60000000E+01  1.00800000E+00
  1.00800000E+00  0.00000000E+00  1.60000000E+01  1.00800000E+00  1.00800000E+00
  0.00000000E+00  1.60000000E+01  1.00800000E+00  1.00800000E+00  0.00000000E+00
  1.60000000E+01  1.00800000E+00  1.00800000E+00  0.00000000E+00  1.60000000E+01
  1.00800000E+00  1.00800000E+00  0.00000000E+00  1.60000000E+01  1.00800000E+00
  1.00800000E+00  0.00000000E+00  1.60000000E+01  1.00800000E+00  1.00800000E+00
  0.00000000E+00  1.60000000E+01  1.00800000E+00  1.00800000E+00  0.00000000E+00
  1.60000000E+01  1.00800000E+00  1.00800000E+00  0.00000000E+00  1.60000000E+01
  1.00800000E+00  1.00800000E+00  0.00000000E+00  1.60000000E+01  1.00800000E+00
  1.00800000E+00  0.00000000E+00  1.60000000E+01  1.00800000E+00  1.00800000E+00
  0.00000000E+00  1.60000000E+01  1.00800000E+00  1.00800000E+00  0.00000000E+00
  1.60000000E+01  1.00800000E+00  1.00800000E+00  0.00000000E+00  1.60000000E+01
  1.00800000E+00  1.00800000E+00  0.00000000E+00  1.60000000E+01  1.00800000E+00
  1.00800000E+00  0.00000000E+00  1.60000000E+01  1.00800000E+00  1.00800000E+00
  0.00000000E+00  1.60000000E+01  1.00800000E+00  1.00800000E+00  0.00000000E+00
  1.60000000E+01  1.00800000E+00  1.00800000E+00  0.00000000E+00  1.60000000E+01
  1.00800000E+00  1.00800000E+00  0.00000000E+00  1.60000000E+01  1.00800000E+00
  1.00800000E+00  0.00000000E+00  1.60000000E+01  1.00800000E+00  1.00800000E+00
  0.00000000E+00  1.60000000E+01  1.00800000E+00  1.00800000E+00  0.00000000E+00
  1.60000000E+01  1.00800000E+00  1.00800000E+00  0.00000000E+00  1.60000000E+01
  1.00800000E+00  1.00800000E+00  0.00000000E+00  1.60000000E+01  1.00800000E+00
  1.00800000E+00  0.00000000E+00  1.60000000E+01  1.00800000E+00  1.00800000E+00
  0.00000000E+00  1.60000000E+01  1.00800000E+00  1.00800000E+00  0.00000000E+00
  1.60000000E+01  1.00800000E+00  1.00800000E+00  0.00000000E+00  1.60000000E+01
  1.00800000E+00  1.00800000E+00  0.00000000E+00  1.60000000E+01  1.00800000E+00
  1.00800000E+00  0.00000000E+00  1.60000000E+01  1.00800000E+00  1.00800000E+00
  0.00000000E+00  1.60000000E+01  1.00800000E+00  1.00800000E+00  0.00000000E+00
  1.60000000E+01  1.00800000E+00  1.00800000E+00  0.00000000E+00  1.60000000E+01
  1.00800000E+00  1.00800000E+00  0.00000000E+00  1.60000000E+01  1.00800000E+00
  1.00800000E+00  0.00000000E+00  1.60000000E+01  1.00800000E+00  1.00800000E+00
  0.00000000E+00  1.60000000E+01  1.00800000E+00  1.00800000E+00  0.00000000E+00
  1.60000000E+01  1.00800000E+00  1.00800000E+00  0.00000000E+00  1.60000000E+01
  1.00800000E+00  1.00800000E+00  0.00000000E+00  1.60000000E+01  1.00800000E+00
  1.00800000E+00  0.00000000E+00  1.60000000E+01  1.00800000E+00  1.00800000E+00
  0.00000000E+00  1.60000000E+01  1.00800000E+00  1.00800000E+00  0.00000000E+00
  1.60000000E+01  1.00800000E+00  1.00800000E+00  0.00000000E+00  1.60000000E+01
  1.00800000E+00  1.00800000E+00  0.00000000E+00  1.60000000E+01  1.00800000E+00
  1.00800000E+00  0.00000000E+00  1.60000000E+01  1.00800000E+00  1.00800000E+00
  0.00000000E+00  1.60000000E+01  1.00800000E+00  1.00800000E+00  0.00000000E+00
  1.60000000E+01  1.00800000E+00  1.00800000E+00  0.00000000E+00  1.60000000E+01
  1.00800000E+00  1.00800000E+00  0.00000000E+00  1.60000000E+01  1.00800000E+00
  1.00800000E+00  0.00000000E+00  1.60000000E+01  1.00800000E+00  1.00800000E+00
  0.00000000E+00  1.60000000E+01  1.00800000E+00  1.00800000E+00  0.00000000E+00
  1.60000000E+01  1.00800000E+00  1.00800000E+00  0.00000000E+00  1.60000000E+01
  1.00800000E+00  1.00800000E+00  0.00000000E+00  1.60000000E+01  1.00800000E+00
  1.00800000E+00  0.00000000E+00  1.60000000E+01  1.00800000E+00  1.00800000E+00
  0.00000000E+00  1.60000000E+01  1.00800000E+00  1.00800000E+00  0.00000000E+00
  1.60000000E+01  1.00800000E+00  1.00800000E+00  0.00000000E+00  1.60000000E+01
  1.00800000E+00  1.00800000E+00  0.00000000E+00  1.60000000E+01  1.00800000E+00
  1.00800000E+00  0.00000000E+00  1.60000000E+01  1.00800000E+00  1.00800000E+00
  0.00000000E+00  1.60000000E+01  1.00800000E+00  1.00800000E+00  0.00000000E+00
  1.60000000E+01  1.00800000E+00  1.00800000E+00  0.00000000E+00  1.60000000E+01
  1.00800000E+00  1.00800000E+00  0.00000000E+00  1.60000000E+01  1.00800000E+00
  1.00800000E+00  0.00000000E+00  1.60000000E+01  1.00800000E+00  1.00800000E+00
  0.00000000E+00  1.60000000E+01  1.00800000E+00  1.00800000E+00  0.00000000E+00
  1.60000000E+01  1.00800000E+00  1.00800000E+00  0.00000000E+00  1.60000000E+01
  1.00800000E+00  1.00800000E+00  0.00000000E+00  1.60000000E+01  1.00800000E+00
  1.00800000E+00  0.00000000E+00  1.60000000E+01  1.00800000E+00  1.00800000E+00
  0.00000000E+00  1.60000000E+01  1.00800000E+00  1.00800000E+00  0.00000000E+00
  1.60000000E+01  1.00800000E+00  1.00800000E+00  0.00000000E+00  1.60000000E+01
  1.00800000E+00  1.00800000E+00  0.00000000E+00  1.60000000E+01  1.00800000E+00
  1.00800000E+00  0.00000000E+00  1.60000000E+01  1.00800000E+00  1.00800000E+00
  0.00000000E+00  1.60000000E+01  1.00800000E+00  1.00800000E+00  0.00000000E+00
  1.60000000E+01  1.00800000E+00  1.00800000E+00  0.00000000E+00  1.60000000E+01
  1.00800000E+00  1.00800000E+00  0.00000000E+00  1.60000000E+01  1.00800000E+00
  1.00800000E+00  0.00000000E+00  1.60000000E+01  1.00800000E+00  1.00800000E+00
  0.00000000E+00  1.60000000E+01  1.00800000E+00  1.00800000E+00  0.00000000E+00
  1.60000000E+01  1.00800000E+00  1.00800000E+00  0.00000000E+00  1.60000000E+01
  1.00800000E+00  1.00800000E+00  0.00000000E+00  1.60000000E+01  1.00800000E+00
  1.00800000E+00  0.00000000E+00  1.60000000E+01  1.00800000E+00  1.00800000E+00
  0.00000000E+00  1.60000000E+01  1.00800000E+00  1.00800000E+00  0.00000000E+00
  1.60000000E+01  1.00800000E+00  1.00800000E+00  0.00000000E+00  1.60000000E+01
  1.00800000E+00  1.00800000E+00  0.00000000E+00  1.60000000E+01  1.00800000E+00
  1.00800000E+00  0.00000000E+00  1.60000000E+01  1.00800000E+00  1.00800000E+00
  0.00000000E+00  1.60000000E+01  1.00800000E+00  1.00800000E+00  0.00000000E+00
  1.60000000E+01  1.00800000E+00  1.00800000E+00  0.00000000E+00  1.60000000E+01
  1.00800000E+00  1.00800000E+00  0.00000000E+00  1.60000000E+01  1.00800000E+00
  1.00800000E+00  0.00000000E+00  1.60000000E+01  1.00800000E+00  1.00800000E+00
  0.00000000E+00  1.60000000E+01  1.00800000E+00  1.00800000E+00  0.00000000E+00
  1.60000000E+01  1.00800000E+00  1.00800000E+00  0.00000000E+00  1.60000000E+01
  1.00800000E+00  1.00800000E+00  0.00000000E+00  1.60000000E+01  1.00800000E+00
  1.00800000E+00  0.00000000E+00  1.60000000E+01  1.00800000E+00  1.00800000E+00
  0.00000000E+00  1.60000000E+01  1.00800000E+00  1.00800000E+00  0.00000000E+00
  1.60000000E+01  1.00800000E+00  1.00800000E+00  0.00000000E+00  1.60000000E+01
  1.00800000E+00  1.00800000E+00  0.00000000E+00  1.60000000E+01  1.00800000E+00
  1.00800000E+00  0.00000000E+00  1.60000000E+01  1.00800000E+00  1.00800000E+00
  0.00000000E+00  1.60000000E+01  1.00800000E+00  1.00800000E+00  0.00000000E+00
  1.60000000E+01  1.00800000E+00  1.00800000E+00  0.00000000E+00  1.60000000E+01
  1.00800000E+00  1.00800000E+00  0.00000000E+00  1.60000000E+01  1.00800000E+00
  1.00800000E+00  0.00000000E+00  1.60000000E+01  1.00800000E+00  1.00800000E+00
  0.00000000E+00  1.60000000E+01  1.00800000E+00  1.00800000E+00  0.00000000E+00
  1.60000000E+01  1.00800000E+00  1.00800000E+00  0.00000000E+00  1.60000000E+01
  1.00800000E+00  1.00800000E+00  0.00000000E+00  1.60000000E+01  1.00800000E+00
  1.00800000E+00  0.00000000E+00  1.60000000E+01  1.00800000E+00  1.00800000E+00
  0.00000000E+00  1.60000000E+01  1.00800000E+00  1.00800000E+00  0.00000000E+00
  1.60000000E+01  1.00800000E+00  1.00800000E+00  0.00000000E+00  1.60000000E+01
  1.00800000E+00  1.00800000E+00  0.00000000E+00  1.60000000E+01  1.00800000E+00
  1.00800000E+00  0.00000000E+00  1.60000000E+01  1.00800000E+00  1.00800000E+00
  0.00000000E+00  1.60000000E+01  1.00800000E+00  1.00800000E+00  0.00000000E+00
  1.60000000E+01  1.00800000E+00  1.00800000E+00  0.00000000E+00  1.60000000E+01
  1.00800000E+00  1.00800000E+00  0.00000000E+00  1.60000000E+01  1.00800000E+00
  1.00800000E+00  0.00000000E+00  1.60000000E+01  1.00800000E+00  1.00800000E+00
  0.00000000E+00  1.60000000E+01  1.00800000E+00  1.00800000E+00  0.00000000E+00
  1.60000000E+01  1.00800000E+00  1.00800000E+00  0.00000000E+00  1.60000000E+01
  1.00800000E+00  1.00800000E+00  0.00000000E+00  1.60000000E+01  1.00800000E+00
  1.00800000E+00  0.00000000E+00  1.60000000E+01  1.00800000E+00  1.00800000E+00
  0.00000000E+00  1.60000000E+01  1.00800000E+00  1.00800000E+00  0.00000000E+00
  1.60000000E+01  1.00800000E+00  1.00800000E+00  0.00000000E+00  1.60000000E+01
  1.00800000E+00  1.00800000E+00  0.00000000E+00  1.60000000E+01  1.00800000E+00
  1.00800000E+00  0.00000000E+00  1.60000000E+01  1.00800000E+00  1.00800000E+00
  0.00000000E+00  1.60000000E+01  1.00800000E+00  1.00800000E+00  0.00000000E+00
  1.60000000E+01  1.00800000E+00  1.00800000E+00  0.00000000E+00  1.60000000E+01
  1.00800000E+00  1.00800000E+00  0.00000000E+00  1.60000000E+01  1.00800000E+00
  1.00800000E+00  0.00000000E+00  1.60000000E+01  1.00800000E+00  1.00800000E+00
  0.00000000E+00  1.60000000E+01  1.00800000E+00  1.00800000E+00  0.00000000E+00
  1.60000000E+01  1.00800000E+00  1.00800000E+00  0.00000000E+00  1.60000000E+01
  1.00800000E+00  1.00800000E+00  0.00000000E+00  1.60000000E+01  1.00800000E+00
  1.00800000E+00  0.00000000E+00  1.60000000E+01  1.00800000E+00  1.00800000E+00
  0.00000000E+00  1.60000000E+01  1.00800000E+00  1.00800000E+00  0.00000000E+00
  1.60000000E+01  1.00800000E+00  1.00800000E+00  0.00000000E+00  1.60000000E+01
  1.00800000E+00  1.00800000E+00  0.00000000E+00  1.60000000E+01  1.00800000E+00
  1.00800000E+00  0.00000000E+00  1.60000000E+01  1.00800000E+00  1.00800000E+00
  0.00000000E+00  1.60000000E+01  1.00800000E+00  1.00800000E+00  0.00000000E+00
  1.60000000E+01  1.00800000E+00  1.00800000E+00  0.00000000E+00  1.60000000E+01
  1.00800000E+00  1.00800000E+00  0.00000000E+00  1.60000000E+01  1.00800000E+00
  1.00800000E+00  0.00000000E+00  1.60000000E+01  1.00800000E+00  1.00800000E+00
  0.00000000E+00  1.60000000E+01  1.00800000E+00  1.00800000E+00  0.00000000E+00
  1.60000000E+01  1.00800000E+00  1.00800000E+00  0.00000000E+00  1.60000000E+01
  1.00800000E+00  1.00800000E+00  0.00000000E+00  1.60000000E+01  1.00800000E+00
  1.00800000E+00  0.00000000E+00  1.60000000E+01  1.00800000E+00  1.00800000E+00
  0.00000000E+00  1.60000000E+01  1.00800000E+00  1.00800000E+00  0.00000000E+00
  1.60000000E+01  1.00800000E+00  1.00800000E+00  0.00000000E+00  1.60000000E+01
  1.00800000E+00  1.00800000E+00  0.00000000E+00  1.60000000E+01  1.00800000E+00
  1.00800000E+00  0.00000000E+00  1.60000000E+01  1.00800000E+00  1.00800000E+00
  0.00000000E+00  1.60000000E+01  1.00800000E+00  1.00800000E+00  0.00000000E+00
  1.60000000E+01  1.00800000E+00  1.00800000E+00  0.00000000E+00  1.60000000E+01
  1.00800000E+00  1.00800000E+00  0.00000000E+00  1.60000000E+01  1.00800000E+00
  1.00800000E+00  0.00000000E+00  1.60000000E+01  1.00800000E+00  1.00800000E+00
  0.00000000E+00  1.60000000E+01  1.00800000E+00  1.00800000E+00  0.00000000E+00
  1.60000000E+01  1.00800000E+00  1.00800000E+00  0.00000000E+00  1.60000000E+01
  1.00800000E+00  1.00800000E+00  0.00000000E+00  1.60000000E+01  1.00800000E+00
  1.00800000E+00  0.00000000E+00  1.60000000E+01  1.00800000E+00  1.00800000E+00
  0.00000000E+00  1.60000000E+01  1.00800000E+00  1.00800000E+00  0.00000000E+00
  1.60000000E+01  1.00800000E+00  1.00800000E+00  0.00000000E+00  1.60000000E+01
  1.00800000E+00  1.00800000E+00  0.00000000E+00  1.60000000E+01  1.00800000E+00
  1.00800000E+00  0.00000000E+00  1.60000000E+01  1.00800000E+00  1.00800000E+00
  0.00000000E+00  1.60000000E+01  1.00800000E+00  1.00800000E+00  0.00000000E+00
  1.60000000E+01  1.00800000E+00  1.00800000E+00  0.00000000E+00  1.60000000E+01
  1.00800000E+00  1.00800000E+00  0.00000000E+00  1.60000000E+01  1.00800000E+00
  1.00800000E+00  0.00000000E+00  1.60000000E+01  1.00800000E+00  1.00800000E+00
  0.00000000E+00  1.60000000E+01  1.00800000E+00  1.00800000E+00  0.00000000E+00
  1.60000000E+01  1.00800000E+00  1.00800000E+00  0.00000000E+00  1.60000000E+01
  1.00800000E+00  1.00800000E+00  0.00000000E+00  1.60000000E+01  1.00800000E+00
  1.00800000E+00  0.00000000E+00  1.60000000E+01  1.00800000E+00  1.00800000E+00
  0.00000000E+00  1.60000000E+01  1.00800000E+00  1.00800000E+00  0.00000000E+00
  1.60000000E+01  1.00800000E+00  1.00800000E+00  0.00000000E+00  1.60000000E+01
  1.00800000E+00  1.00800000E+00  0.00000000E+00  1.60000000E+01  1.00800000E+00
  1.00800000E+00  0.00000000E+00  1.60000000E+01  1.00800000E+00  1.00800000E+00
  0.00000000E+00  1.60000000E+01  1.00800000E+00  1.00800000E+00  0.00000000E+00
  1.60000000E+01  1.00800000E+00  1.00800000E+00  0.00000000E+00  1.60000000E+01
  1.00800000E+00  1.00800000E+00  0.00000000E+00  1.60000000E+01  1.00800000E+00
  1.00800000E+00  0.00000000E+00  1.60000000E+01  1.00800000E+00  1.00800000E+00
  0.00000000E+00  1.60000000E+01  1.00800000E+00  1.00800000E+00  0.00000000E+00
  1.60000000E+01  1.00800000E+00  1.00800000E+00  0.00000000E+00  1.60000000E+01
  1.00800000E+00  1.00800000E+00  0.00000000E+00  1.60000000E+01  1.00800000E+00
  1.00800000E+00  0.00000000E+00  1.60000000E+01  1.00800000E+00  1.00800000E+00
  0.00000000E+00  1.60000000E+01  1.00800000E+00  1.00800000E+00  0.00000000E+00
  1.60000000E+01  1.00800000E+00  1.00800000E+00  0.00000000E+00  1.60000000E+01
  1.00800000E+00  1.00800000E+00  0.00000000E+00  1.60000000E+01  1.00800000E+00
  1.00800000E+00  0.00000000E+00  1.60000000E+01  1.00800000E+00  1.00800000E+00
  0.00000000E+00  1.60000000E+01  1.00800000E+00  1.00800000E+00  0.00000000E+00
  1.60000000E+01  1.00800000E+00  1.00800000E+00  0.00000000E+00  1.60000000E+01
  1.00800000E+00  1.00800000E+00  0.00000000E+00  1.60000000E+01  1.00800000E+00
  1.00800000E+00  0.00000000E+00  1.60000000E+01  1.00800000E+00  1.00800000E+00
  0.00000000E+00  1.60000000E+01  1.00800000E+00  1.00800000E+00  0.00000000E+00
  1.60000000E+01  1.00800000E+00  1.00800000E+00  0.00000000E+00  1.60000000E+01
  1.00800000E+00  1.00800000E+00  0.00000000E+00  1.60000000E+01  1.00800000E+00
  1.00800000E+00  0.00000000E+00  1.60000000E+01  1.00800000E+00  1.00800000E+00
  0.00000000E+00  1.60000000E+01  1.00800000E+00  1.00800000E+00  0.00000000E+00
  1.60000000E+01  1.00800000E+00  1.00800000E+00  0.00000000E+00  1.60000000E+01
  1.00800000E+00  1.00800000E+00  0.00000000E+00  1.60000000E+01  1.00800000E+00
  1.00800000E+00  0.00000000E+00  1.60000000E+01  1.00800000E+00  1.00800000E+00
  0.00000000E+00  1.60000000E+01  1.00800000E+00  1.00800000E+00  0.00000000E+00
  1.60000000E+01  1.00800000E+00  1.00800000E+00  0.00000000E+00  1.60000000E+01
  1.00800000E+00  1.00800000E+00  0.00000000E+00  1.60000000E+01  1.00800000E+00
  1.00800000E+00  0.00000000E+00  1.60000000E+01  1.00800000E+00  1.00800000E+00
  0.00000000E+00  1.60000000E+01  1.00800000E+00  1.00800000E+00  0.00000000E+00
  1.60000000E+01  1.00800000E+00  1.00800000E+00  0.00000000E+00  1.60000000E+01
  1.00800000E+00  1.00800000E+00  0.00000000E+00  1.60000000E+01  1.00800000E+00
  1.00800000E+00  0.00000000E+00  1.60000000E+01  1.00800000E+00  1.00800000E+00
  0.00000000E+00  1.60000000E+01  1.00800000E+00  1.00800000E+00  0.00000000E+00
  1.60000000E+01  1.00800000E+00  1.00800000E+00  0.00000000E+00  1.60000000E+01
  1.00800000E+00  1.00800000E+00  0.00000000E+00  1.60000000E+01  1.00800000E+00
  1.00800000E+00  0.00000000E+00  1.60000000E+01  1.00800000E+00  1.00800000E+00
  0.00000000E+00  1.60000000E+01  1.00800000E+00  1.00800000E+00  0.00000000E+00
  1.60000000E+01  1.00800000E+00  1.00800000E+00  0.00000000E+00  1.60000000E+01
  1.00800000E+00  1.00800000E+00  0.00000000E+00  1.60000000E+01  1.00800000E+00
  1.00800000E+00  0.00000000E+00  1.60000000E+01  1.00800000E+00  1.00800000E+00
  0.00000000E+00  1.60000000E+01  1.00800000E+00  1.00800000E+00  0.00000000E+00
  1.60000000E+01  1.00800000E+00  1.00800000E+00  0.00000000E+00  1.60000000E+01
  1.00800000E+00  1.00800000E+00  0.00000000E+00  1.60000000E+01  1.00800000E+00
  1.00800000E+00  0.00000000E+00  1.60000000E+01  1.00800000E+00  1.00800000E+00
  0.00000000E+00  1.60000000E+01  1.00800000E+00  1.00800000E+00  0.00000000E+00
  1.60000000E+01  1.00800000E+00  1.00800000E+00  0.00000000E+00  1.60000000E+01
  1.00800000E+00  1.00800000E+00  0.00000000E+00  1.60000000E+01  1.00800000E+00
  1.00800000E+00  0.00000000E+00  1.60000000E+01  1.00800000E+00  1.00800000E+00
  0.00000000E+00  1.60000000E+01  1.00800000E+00  1.00800000E+00  0.00000000E+00
  1.60000000E+01  1.00800000E+00  1.00800000E+00  0.00000000E+00  1.60000000E+01
  1.00800000E+00  1.00800000E+00  0.00000000E+00  1.60000000E+01  1.00800000E+00
  1.00800000E+00  0.00000000E+00  1.60000000E+01  1.00800000E+00  1.00800000E+00
  0.00000000E+00  1.60000000E+01  1.00800000E+00  1.00800000E+00  0.00000000E+00
  1.60000000E+01  1.00800000E+00  1.00800000E+00  0.00000000E+00  1.60000000E+01
  1.00800000E+00  1.00800000E+00  0.00000000E+00  1.60000000E+01  1.00800000E+00
  1.00800000E+00  0.00000000E+00  1.60000000E+01  1.00800000E+00  1.00800000E+00
  0.00000000E+00  1.60000000E+01  1.00800000E+00  1.00800000E+00  0.00000000E+00
  1.60000000E+01  1.00800000E+00  1.00800000E+00  0.00000000E+00  1.60000000E+01
  1.00800000E+00  1.00800000E+00  0.00000000E+00  1.60000000E+01  1.00800000E+00
  1.00800000E+00  0.00000000E+00  1.60000000E+01  1.00800000E+00  1.00800000E+00
  0.00000000E+00  1.60000000E+01  1.00800000E+00  1.00800000E+00  0.00000000E+00
  1.60000000E+01  1.00800000E+00  1.00800000E+00  0.00000000E+00  1.60000000E+01
  1.00800000E+00  1.00800000E+00  0.00000000E+00  1.60000000E+01  1.00800000E+00
  1.00800000E+00  0.00000000E+00  1.60000000E+01  1.00800000E+00  1.00800000E+00
  0.00000000E+00  1.60000000E+01  1.00800000E+00  1.00800000E+00  0.00000000E+00
  1.60000000E+01  1.00800000E+00  1.00800000E+00  0.00000000E+00  1.60000000E+01
  1.00800000E+00  1.00800000E+00  0.00000000E+00  1.60000000E+01  1.00800000E+00
  1.00800000E+00  0.00000000E+00  1.60000000E+01  1.00800000E+00  1.00800000E+00
  0.00000000E+00  1.60000000E+01  1.00800000E+00  1.00800000E+00  0.00000000E+00
  1.60000000E+01  1.00800000E+00  1.00800000E+00  0.00000000E+00  1.60000000E+01
  1.00800000E+00  1.00800000E+00  0.00000000E+00  1.60000000E+01  1.00800000E+00
  1.00800000E+00  0.00000000E+00  1.60000000E+01  1.00800000E+00  1.00800000E+00
  0.00000000E+00  1.60000000E+01  1.00800000E+00  1.00800000E+00  0.00000000E+00
  1.60000000E+01  1.00800000E+00  1.00800000E+00  0.00000000E+00  1.60000000E+01
  1.00800000E+00  1.00800000E+00  0.00000000E+00  1.60000000E+01  1.00800000E+00
  1.00800000E+00  0.00000000E+00  1.60000000E+01  1.00800000E+00  1.00800000E+00
  0.00000000E+00  1.60000000E+01  1.00800000E+00  1.00800000E+00  0.00000000E+00
  1.60000000E+01  1.00800000E+00  1.00800000E+00  0.00000000E+00  1.60000000E+01
  1.00800000E+00  1.00800000E+00  0.00000000E+00  1.60000000E+01  1.00800000E+00
  1.00800000E+00  0.00000000E+00  1.60000000E+01  1.00800000E+00  1.00800000E+00
  0.00000000E+00  1.60000000E+01  1.00800000E+00  1.00800000E+00  0.00000000E+00
  1.60000000E+01  1.00800000E+00  1.00800000E+00  0.00000000E+00  1.60000000E+01
  1.00800000E+00  1.00800000E+00  0.00000000E+00  1.60000000E+01  1.00800000E+00
  1.00800000E+00  0.00000000E+00  1.60000000E+01  1.00800000E+00  1.00800000E+00
  0.00000000E+00  1.60000000E+01  1.00800000E+00  1.00800000E+00  0.00000000E+00
  1.60000000E+01  1.00800000E+00  1.00800000E+00  0.00000000E+00  1.60000000E+01
  1.00800000E+00  1.00800000E+00  0.00000000E+00  1.60000000E+01  1.00800000E+00
  1.00800000E+00  0.00000000E+00  1.60000000E+01  1.00800000E+00  1.00800000E+00
  0.00000000E+00  1.60000000E+01  1.00800000E+00  1.00800000E+00  0.00000000E+00
  1.60000000E+01  1.00800000E+00  1.00800000E+00  0.00000000E+00  1.60000000E+01
  1.00800000E+00  1.00800000E+00  0.00000000E+00  1.60000000E+01  1.00800000E+00
  1.00800000E+00  0.00000000E+00  1.60000000E+01  1.00800000E+00  1.00800000E+00
  0.00000000E+00  1.60000000E+01  1.00800000E+00  1.00800000E+00  0.00000000E+00
  1.60000000E+01  1.00800000E+00  1.00800000E+00  0.00000000E+00  1.60000000E+01
  1.00800000E+00  1.00800000E+00  0.00000000E+00  1.60000000E+01  1.00800000E+00
  1.00800000E+00  0.00000000E+00  1.60000000E+01  1.00800000E+00  1.00800000E+00
  0.00000000E+00  1.60000000E+01  1.00800000E+00  1.00800000E+00  0.00000000E+00
  1.60000000E+01  1.00800000E+00  1.00800000E+00  0.00000000E+00  1.60000000E+01
  1.00800000E+00  1.00800000E+00  0.00000000E+00  1.60000000E+01  1.00800000E+00
  1.00800000E+00  0.00000000E+00  1.60000000E+01  1.00800000E+00  1.00800000E+00
  0.00000000E+00  1.60000000E+01  1.00800000E+00  1.00800000E+00  0.00000000E+00
  1.60000000E+01  1.00800000E+00  1.00800000E+00  0.00000000E+00  1.60000000E+01
  1.00800000E+00  1.00800000E+00  0.00000000E+00  1.60000000E+01  1.00800000E+00
  1.00800000E+00  0.00000000E+00  1.60000000E+01  1.00800000E+00  1.00800000E+00
  0.00000000E+00  1.60000000E+01  1.00800000E+00  1.00800000E+00  0.00000000E+00
  1.60000000E+01  1.00800000E+00  1.00800000E+00  0.00000000E+00  1.60000000E+01
  1.00800000E+00  1.00800000E+00  0.00000000E+00  1.60000000E+01  1.00800000E+00
  1.00800000E+00  0.00000000E+00  1.60000000E+01  1.00800000E+00  1.00800000E+00
  0.00000000E+00  1.60000000E+01  1.00800000E+00  1.00800000E+00  0.00000000E+00
  1.60000000E+01  1.00800000E+00  1.00800000E+00  0.00000000E+00  1.60000000E+01
  1.00800000E+00  1.00800000E+00  0.00000000E+00  1.60000000E+01  1.00800000E+00
  1.00800000E+00  0.00000000E+00  1.60000000E+01  1.00800000E+00  1.00800000E+00
  0.00000000E+00  1.60000000E+01  1.00800000E+00  1.00800000E+00  0.00000000E+00
  1.60000000E+01  1.00800000E+00  1.00800000E+00  0.00000000E+00  1.60000000E+01
  1.00800000E+00  1.00800000E+00  0.00000000E+00  1.60000000E+01  1.00800000E+00
  1.00800000E+00  0.00000000E+00  1.60000000E+01  1.00800000E+00  1.00800000E+00
  0.00000000E+00  1.60000000E+01  1.00800000E+00  1.00800000E+00  0.00000000E+00
  1.60000000E+01  1.00800000E+00  1.00800000E+00  0.00000000E+00  1.60000000E+01
  1.00800000E+00  1.00800000E+00  0.00000000E+00  1.60000000E+01  1.00800000E+00
  1.00800000E+00  0.00000000E+00  1.60000000E+01  1.00800000E+00  1.00800000E+00
  0.00000000E+00  1.60000000E+01  1.00800000E+00  1.00800000E+00  0.00000000E+00
  1.60000000E+01  1.00800000E+00  1.00800000E+00  0.00000000E+00  1.60000000E+01
  1.00800000E+00  1.00800000E+00  0.00000000E+00  1.60000000E+01  1.00800000E+00
  1.00800000E+00  0.00000000E+00  1.60000000E+01  1.00800000E+00  1.00800000E+00
  0.00000000E+00  1.60000000E+01  1.00800000E+00  1.00800000E+00  0.00000000E+00
  1.60000000E+01  1.00800000E+00  1.00800000E+00  0.00000000E+00  1.60000000E+01
  1.00800000E+00  1.00800000E+00  0.00000000E+00  1.60000000E+01  1.00800000E+00
  1.00800000E+00  0.00000000E+00  1.60000000E+01  1.00800000E+00  1.00800000E+00
  0.00000000E+00  1.60000000E+01  1.00800000E+00  1.00800000E+00  0.00000000E+00
  1.60000000E+01  1.00800000E+00  1.00800000E+00  0.00000000E+00  1.60000000E+01
  1.00800000E+00  1.00800000E+00  0.00000000E+00  1.60000000E+01  1.00800000E+00
  1.00800000E+00  0.00000000E+00  1.60000000E+01  1.00800000E+00  1.00800000E+00
  0.00000000E+00  1.60000000E+01  1.00800000E+00  1.00800000E+00  0.00000000E+00
  1.60000000E+01  1.00800000E+00  1.00800000E+00  0.00000000E+00  1.60000000E+01
  1.00800000E+00  1.00800000E+00  0.00000000E+00  1.60000000E+01  1.00800000E+00
  1.00800000E+00  0.00000000E+00  1.60000000E+01  1.00800000E+00  1.00800000E+00
  0.00000000E+00  1.60000000E+01  1.00800000E+00  1.00800000E+00  0.00000000E+00
  1.60000000E+01  1.00800000E+00  1.00800000E+00  0.00000000E+00  1.60000000E+01
  1.00800000E+00  1.00800000E+00  0.00000000E+00  1.60000000E+01  1.00800000E+00
  1.00800000E+00  0.00000000E+00  1.60000000E+01  1.00800000E+00  1.00800000E+00
  0.00000000E+00  1.60000000E+01  1.00800000E+00  1.00800000E+00  0.00000000E+00
  1.60000000E+01  1.00800000E+00  1.00800000E+00  0.00000000E+00  1.60000000E+01
  1.00800000E+00  1.00800000E+00  0.00000000E+00  1.60000000E+01  1.00800000E+00
  1.00800000E+00  0.00000000E+00  1.60000000E+01  1.00800000E+00  1.00800000E+00
  0.00000000E+00  1.60000000E+01  1.00800000E+00  1.00800000E+00  0.00000000E+00
  1.60000000E+01  1.00800000E+00  1.00800000E+00  0.00000000E+00  1.60000000E+01
  1.00800000E+00  1.00800000E+00  0.00000000E+00  1.60000000E+01  1.00800000E+00
  1.00800000E+00  0.00000000E+00  1.60000000E+01  1.00800000E+00  1.00800000E+00
  0.00000000E+00  1.60000000E+01  1.00800000E+00  1.00800000E+00  0.00000000E+00
  1.60000000E+01  1.00800000E+00  1.00800000E+00  0.00000000E+00  1.60000000E+01
  1.00800000E+00  1.00800000E+00  0.00000000E+00  1.60000000E+01  1.00800000E+00
  1.00800000E+00  0.00000000E+00  1.60000000E+01  1.00800000E+00  1.00800000E+00
  0.00000000E+00  1.60000000E+01  1.00800000E+00  1.00800000E+00  0.00000000E+00
  1.60000000E+01  1.00800000E+00  1.00800000E+00  0.00000000E+00  1.60000000E+01
  1.00800000E+00  1.00800000E+00  0.00000000E+00  1.60000000E+01  1.00800000E+00
  1.00800000E+00  0.00000000E+00  1.60000000E+01  1.00800000E+00  1.00800000E+00
  0.00000000E+00  1.60000000E+01  1.00800000E+00  1.00800000E+00  0.00000000E+00
  1.60000000E+01  1.00800000E+00  1.00800000E+00  0.00000000E+00  1.60000000E+01
  1.00800000E+00  1.00800000E+00  0.00000000E+00  1.60000000E+01  1.00800000E+00
  1.00800000E+00  0.00000000E+00  1.60000000E+01  1.00800000E+00  1.00800000E+00
  0.00000000E+00  1.60000000E+01  1.00800000E+00  1.00800000E+00  0.00000000E+00
  1.60000000E+01  1.00800000E+00  1.00800000E+00  0.00000000E+00  1.60000000E+01
  1.00800000E+00  1.00800000E+00  0.00000000E+00  1.60000000E+01  1.00800000E+00
  1.00800000E+00  0.00000000E+00  1.60000000E+01  1.00800000E+00  1.00800000E+00
  0.00000000E+00  1.60000000E+01  1.00800000E+00  1.00800000E+00  0.00000000E+00
  1.60000000E+01  1.00800000E+00  1.00800000E+00  0.00000000E+00  1.60000000E+01
  1.00800000E+00  1.00800000E+00  0.00000000E+00  1.60000000E+01  1.00800000E+00
  1.00800000E+00  0.00000000E+00  1.60000000E+01  1.00800000E+00  1.00800000E+00
  0.00000000E+00  1.60000000E+01  1.00800000E+00  1.00800000E+00  0.00000000E+00
  1.60000000E+01  1.00800000E+00  1.00800000E+00  0.00000000E+00  1.60000000E+01
  1.00800000E+00  1.00800000E+00  0.00000000E+00  1.60000000E+01  1.00800000E+00
  1.00800000E+00  0.00000000E+00  1.60000000E+01  1.00800000E+00  1.00800000E+00
  0.00000000E+00  1.60000000E+01  1.00800000E+00  1.00800000E+00  0.00000000E+00
  1.60000000E+01  1.00800000E+00  1.00800000E+00  0.00000000E+00  1.60000000E+01
  1.00800000E+00  1.00800000E+00  0.00000000E+00  1.60000000E+01  1.00800000E+00
  1.00800000E+00  0.00000000E+00  1.60000000E+01  1.00800000E+00  1.00800000E+00
  0.00000000E+00  1.60000000E+01  1.00800000E+00  1.00800000E+00  0.00000000E+00
  1.60000000E+01  1.00800000E+00  1.00800000E+00  0.00000000E+00  1.60000000E+01
  1.00800000E+00  1.00800000E+00  0.00000000E+00  1.60000000E+01  1.00800000E+00
  1.00800000E+00  0.00000000E+00  1.60000000E+01  1.00800000E+00  1.00800000E+00
  0.00000000E+00  1.60000000E+01  1.00800000E+00  1.00800000E+00  0.00000000E+00
  1.60000000E+01  1.00800000E+00  1.00800000E+00  0.00000000E+00  1.60000000E+01
  1.00800000E+00  1.00800000E+00  0.00000000E+00  1.60000000E+01  1.00800000E+00
  1.00800000E+00  0.00000000E+00  1.60000000E+01  1.00800000E+00  1.00800000E+00
  0.00000000E+00  1.60000000E+01  1.00800000E+00  1.00800000E+00  0.00000000E+00
  1.60000000E+01  1.00800000E+00  1.00800000E+00  0.00000000E+00  1.60000000E+01
  1.00800000E+00  1.00800000E+00  0.00000000E+00  1.60000000E+01  1.00800000E+00
  1.00800000E+00  0.00000000E+00  1.60000000E+01  1.00800000E+00  1.00800000E+00
  0.00000000E+00  1.60000000E+01  1.00800000E+00  1.00800000E+00  0.00000000E+00
  1.60000000E+01  1.00800000E+00  1.00800000E+00  0.00000000E+00  1.60000000E+01
  1.00800000E+00  1.00800000E+00  0.00000000E+00  1.60000000E+01  1.00800000E+00
  1.00800000E+00  0.00000000E+00  1.60000000E+01  1.00800000E+00  1.00800000E+00
  0.00000000E+00  1.60000000E+01  1.00800000E+00  1.00800000E+00  0.00000000E+00
  1.60000000E+01  1.00800000E+00  1.00800000E+00  0.00000000E+00  1.60000000E+01
  1.00800000E+00  1.00800000E+00  0.00000000E+00  1.60000000E+01  1.00800000E+00
  1.00800000E+00  0.00000000E+00  1.60000000E+01  1.00800000E+00  1.00800000E+00
  0.00000000E+00  1.60000000E+01  1.00800000E+00  1.00800000E+00  0.00000000E+00
  1.60000000E+01  1.00800000E+00  1.00800000E+00  0.00000000E+00  1.60000000E+01
  1.00800000E+00  1.00800000E+00  0.00000000E+00  1.60000000E+01  1.00800000E+00
  1.00800000E+00  0.00000000E+00  1.60000000E+01  1.00800000E+00  1.00800000E+00
  0.00000000E+00  1.60000000E+01  1.00800000E+00  1.00800000E+00  0.00000000E+00
  1.60000000E+01  1.00800000E+00  1.00800000E+00  0.00000000E+00  1.60000000E+01
  1.00800000E+00  1.00800000E+00  0.00000000E+00  1.60000000E+01  1.00800000E+00
  1.00800000E+00  0.00000000E+00  1.60000000E+01  1.00800000E+00  1.00800000E+00
  0.00000000E+00  1.60000000E+01  1.00800000E+00  1.00800000E+00  0.00000000E+00
  1.60000000E+01  1.00800000E+00  1.00800000E+00  0.00000000E+00  1.60000000E+01
  1.00800000E+00  1.00800000E+00  0.00000000E+00  1.60000000E+01  1.00800000E+00
  1.00800000E+00  0.00000000E+00  1.60000000E+01  1.00800000E+00  1.00800000E+00
  0.00000000E+00  1.60000000E+01  1.00800000E+00  1.00800000E+00  0.00000000E+00
  1.60000000E+01  1.00800000E+00  1.00800000E+00  0.00000000E+00  1.60000000E+01
  1.00800000E+00  1.00800000E+00  0.00000000E+00  1.60000000E+01  1.00800000E+00
  1.00800000E+00  0.00000000E+00  1.60000000E+01  1.00800000E+00  1.00800000E+00
  0.00000000E+00  1.60000000E+01  1.00800000E+00  1.00800000E+00  0.00000000E+00
  1.60000000E+01  1.00800000E+00  1.00800000E+00  0.00000000E+00  1.60000000E+01
  1.00800000E+00  1.00800000E+00  0.00000000E+00  1.60000000E+01  1.00800000E+00
  1.00800000E+00  0.00000000E+00  1.60000000E+01  1.00800000E+00  1.00800000E+00
  0.00000000E+00  1.60000000E+01  1.00800000E+00  1.00800000E+00  0.00000000E+00
  1.60000000E+01  1.00800000E+00  1.00800000E+00  0.00000000E+00  1.60000000E+01
  1.00800000E+00  1.00800000E+00  0.00000000E+00  1.60000000E+01  1.00800000E+00
  1.00800000E+00  0.00000000E+00  1.60000000E+01  1.00800000E+00  1.00800000E+00
  0.00000000E+00  1.60000000E+01  1.00800000E+00  1.00800000E+00  0.00000000E+00
  1.60000000E+01  1.00800000E+00  1.00800000E+00  0.00000000E+00  1.60000000E+01
  1.00800000E+00  1.00800000E+00  0.00000000E+00  1.60000000E+01  1.00800000E+00
  1.00800000E+00  0.00000000E+00  1.60000000E+01  1.00800000E+00  1.00800000E+00
  0.00000000E+00  1.60000000E+01  1.00800000E+00  1.00800000E+00  0.00000000E+00
  1.60000000E+01  1.00800000E+00  1.00800000E+00  0.00000000E+00  1.60000000E+01
  1.00800000E+00  1.00800000E+00  0.00000000E+00  1.60000000E+01  1.00800000E+00
  1.00800000E+00  0.00000000E+00  1.60000000E+01  1.00800000E+00  1.00800000E+00
  0.00000000E+00  1.60000000E+01  1.00800000E+00  1.00800000E+00  0.00000000E+00
  1.60000000E+01  1.00800000E+00  1.00800000E+00  0.00000000E+00  1.60000000E+01
  1.00800000E+00  1.00800000E+00  0.00000000E+00  1.60000000E+01  1.00800000E+00
  1.00800000E+00  0.00000000E+00  1.60000000E+01  1.00800000E+00  1.00800000E+00
  0.00000000E+00  1.60000000E+01  1.00800000E+00  1.00800000E+00  0.00000000E+00
  1.60000000E+01  1.00800000E+00  1.00800000E+00  0.00000000E+00  1.60000000E+01
  1.00800000E+00  1.00800000E+00  0.00000000E+00  1.60000000E+01  1.00800000E+00
  1.00800000E+00  0.00000000E+00  1.60000000E+01  1.00800000E+00  1.00800000E+00
  0.00000000E+00  1.60000000E+01  1.00800000E+00  1.00800000E+00  0.00000000E+00
  1.60000000E+01  1.00800000E+00  1.00800000E+00  0.00000000E+00  1.60000000E+01
  1.00800000E+00  1.00800000E+00  0.00000000E+00  1.60000000E+01  1.00800000E+00
  1.00800000E+00  0.00000000E+00  1.60000000E+01  1.00800000E+00  1.00800000E+00
  0.00000000E+00  1.60000000E+01  1.00800000E+00  1.00800000E+00  0.00000000E+00
  1.60000000E+01  1.00800000E+00  1.00800000E+00  0.00000000E+00  1.60000000E+01
  1.00800000E+00  1.00800000E+00  0.00000000E+00  1.60000000E+01  1.00800000E+00
  1.00800000E+00  0.00000000E+00  1.60000000E+01  1.00800000E+00  1.00800000E+00
  0.00000000E+00  1.60000000E+01  1.00800000E+00  1.00800000E+00  0.00000000E+00
  1.60000000E+01  1.00800000E+00  1.00800000E+00  0.00000000E+00  1.60000000E+01
  1.00800000E+00  1.00800000E+00  0.00000000E+00  1.60000000E+01  1.00800000E+00
  1.00800000E+00  0.00000000E+00  1.60000000E+01  1.00800000E+00  1.00800000E+00
  0.00000000E+00  1.60000000E+01  1.00800000E+00  1.00800000E+00  0.00000000E+00
  1.60000000E+01  1.00800000E+00  1.00800000E+00  0.00000000E+00  1.60000000E+01
  1.00800000E+00  1.00800000E+00  0.00000000E+00  1.60000000E+01  1.00800000E+00
  1.00800000E+00  0.00000000E+00  1.60000000E+01  1.00800000E+00  1.00800000E+00
  0.00000000E+00  1.60000000E+01  1.00800000E+00  1.00800000E+00  0.00000000E+00
  1.60000000E+01  1.00800000E+00  1.00800000E+00  0.00000000E+00  1.60000000E+01
  1.00800000E+00  1.00800000E+00  0.00000000E+00  1.60000000E+01  1.00800000E+00
  1.00800000E+00  0.00000000E+00  1.60000000E+01  1.00800000E+00  1.00800000E+00
  0.00000000E+00  1.60000000E+01  1.00800000E+00  1.00800000E+00  0.00000000E+00
  1.60000000E+01  1.00800000E+00  1.00800000E+00  0.00000000E+00  1.60000000E+01
  1.00800000E+00  1.00800000E+00  0.00000000E+00  1.60000000E+01  1.00800000E+00
  1.00800000E+00  0.00000000E+00  1.60000000E+01  1.00800000E+00  1.00800000E+00
  0.00000000E+00  1.60000000E+01  1.00800000E+00  1.00800000E+00  0.00000000E+00
  1.60000000E+01  1.00800000E+00  1.00800000E+00  0.00000000E+00  1.60000000E+01
  1.00800000E+00  1.00800000E+00  0.00000000E+00  1.60000000E+01  1.00800000E+00
  1.00800000E+00  0.00000000E+00  1.60000000E+01  1.00800000E+00  1.00800000E+00
  0.00000000E+00  1.60000000E+01  1.00800000E+00  1.00800000E+00  0.00000000E+00
  1.60000000E+01  1.00800000E+00  1.00800000E+00  0.00000000E+00  1.60000000E+01
  1.00800000E+00  1.00800000E+00  0.00000000E+00  1.60000000E+01  1.00800000E+00
  1.00800000E+00  0.00000000E+00  1.60000000E+01  1.00800000E+00  1.00800000E+00
  0.00000000E+00  1.60000000E+01  1.00800000E+00  1.00800000E+00  0.00000000E+00
  1.60000000E+01  1.00800000E+00  1.00800000E+00  0.00000000E+00  1.60000000E+01
  1.00800000E+00  1.00800000E+00  0.00000000E+00  1.60000000E+01  1.00800000E+00
  1.00800000E+00  0.00000000E+00  1.60000000E+01  1.00800000E+00  1.00800000E+00
  0.00000000E+00  1.60000000E+01  1.00800000E+00  1.00800000E+00  0.00000000E+00
  1.60000000E+01  1.00800000E+00  1.00800000E+00  0.00000000E+00  1.60000000E+01
  1.00800000E+00  1.00800000E+00  0.00000000E+00  1.60000000E+01  1.00800000E+00
  1.00800000E+00  0.00000000E+00  1.60000000E+01  1.00800000E+00  1.00800000E+00
  0.00000000E+00  1.60000000E+01  1.00800000E+00  1.00800000E+00  0.00000000E+00
  1.60000000E+01  1.00800000E+00  1.00800000E+00  0.00000000E+00  1.60000000E+01
  1.00800000E+00  1.00800000E+00  0.00000000E+00  1.60000000E+01  1.00800000E+00
  1.00800000E+00  0.00000000E+00  1.60000000E+01  1.00800000E+00  1.00800000E+00
  0.00000000E+00  1.60000000E+01  1.00800000E+00  1.00800000E+00  0.00000000E+00
  1.60000000E+01  1.00800000E+00  1.00800000E+00  0.00000000E+00  1.60000000E+01
  1.00800000E+00  1.00800000E+00  0.00000000E+00  1.60000000E+01  1.00800000E+00
  1.00800000E+00  0.00000000E+00  1.60000000E+01  1.00800000E+00  1.00800000E+00
  0.00000000E+00  1.60000000E+01  1.00800000E+00  1.00800000E+00  0.00000000E+00
  1.60000000E+01  1.00800000E+00  1.00800000E+00  0.00000000E+00  1.60000000E+01
  1.00800000E+00  1.00800000E+00  0.00000000E+00  1.60000000E+01  1.00800000E+00
  1.00800000E+00  0.00000000E+00  1.60000000E+01  1.00800000E+00  1.00800000E+00
  0.00000000E+00  1.60000000E+01  1.00800000E+00  1.00800000E+00  0.00000000E+00
  1.60000000E+01  1.00800000E+00  1.00800000E+00  0.00000000E+00  1.60000000E+01
  1.00800000E+00  1.00800000E+00  0.00000000E+00  1.60000000E+01  1.00800000E+00
  1.00800000E+00  0.00000000E+00  1.60000000E+01  1.00800000E+00  1.00800000E+00
  0.00000000E+00  1.60000000E+01  1.00800000E+00  1.00800000E+00  0.00000000E+00
  1.60000000E+01  1.00800000E+00  1.00800000E+00  0.00000000E+00  1.60000000E+01
  1.00800000E+00  1.00800000E+00  0.00000000E+00  1.60000000E+01  1.00800000E+00
  1.00800000E+00  0.00000000E+00  1.60000000E+01  1.00800000E+00  1.00800000E+00
  0.00000000E+00  1.60000000E+01  1.00800000E+00  1.00800000E+00  0.00000000E+00
  1.60000000E+01  1.00800000E+00  1.00800000E+00  0.00000000E+00  1.60000000E+01
  1.00800000E+00  1.00800000E+00  0.00000000E+00  1.60000000E+01  1.00800000E+00
  1.00800000E+00  0.00000000E+00  1.60000000E+01  1.00800000E+00  1.00800000E+00
  0.00000000E+00  1.60000000E+01  1.00800000E+00  1.00800000E+00  0.00000000E+00
  1.60000000E+01  1.00800000E+00  1.00800000E+00  0.00000000E+00  1.60000000E+01
  1.00800000E+00  1.00800000E+00  0.00000000E+00  1.60000000E+01  1.00800000E+00
  1.00800000E+00  0.00000000E+00  1.60000000E+01  1.00800000E+00  1.00800000E+00
  0.00000000E+00  1.60000000E+01  1.00800000E+00  1.00800000E+00  0.00000000E+00
  1.60000000E+01  1.00800000E+00  1.00800000E+00  0.00000000E+00  1.60000000E+01
  1.00800000E+00  1.00800000E+00  0.00000000E+00  1.60000000E+01  1.00800000E+00
  1.00800000E+00  0.00000000E+00  1.60000000E+01  1.00800000E+00  1.00800000E+00
  0.00000000E+00  1.60000000E+01  1.00800000E+00  1.00800000E+00  0.00000000E+00
  1.60000000E+01  1.00800000E+00  1.00800000E+00  0.00000000E+00  1.60000000E+01
  1.00800000E+00  1.00800000E+00  0.00000000E+00  1.60000000E+01  1.00800000E+00
  1.00800000E+00  0.00000000E+00  1.60000000E+01  1.00800000E+00  1.00800000E+00
  0.00000000E+00  1.60000000E+01  1.00800000E+00  1.00800000E+00  0.00000000E+00
  1.60000000E+01  1.00800000E+00  1.00800000E+00  0.00000000E+00  1.60000000E+01
  1.00800000E+00  1.00800000E+00  0.00000000E+00  1.60000000E+01  1.00800000E+00
  1.00800000E+00  0.00000000E+00  1.60000000E+01  1.00800000E+00  1.00800000E+00
  0.00000000E+00  1.60000000E+01  1.00800000E+00  1.00800000E+00  0.00000000E+00
  1.60000000E+01  1.00800000E+00  1.00800000E+00  0.00000000E+00  1.60000000E+01
  1.00800000E+00  1.00800000E+00  0.00000000E+00  1.60000000E+01  1.00800000E+00
  1.00800000E+00  0.00000000E+00  1.60000000E+01  1.00800000E+00  1.00800000E+00
  0.00000000E+00  1.60000000E+01  1.00800000E+00  1.00800000E+00  0.00000000E+00
  1.60000000E+01  1.00800000E+00  1.00800000E+00  0.00000000E+00  1.60000000E+01
  1.00800000E+00  1.00800000E+00  0.00000000E+00  1.60000000E+01  1.00800000E+00
  1.00800000E+00  0.00000000E+00  1.60000000E+01  1.00800000E+00  1.00800000E+00
  0.00000000E+00  1.60000000E+01  1.00800000E+00  1.00800000E+00  0.00000000E+00
  1.60000000E+01  1.00800000E+00  1.00800000E+00  0.00000000E+00  1.60000000E+01
  1.00800000E+00  1.00800000E+00  0.00000000E+00  1.60000000E+01  1.00800000E+00
  1.00800000E+00  0.00000000E+00  1.60000000E+01  1.00800000E+00  1.00800000E+00
  0.00000000E+00  1.60000000E+01  1.00800000E+00  1.00800000E+00  0.00000000E+00
  1.60000000E+01  1.00800000E+00  1.00800000E+00  0.00000000E+00  1.60000000E+01
  1.00800000E+00  1.00800000E+00  0.00000000E+00  1.60000000E+01  1.00800000E+00
  1.00800000E+00  0.00000000E+00  1.60000000E+01  1.00800000E+00  1.00800000E+00
  0.00000000E+00  1.60000000E+01  1.00800000E+00  1.00800000E+00  0.00000000E+00
  1.60000000E+01  1.00800000E+00  1.00800000E+00  0.00000000E+00  1.60000000E+01
  1.00800000E+00  1.00800000E+00  0.00000000E+00  1.60000000E+01  1.00800000E+00
  1.00800000E+00  0.00000000E+00  1.60000000E+01  1.00800000E+00  1.00800000E+00
  0.00000000E+00  1.60000000E+01  1.00800000E+00  1.00800000E+00  0.00000000E+00
  1.60000000E+01  1.00800000E+00  1.00800000E+00  0.00000000E+00  1.60000000E+01
  1.00800000E+00  1.00800000E+00  0.00000000E+00  1.60000000E+01  1.00800000E+00
  1.00800000E+00  0.00000000E+00  1.60000000E+01  1.00800000E+00  1.00800000E+00
  0.00000000E+00  1.60000000E+01  1.00800000E+00  1.00800000E+00  0.00000000E+00
  1.60000000E+01  1.00800000E+00  1.00800000E+00  0.00000000E+00  1.60000000E+01
  1.00800000E+00  1.00800000E+00  0.00000000E+00  1.60000000E+01  1.00800000E+00
  1.00800000E+00  0.00000000E+00  1.60000000E+01  1.00800000E+00  1.00800000E+00
  0.00000000E+00  1.60000000E+01  1.00800000E+00  1.00800000E+00  0.00000000E+00
  1.60000000E+01  1.00800000E+00  1.00800000E+00  0.00000000E+00  1.60000000E+01
  1.00800000E+00  1.00800000E+00  0.00000000E+00  1.60000000E+01  1.00800000E+00
  1.00800000E+00  0.00000000E+00  1.60000000E+01  1.00800000E+00  1.00800000E+00
  0.00000000E+00  1.60000000E+01  1.00800000E+00  1.00800000E+00  0.00000000E+00
  1.60000000E+01  1.00800000E+00  1.00800000E+00  0.00000000E+00  1.60000000E+01
  1.00800000E+00  1.00800000E+00  0.00000000E+00  1.60000000E+01  1.00800000E+00
  1.00800000E+00  0.00000000E+00  1.60000000E+01  1.00800000E+00  1.00800000E+00
  0.00000000E+00  1.60000000E+01  1.00800000E+00  1.00800000E+00  0.00000000E+00
  1.60000000E+01  1.00800000E+00  1.00800000E+00  0.00000000E+00  1.60000000E+01
  1.00800000E+00  1.00800000E+00  0.00000000E+00  1.60000000E+01  1.00800000E+00
  1.00800000E+00  0.00000000E+00  1.60000000E+01  1.00800000E+00  1.00800000E+00
  0.00000000E+00  1.60000000E+01  1.00800000E+00  1.00800000E+00  0.00000000E+00
  1.60000000E+01  1.00800000E+00  1.00800000E+00  0.00000000E+00  1.60000000E+01
  1.00800000E+00  1.00800000E+00  0.00000000E+00  1.60000000E+01  1.00800000E+00
  1.00800000E+00  0.00000000E+00  1.60000000E+01  1.00800000E+00  1.00800000E+00
  0.00000000E+00  1.60000000E+01  1.00800000E+00  1.00800000E+00  0.00000000E+00
  1.60000000E+01  1.00800000E+00  1.00800000E+00  0.00000000E+00  1.60000000E+01
  1.00800000E+00  1.00800000E+00  0.00000000E+00  1.60000000E+01  1.00800000E+00
  1.00800000E+00  0.00000000E+00  1.60000000E+01  1.00800000E+00  1.00800000E+00
  0.00000000E+00  1.60000000E+01  1.00800000E+00  1.00800000E+00  0.00000000E+00
  1.60000000E+01  1.00800000E+00  1.00800000E+00  0.00000000E+00  1.60000000E+01
  1.00800000E+00  1.00800000E+00  0.00000000E+00  1.60000000E+01  1.00800000E+00
  1.00800000E+00  0.00000000E+00  1.60000000E+01  1.00800000E+00  1.00800000E+00
  0.00000000E+00  1.60000000E+01  1.00800000E+00  1.00800000E+00  0.00000000E+00
  1.60000000E+01  1.00800000E+00  1.00800000E+00  0.00000000E+00  1.60000000E+01
  1.00800000E+00  1.00800000E+00  0.00000000E+00  1.60000000E+01  1.00800000E+00
  1.00800000E+00  0.00000000E+00  1.60000000E+01  1.00800000E+00  1.00800000E+00
  0.00000000E+00  1.60000000E+01  1.00800000E+00  1.00800000E+00  0.00000000E+00
  1.60000000E+01  1.00800000E+00  1.00800000E+00  0.00000000E+00  1.60000000E+01
  1.00800000E+00  1.00800000E+00  0.00000000E+00  1.60000000E+01  1.00800000E+00
  1.00800000E+00  0.00000000E+00  1.60000000E+01  1.00800000E+00  1.00800000E+00
  0.00000000E+00  1.60000000E+01  1.00800000E+00  1.00800000E+00  0.00000000E+00
  1.60000000E+01  1.00800000E+00  1.00800000E+00  0.00000000E+00  1.60000000E+01
  1.00800000E+00  1.00800000E+00  0.00000000E+00  1.60000000E+01  1.00800000E+00
  1.00800000E+00  0.00000000E+00  1.60000000E+01  1.00800000E+00  1.00800000E+00
  0.00000000E+00  1.60000000E+01  1.00800000E+00  1.00800000E+00  0.00000000E+00
  1.60000000E+01  1.00800000E+00  1.00800000E+00  0.00000000E+00  1.60000000E+01
  1.00800000E+00  1.00800000E+00  0.00000000E+00  1.60000000E+01  1.00800000E+00
  1.00800000E+00  0.00000000E+00  1.60000000E+01  1.00800000E+00  1.00800000E+00
  0.00000000E+00  1.60000000E+01  1.00800000E+00  1.00800000E+00  0.00000000E+00
  1.60000000E+01  1.00800000E+00  1.00800000E+00  0.00000000E+00  1.60000000E+01
  1.00800000E+00  1.00800000E+00  0.00000000E+00  1.60000000E+01  1.00800000E+00
  1.00800000E+00  0.00000000E+00  1.60000000E+01  1.00800000E+00  1.00800000E+00
  0.00000000E+00  1.60000000E+01  1.00800000E+00  1.00800000E+00  0.00000000E+00
  1.60000000E+01  1.00800000E+00  1.00800000E+00  0.00000000E+00  1.60000000E+01
  1.00800000E+00  1.00800000E+00  0.00000000E+00  1.60000000E+01  1.00800000E+00
  1.00800000E+00  0.00000000E+00  1.60000000E+01  1.00800000E+00  1.00800000E+00
  0.00000000E+00  1.60000000E+01  1.00800000E+00  1.00800000E+00  0.00000000E+00
  1.60000000E+01  1.00800000E+00  1.00800000E+00  0.00000000E+00  1.60000000E+01
  1.00800000E+00  1.00800000E+00  0.00000000E+00  1.60000000E+01  1.00800000E+00
  1.00800000E+00  0.00000000E+00  1.60000000E+01  1.00800000E+00  1.00800000E+00
  0.00000000E+00  1.60000000E+01  1.00800000E+00  1.00800000E+00  0.00000000E+00
  1.60000000E+01  1.00800000E+00  1.00800000E+00  0.00000000E+00  1.60000000E+01
  1.00800000E+00  1.00800000E+00  0.00000000E+00  1.60000000E+01  1.00800000E+00
  1.00800000E+00  0.00000000E+00  1.60000000E+01  1.00800000E+00  1.00800000E+00
  0.00000000E+00  1.60000000E+01  1.00800000E+00  1.00800000E+00  0.00000000E+00
  1.60000000E+01  1.00800000E+00  1.00800000E+00  0.00000000E+00  1.60000000E+01
  1.00800000E+00  1.00800000E+00  0.00000000E+00  1.60000000E+01  1.00800000E+00
  1.00800000E+00  0.00000000E+00  1.60000000E+01  1.00800000E+00  1.00800000E+00
  0.00000000E+00  1.60000000E+01  1.00800000E+00  1.00800000E+00  0.00000000E+00
  1.60000000E+01  1.00800000E+00  1.00800000E+00  0.00000000E+00  1.60000000E+01
  1.00800000E+00  1.00800000E+00  0.00000000E+00  1.60000000E+01  1.00800000E+00
  1.00800000E+00  0.00000000E+00  1.60000000E+01  1.00800000E+00  1.00800000E+00
  0.00000000E+00  1.60000000E+01  1.00800000E+00  1.00800000E+00  0.00000000E+00
  1.60000000E+01  1.00800000E+00  1.00800000E+00  0.00000000E+00  1.60000000E+01
  1.00800000E+00  1.00800000E+00  0.00000000E+00  1.60000000E+01  1.00800000E+00
  1.00800000E+00  0.00000000E+00  1.60000000E+01  1.00800000E+00  1.00800000E+00
  0.00000000E+00  1.60000000E+01  1.00800000E+00  1.00800000E+00  0.00000000E+00
  1.60000000E+01  1.00800000E+00  1.00800000E+00  0.00000000E+00  1.60000000E+01
  1.00800000E+00  1.00800000E+00  0.00000000E+00  1.60000000E+01  1.00800000E+00
  1.00800000E+00  0.00000000E+00  1.60000000E+01  1.00800000E+00  1.00800000E+00
  0.00000000E+00  1.60000000E+01  1.00800000E+00  1.00800000E+00  0.00000000E+00
  1.60000000E+01  1.00800000E+00  1.00800000E+00  0.00000000E+00  1.60000000E+01
  1.00800000E+00  1.00800000E+00  0.00000000E+00  1.60000000E+01  1.00800000E+00
  1.00800000E+00  0.00000000E+00  1.60000000E+01  1.00800000E+00  1.00800000E+00
  0.00000000E+00  1.60000000E+01  1.00800000E+00  1.00800000E+00  0.00000000E+00
  1.60000000E+01  1.00800000E+00  1.00800000E+00  0.00000000E+00  1.60000000E+01
  1.00800000E+00  1.00800000E+00  0.00000000E+00  1.60000000E+01  1.00800000E+00
  1.00800000E+00  0.00000000E+00  1.60000000E+01  1.00800000E+00  1.00800000E+00
  0.00000000E+00  1.60000000E+01  1.00800000E+00  1.00800000E+00  0.00000000E+00
  1.60000000E+01  1.00800000E+00  1.00800000E+00  0.00000000E+00  1.60000000E+01
  1.00800000E+00  1.00800000E+00  0.00000000E+00  1.60000000E+01  1.00800000E+00
  1.00800000E+00  0.00000000E+00  1.60000000E+01  1.00800000E+00  1.00800000E+00
  0.00000000E+00  1.60000000E+01  1.00800000E+00  1.00800000E+00  0.00000000E+00
  1.60000000E+01  1.00800000E+00  1.00800000E+00  0.00000000E+00  1.60000000E+01
  1.00800000E+00  1.00800000E+00  0.00000000E+00  1.60000000E+01  1.00800000E+00
  1.00800000E+00  0.00000000E+00  1.60000000E+01  1.00800000E+00  1.00800000E+00
  0.00000000E+00  1.60000000E+01  1.00800000E+00  1.00800000E+00  0.00000000E+00
  1.60000000E+01  1.00800000E+00  1.00800000E+00  0.00000000E+00  1.60000000E+01
  1.00800000E+00  1.00800000E+00  0.00000000E+00  1.60000000E+01  1.00800000E+00
  1.00800000E+00  0.00000000E+00  1.60000000E+01  1.00800000E+00  1.00800000E+00
  0.00000000E+00  1.60000000E+01  1.00800000E+00  1.00800000E+00  0.00000000E+00
  1.60000000E+01  1.00800000E+00  1.00800000E+00  0.00000000E+00  1.60000000E+01
  1.00800000E+00  1.00800000E+00  0.00000000E+00  1.60000000E+01  1.00800000E+00
  1.00800000E+00  0.00000000E+00  1.60000000E+01  1.00800000E+00  1.00800000E+00
  0.00000000E+00  1.60000000E+01  1.00800000E+00  1.00800000E+00  0.00000000E+00
  1.60000000E+01  1.00800000E+00  1.00800000E+00  0.00000000E+00  1.60000000E+01
  1.00800000E+00  1.00800000E+00  0.00000000E+00  1.60000000E+01  1.00800000E+00
  1.00800000E+00  0.00000000E+00  1.60000000E+01  1.00800000E+00  1.00800000E+00
  0.00000000E+00  1.60000000E+01  1.00800000E+00  1.00800000E+00  0.00000000E+00
  1.60000000E+01  1.00800000E+00  1.00800000E+00  0.00000000E+00  1.60000000E+01
  1.00800000E+00  1.00800000E+00  0.00000000E+00  1.60000000E+01  1.00800000E+00
  1.00800000E+00  0.00000000E+00  1.60000000E+01  1.00800000E+00  1.00800000E+00
  0.00000000E+00  1.60000000E+01  1.00800000E+00  1.00800000E+00  0.00000000E+00
  1.60000000E+01  1.00800000E+00  1.00800000E+00  0.00000000E+00  1.60000000E+01
  1.00800000E+00  1.00800000E+00  0.00000000E+00  1.60000000E+01  1.00800000E+00
  1.00800000E+00  0.00000000E+00  1.60000000E+01  1.00800000E+00  1.00800000E+00
  0.00000000E+00  1.60000000E+01  1.00800000E+00  1.00800000E+00  0.00000000E+00
  1.60000000E+01  1.00800000E+00  1.00800000E+00  0.00000000E+00  1.60000000E+01
  1.00800000E+00  1.00800000E+00  0.00000000E+00  1.60000000E+01  1.00800000E+00
  1.00800000E+00  0.00000000E+00  1.60000000E+01  1.00800000E+00  1.00800000E+00
  0.00000000E+00  1.60000000E+01  1.00800000E+00  1.00800000E+00  0.00000000E+00
  1.60000000E+01  1.00800000E+00  1.00800000E+00  0.00000000E+00  1.60000000E+01
  1.00800000E+00  1.00800000E+00  0.00000000E+00  1.60000000E+01  1.00800000E+00
  1.00800000E+00  0.00000000E+00  1.60000000E+01  1.00800000E+00  1.00800000E+00
  0.00000000E+00  1.60000000E+01  1.00800000E+00  1.00800000E+00  0.00000000E+00
  1.60000000E+01  1.00800000E+00  1.00800000E+00  0.00000000E+00  1.60000000E+01
  1.00800000E+00  1.00800000E+00  0.00000000E+00  1.60000000E+01  1.00800000E+00
  1.00800000E+00  0.00000000E+00  1.60000000E+01  1.00800000E+00  1.00800000E+00
  0.00000000E+00  1.60000000E+01  1.00800000E+00  1.00800000E+00  0.00000000E+00
  1.60000000E+01  1.00800000E+00  1.00800000E+00  0.00000000E+00  1.60000000E+01
  1.00800000E+00  1.00800000E+00  0.00000000E+00  1.60000000E+01  1.00800000E+00
  1.00800000E+00  0.00000000E+00  1.60000000E+01  1.00800000E+00  1.00800000E+00
  0.00000000E+00  1.60000000E+01  1.00800000E+00  1.00800000E+00  0.00000000E+00
  1.60000000E+01  1.00800000E+00  1.00800000E+00  0.00000000E+00  1.60000000E+01
  1.00800000E+00  1.00800000E+00  0.00000000E+00  1.60000000E+01  1.00800000E+00
  1.00800000E+00  0.00000000E+00  1.60000000E+01  1.00800000E+00  1.00800000E+00
  0.00000000E+00  1.60000000E+01  1.00800000E+00  1.00800000E+00  0.00000000E+00
  1.60000000E+01  1.00800000E+00  1.00800000E+00  0.00000000E+00  1.60000000E+01
  1.00800000E+00  1.00800000E+00  0.00000000E+00  1.60000000E+01  1.00800000E+00
  1.00800000E+00  0.00000000E+00  1.60000000E+01  1.00800000E+00  1.00800000E+00
  0.00000000E+00  1.60000000E+01  1.00800000E+00  1.00800000E+00  0.00000000E+00
  1.60000000E+01  1.00800000E+00  1.00800000E+00  0.00000000E+00  1.60000000E+01
  1.00800000E+00  1.00800000E+00  0.00000000E+00  1.60000000E+01  1.00800000E+00
  1.00800000E+00  0.00000000E+00  1.60000000E+01  1.00800000E+00  1.00800000E+00
  0.00000000E+00  1.60000000E+01  1.00800000E+00  1.00800000E+00  0.00000000E+00
  1.60000000E+01  1.00800000E+00  1.00800000E+00  0.00000000E+00  1.60000000E+01
  1.00800000E+00  1.00800000E+00  0.00000000E+00  1.60000000E+01  1.00800000E+00
  1.00800000E+00  0.00000000E+00  1.60000000E+01  1.00800000E+00  1.00800000E+00
  0.00000000E+00  1.60000000E+01  1.00800000E+00  1.00800000E+00  0.00000000E+00
  1.60000000E+01  1.00800000E+00  1.00800000E+00  0.00000000E+00  1.60000000E+01
  1.00800000E+00  1.00800000E+00  0.00000000E+00  1.60000000E+01  1.00800000E+00
  1.00800000E+00  0.00000000E+00  1.60000000E+01  1.00800000E+00  1.00800000E+00
  0.00000000E+00  1.60000000E+01  1.00800000E+00  1.00800000E+00  0.00000000E+00
  1.60000000E+01  1.00800000E+00  1.00800000E+00  0.00000000E+00  1.60000000E+01
  1.00800000E+00  1.00800000E+00  0.00000000E+00  1.60000000E+01  1.00800000E+00
  1.00800000E+00  0.00000000E+00  1.60000000E+01  1.00800000E+00  1.00800000E+00
  0.00000000E+00  1.60000000E+01  1.00800000E+00  1.00800000E+00  0.00000000E+00
  1.60000000E+01  1.00800000E+00  1.00800000E+00  0.00000000E+00  1.60000000E+01
  1.00800000E+00  1.00800000E+00  0.00000000E+00  1.60000000E+01  1.00800000E+00
  1.00800000E+00  0.00000000E+00  1.60000000E+01  1.00800000E+00  1.00800000E+00
  0.00000000E+00  1.60000000E+01  1.00800000E+00  1.00800000E+00  0.00000000E+00
  1.60000000E+01  1.00800000E+00  1.00800000E+00  0.00000000E+00  1.60000000E+01
  1.00800000E+00  1.00800000E+00  0.00000000E+00  1.60000000E+01  1.00800000E+00
  1.00800000E+00  0.00000000E+00  1.60000000E+01  1.00800000E+00  1.00800000E+00
  0.00000000E+00  1.60000000E+01  1.00800000E+00  1.00800000E+00  0.00000000E+00
  1.60000000E+01  1.00800000E+00  1.00800000E+00  0.00000000E+00  1.60000000E+01
  1.00800000E+00  1.00800000E+00  0.00000000E+00  1.60000000E+01  1.00800000E+00
  1.00800000E+00  0.00000000E+00  1.60000000E+01  1.00800000E+00  1.00800000E+00
  0.00000000E+00  1.60000000E+01  1.00800000E+00  1.00800000E+00  0.00000000E+00
  1.60000000E+01  1.00800000E+00  1.00800000E+00  0.00000000E+00  1.60000000E+01
  1.00800000E+00  1.00800000E+00  0.00000000E+00  1.60000000E+01  1.00800000E+00
  1.00800000E+00  0.00000000E+00  1.60000000E+01  1.00800000E+00  1.00800000E+00
  0.00000000E+00  1.60000000E+01  1.00800000E+00  1.00800000E+00  0.00000000E+00
  1.60000000E+01  1.00800000E+00  1.00800000E+00  0.00000000E+00  1.60000000E+01
  1.00800000E+00  1.00800000E+00  0.00000000E+00  1.60000000E+01  1.00800000E+00
  1.00800000E+00  0.00000000E+00  1.60000000E+01  1.00800000E+00  1.00800000E+00
  0.00000000E+00  1.60000000E+01  1.00800000E+00  1.00800000E+00  0.00000000E+00
  1.60000000E+01  1.00800000E+00  1.00800000E+00  0.00000000E+00  1.60000000E+01
  1.00800000E+00  1.00800000E+00  0.00000000E+00  1.60000000E+01  1.00800000E+00
  1.00800000E+00  0.00000000E+00  1.60000000E+01  1.00800000E+00  1.00800000E+00
  0.00000000E+00  1.60000000E+01  1.00800000E+00  1.00800000E+00  0.00000000E+00
  1.60000000E+01  1.00800000E+00  1.00800000E+00  0.00000000E+00  1.60000000E+01
  1.00800000E+00  1.00800000E+00  0.00000000E+00  1.60000000E+01  1.00800000E+00
  1.00800000E+00  0.00000000E+00  1.60000000E+01  1.00800000E+00  1.00800000E+00
  0.00000000E+00  1.60000000E+01  1.00800000E+00  1.00800000E+00  0.00000000E+00
  1.60000000E+01  1.00800000E+00  1.00800000E+00  0.00000000E+00  1.60000000E+01
  1.00800000E+00  1.00800000E+00  0.00000000E+00  1.60000000E+01  1.00800000E+00
  1.00800000E+00  0.00000000E+00  1.60000000E+01  1.00800000E+00  1.00800000E+00
  0.00000000E+00  1.60000000E+01  1.00800000E+00  1.00800000E+00  0.00000000E+00
  1.60000000E+01  1.00800000E+00  1.00800000E+00  0.00000000E+00  1.60000000E+01
  1.00800000E+00  1.00800000E+00  0.00000000E+00  1.60000000E+01  1.00800000E+00
  1.00800000E+00  0.00000000E+00  1.60000000E+01  1.00800000E+00  1.00800000E+00
  0.00000000E+00  1.60000000E+01  1.00800000E+00  1.00800000E+00  0.00000000E+00
  1.60000000E+01  1.00800000E+00  1.00800000E+00  0.00000000E+00  1.60000000E+01
  1.00800000E+00  1.00800000E+00  0.00000000E+00  1.60000000E+01  1.00800000E+00
  1.00800000E+00  0.00000000E+00  1.60000000E+01  1.00800000E+00  1.00800000E+00
  0.00000000E+00  1.60000000E+01  1.00800000E+00  1.00800000E+00  0.00000000E+00
  1.60000000E+01  1.00800000E+00  1.00800000E+00  0.00000000E+00  1.60000000E+01
  1.00800000E+00  1.00800000E+00  0.00000000E+00  1.60000000E+01  1.00800000E+00
  1.00800000E+00  0.00000000E+00  1.60000000E+01  1.00800000E+00  1.00800000E+00
  0.00000000E+00  1.60000000E+01  1.00800000E+00  1.00800000E+00  0.00000000E+00
  1.60000000E+01  1.00800000E+00  1.00800000E+00  0.00000000E+00  1.60000000E+01
  1.00800000E+00  1.00800000E+00  0.00000000E+00  1.60000000E+01  1.00800000E+00
  1.00800000E+00  0.00000000E+00  1.60000000E+01  1.00800000E+00  1.00800000E+00
  0.00000000E+00  1.60000000E+01  1.00800000E+00  1.00800000E+00  0.00000000E+00
  1.60000000E+01  1.00800000E+00  1.00800000E+00  0.00000000E+00  1.60000000E+01
  1.00800000E+00  1.00800000E+00  0.00000000E+00  1.60000000E+01  1.00800000E+00
  1.00800000E+00  0.00000000E+00  1.60000000E+01  1.00800000E+00  1.00800000E+00
  0.00000000E+00  1.60000000E+01  1.00800000E+00  1.00800000E+00  0.00000000E+00
  1.60000000E+01  1.00800000E+00  1.00800000E+00  0.00000000E+00  1.60000000E+01
  1.00800000E+00  1.00800000E+00  0.00000000E+00  1.60000000E+01  1.00800000E+00
  1.00800000E+00  0.00000000E+00  1.60000000E+01  1.00800000E+00  1.00800000E+00
  0.00000000E+00  1.60000000E+01  1.00800000E+00  1.00800000E+00  0.00000000E+00
  1.60000000E+01  1.00800000E+00  1.00800000E+00  0.00000000E+00  1.60000000E+01
  1.00800000E+00  1.00800000E+00  0.00000000E+00  1.60000000E+01  1.00800000E+00
  1.00800000E+00  0.00000000E+00  1.60000000E+01  1.00800000E+00  1.00800000E+00
  0.00000000E+00  1.60000000E+01  1.00800000E+00  1.00800000E+00  0.00000000E+00
  1.60000000E+01  1.00800000E+00  1.00800000E+00  0.00000000E+00  1.60000000E+01
  1.00800000E+00  1.00800000E+00  0.00000000E+00  1.60000000E+01  1.00800000E+00
  1.00800000E+00  0.00000000E+00  1.60000000E+01  1.00800000E+00  1.00800000E+00
  0.00000000E+00  1.60000000E+01  1.00800000E+00  1.00800000E+00  0.00000000E+00
  1.60000000E+01  1.00800000E+00  1.00800000E+00  0.00000000E+00  1.60000000E+01
  1.00800000E+00  1.00800000E+00  0.00000000E+00  1.60000000E+01  1.00800000E+00
  1.00800000E+00  0.00000000E+00  1.60000000E+01  1.00800000E+00  1.00800000E+00
  0.00000000E+00  1.60000000E+01  1.00800000E+00  1.00800000E+00  0.00000000E+00
  1.60000000E+01  1.00800000E+00  1.00800000E+00  0.00000000E+00  1.60000000E+01
  1.00800000E+00  1.00800000E+00  0.00000000E+00  1.60000000E+01  1.00800000E+00
  1.00800000E+00  0.00000000E+00  1.60000000E+01  1.00800000E+00  1.00800000E+00
  0.00000000E+00  1.60000000E+01  1.00800000E+00  1.00800000E+00  0.00000000E+00
  1.60000000E+01  1.00800000E+00  1.00800000E+00  0.00000000E+00  1.60000000E+01
  1.00800000E+00  1.00800000E+00  0.00000000E+00  1.60000000E+01  1.00800000E+00
  1.00800000E+00  0.00000000E+00  1.60000000E+01  1.00800000E+00  1.00800000E+00
  0.00000000E+00  1.60000000E+01  1.00800000E+00  1.00800000E+00  0.00000000E+00
  1.60000000E+01  1.00800000E+00  1.00800000E+00  0.00000000E+00  1.60000000E+01
  1.00800000E+00  1.00800000E+00  0.00000000E+00  1.60000000E+01  1.00800000E+00
  1.00800000E+00  0.00000000E+00  1.60000000E+01  1.00800000E+00  1.00800000E+00
  0.00000000E+00  1.60000000E+01  1.00800000E+00  1.00800000E+00  0.00000000E+00
  1.60000000E+01  1.00800000E+00  1.00800000E+00  0.00000000E+00  1.60000000E+01
  1.00800000E+00  1.00800000E+00  0.00000000E+00  1.60000000E+01  1.00800000E+00
  1.00800000E+00  0.00000000E+00  1.60000000E+01  1.00800000E+00  1.00800000E+00
  0.00000000E+00  1.60000000E+01  1.00800000E+00  1.00800000E+00  0.00000000E+00
  1.60000000E+01  1.00800000E+00  1.00800000E+00  0.00000000E+00  1.60000000E+01
  1.00800000E+00  1.00800000E+00  0.00000000E+00  1.60000000E+01  1.00800000E+00
  1.00800000E+00  0.00000000E+00  1.60000000E+01  1.00800000E+00  1.00800000E+00
  0.00000000E+00  1.60000000E+01  1.00800000E+00  1.00800000E+00  0.00000000E+00
  1.60000000E+01  1.00800000E+00  1.00800000E+00  0.00000000E+00  1.60000000E+01
  1.00800000E+00  1.00800000E+00  0.00000000E+00  1.60000000E+01  1.00800000E+00
  1.00800000E+00  0.00000000E+00  1.60000000E+01  1.00800000E+00  1.00800000E+00
  0.00000000E+00  1.60000000E+01  1.00800000E+00  1.00800000E+00  0.00000000E+00
  1.60000000E+01  1.00800000E+00  1.00800000E+00  0.00000000E+00  1.60000000E+01
  1.00800000E+00  1.00800000E+00  0.00000000E+00  1.60000000E+01  1.00800000E+00
  1.00800000E+00  0.00000000E+00  1.60000000E+01  1.00800000E+00  1.00800000E+00
  0.00000000E+00  1.60000000E+01  1.00800000E+00  1.00800000E+00  0.00000000E+00
  1.60000000E+01  1.00800000E+00  1.00800000E+00  0.00000000E+00  1.60000000E+01
  1.00800000E+00  1.00800000E+00  0.00000000E+00  1.60000000E+01  1.00800000E+00
  1.00800000E+00  0.00000000E+00  1.60000000E+01  1.00800000E+00  1.00800000E+00
  0.00000000E+00  1.60000000E+01  1.00800000E+00  1.00800000E+00  0.00000000E+00
  1.60000000E+01  1.00800000E+00  1.00800000E+00  0.00000000E+00  1.60000000E+01
  1.00800000E+00  1.00800000E+00  0.00000000E+00  1.60000000E+01  1.00800000E+00
  1.00800000E+00  0.00000000E+00  1.60000000E+01  1.00800000E+00  1.00800000E+00
  0.00000000E+00  1.60000000E+01  1.00800000E+00  1.00800000E+00  0.00000000E+00
  1.60000000E+01  1.00800000E+00  1.00800000E+00  0.00000000E+00  1.60000000E+01
  1.00800000E+00  1.00800000E+00  0.00000000E+00  1.60000000E+01  1.00800000E+00
  1.00800000E+00  0.00000000E+00  1.60000000E+01  1.00800000E+00  1.00800000E+00
  0.00000000E+00  1.60000000E+01  1.00800000E+00  1.00800000E+00  0.00000000E+00
  1.60000000E+01  1.00800000E+00  1.00800000E+00  0.00000000E+00  1.60000000E+01
  1.00800000E+00  1.00800000E+00  0.00000000E+00  1.60000000E+01  1.00800000E+00
  1.00800000E+00  0.00000000E+00  1.60000000E+01  1.00800000E+00  1.00800000E+00
  0.00000000E+00  1.60000000E+01  1.00800000E+00  1.00800000E+00  0.00000000E+00
  1.60000000E+01  1.00800000E+00  1.00800000E+00  0.00000000E+00  1.60000000E+01
  1.00800000E+00  1.00800000E+00  0.00000000E+00  1.60000000E+01  1.00800000E+00
  1.00800000E+00  0.00000000E+00  1.60000000E+01  1.00800000E+00  1.00800000E+00
  0.00000000E+00  1.60000000E+01  1.00800000E+00  1.00800000E+00  0.00000000E+00
  1.60000000E+01  1.00800000E+00  1.00800000E+00  0.00000000E+00  1.60000000E+01
  1.00800000E+00  1.00800000E+00  0.00000000E+00  1.60000000E+01  1.00800000E+00
  1.00800000E+00  0.00000000E+00  1.60000000E+01  1.00800000E+00  1.00800000E+00
  0.00000000E+00  1.60000000E+01  1.00800000E+00  1.00800000E+00  0.00000000E+00
  1.60000000E+01  1.00800000E+00  1.00800000E+00  0.00000000E+00  1.60000000E+01
  1.00800000E+00  1.00800000E+00  0.00000000E+00  1.60000000E+01  1.00800000E+00
  1.00800000E+00  0.00000000E+00  1.60000000E+01  1.00800000E+00  1.00800000E+00
  0.00000000E+00  1.60000000E+01  1.00800000E+00  1.00800000E+00  0.00000000E+00
  1.60000000E+01  1.00800000E+00  1.00800000E+00  0.00000000E+00  1.60000000E+01
  1.00800000E+00  1.00800000E+00  0.00000000E+00  1.60000000E+01  1.00800000E+00
  1.00800000E+00  0.00000000E+00  1.60000000E+01  1.00800000E+00  1.00800000E+00
  0.00000000E+00  1.60000000E+01  1.00800000E+00  1.00800000E+00  0.00000000E+00
  1.60000000E+01  1.00800000E+00  1.00800000E+00  0.00000000E+00  1.60000000E+01
  1.00800000E+00  1.00800000E+00  0.00000000E+00  1.60000000E+01  1.00800000E+00
  1.00800000E+00  0.00000000E+00  1.60000000E+01  1.00800000E+00  1.00800000E+00
  0.00000000E+00  1.60000000E+01  1.00800000E+00  1.00800000E+00  0.00000000E+00
  1.60000000E+01  1.00800000E+00  1.00800000E+00  0.00000000E+00  1.60000000E+01
  1.00800000E+00  1.00800000E+00  0.00000000E+00  1.60000000E+01  1.00800000E+00
  1.00800000E+00  0.00000000E+00  1.60000000E+01  1.00800000E+00  1.00800000E+00
  0.00000000E+00  1.60000000E+01  1.00800000E+00  1.00800000E+00  0.00000000E+00
  1.60000000E+01  1.00800000E+00  1.00800000E+00  0.00000000E+00  1.60000000E+01
  1.00800000E+00  1.00800000E+00  0.00000000E+00  1.60000000E+01  1.00800000E+00
  1.00800000E+00  0.00000000E+00  1.60000000E+01  1.00800000E+00  1.00800000E+00
  0.00000000E+00  1.60000000E+01  1.00800000E+00  1.00800000E+00  0.00000000E+00
  1.60000000E+01  1.00800000E+00  1.00800000E+00  0.00000000E+00  1.60000000E+01
  1.00800000E+00  1.00800000E+00  0.00000000E+00  1.60000000E+01  1.00800000E+00
  1.00800000E+00  0.00000000E+00  1.60000000E+01  1.00800000E+00  1.00800000E+00
  0.00000000E+00  1.60000000E+01  1.00800000E+00  1.00800000E+00  0.00000000E+00
  1.60000000E+01  1.00800000E+00  1.00800000E+00  0.00000000E+00  1.60000000E+01
  1.00800000E+00  1.00800000E+00  0.00000000E+00  1.60000000E+01  1.00800000E+00
  1.00800000E+00  0.00000000E+00  1.60000000E+01  1.00800000E+00  1.00800000E+00
  0.00000000E+00  1.60000000E+01  1.00800000E+00  1.00800000E+00  0.00000000E+00
  1.60000000E+01  1.00800000E+00  1.00800000E+00  0.00000000E+00  1.60000000E+01
  1.00800000E+00  1.00800000E+00  0.00000000E+00  1.60000000E+01  1.00800000E+00
  1.00800000E+00  0.00000000E+00  1.60000000E+01  1.00800000E+00  1.00800000E+00
  0.00000000E+00  1.60000000E+01  1.00800000E+00  1.00800000E+00  0.00000000E+00
  1.60000000E+01  1.00800000E+00  1.00800000E+00  0.00000000E+00  1.60000000E+01
  1.00800000E+00  1.00800000E+00  0.00000000E+00  1.60000000E+01  1.00800000E+00
  1.00800000E+00  0.00000000E+00  1.60000000E+01  1.00800000E+00  1.00800000E+00
  0.00000000E+00  1.60000000E+01  1.00800000E+00  1.00800000E+00  0.00000000E+00
  1.60000000E+01  1.00800000E+00  1.00800000E+00  0.00000000E+00  1.60000000E+01
  1.00800000E+00  1.00800000E+00  0.00000000E+00  1.60000000E+01  1.00800000E+00
  1.00800000E+00  0.00000000E+00  1.60000000E+01  1.00800000E+00  1.00800000E+00
  0.00000000E+00  1.60000000E+01  1.00800000E+00  1.00800000E+00  0.00000000E+00
  1.60000000E+01  1.00800000E+00  1.00800000E+00  0.00000000E+00  1.60000000E+01
  1.00800000E+00  1.00800000E+00  0.00000000E+00  1.60000000E+01  1.00800000E+00
  1.00800000E+00  0.00000000E+00  1.60000000E+01  1.00800000E+00  1.00800000E+00
  0.00000000E+00  1.60000000E+01  1.00800000E+00  1.00800000E+00  0.00000000E+00
  1.60000000E+01  1.00800000E+00  1.00800000E+00  0.00000000E+00  1.60000000E+01
  1.00800000E+00  1.00800000E+00  0.00000000E+00  1.60000000E+01  1.00800000E+00
  1.00800000E+00  0.00000000E+00  1.60000000E+01  1.00800000E+00  1.00800000E+00
  0.00000000E+00  1.60000000E+01  1.00800000E+00  1.00800000E+00  0.00000000E+00
  1.60000000E+01  1.00800000E+00  1.00800000E+00  0.00000000E+00  1.60000000E+01
  1.00800000E+00  1.00800000E+00  0.00000000E+00  1.60000000E+01  1.00800000E+00
  1.00800000E+00  0.00000000E+00  1.60000000E+01  1.00800000E+00  1.00800000E+00
  0.00000000E+00  1.60000000E+01  1.00800000E+00  1.00800000E+00  0.00000000E+00
  1.60000000E+01  1.00800000E+00  1.00800000E+00  0.00000000E+00  1.60000000E+01
  1.00800000E+00  1.00800000E+00  0.00000000E+00  1.60000000E+01  1.00800000E+00
  1.00800000E+00  0.00000000E+00  1.60000000E+01  1.00800000E+00  1.00800000E+00
  0.00000000E+00  1.60000000E+01  1.00800000E+00  1.00800000E+00  0.00000000E+00
  1.60000000E+01  1.00800000E+00  1.00800000E+00  0.00000000E+00  1.60000000E+01
  1.00800000E+00  1.00800000E+00  0.00000000E+00  1.60000000E+01  1.00800000E+00
  1.00800000E+00  0.00000000E+00  1.60000000E+01  1.00800000E+00  1.00800000E+00
  0.00000000E+00  1.60000000E+01  1.00800000E+00  1.00800000E+00  0.00000000E+00
  1.60000000E+01  1.00800000E+00  1.00800000E+00  0.00000000E+00  1.60000000E+01
  1.00800000E+00  1.00800000E+00  0.00000000E+00  1.60000000E+01  1.00800000E+00
  1.00800000E+00  0.00000000E+00  1.60000000E+01  1.00800000E+00  1.00800000E+00
  0.00000000E+00  1.60000000E+01  1.00800000E+00  1.00800000E+00  0.00000000E+00
  1.60000000E+01  1.00800000E+00  1.00800000E+00  0.00000000E+00  1.60000000E+01
  1.00800000E+00  1.00800000E+00  0.00000000E+00  1.60000000E+01  1.00800000E+00
  1.00800000E+00  0.00000000E+00  1.60000000E+01  1.00800000E+00  1.00800000E+00
  0.00000000E+00  1.60000000E+01  1.00800000E+00  1.00800000E+00  0.00000000E+00
  1.60000000E+01  1.00800000E+00  1.00800000E+00  0.00000000E+00  1.60000000E+01
  1.00800000E+00  1.00800000E+00  0.00000000E+00  1.60000000E+01  1.00800000E+00
  1.00800000E+00  0.00000000E+00  1.60000000E+01  1.00800000E+00  1.00800000E+00
  0.00000000E+00  1.60000000E+01  1.00800000E+00  1.00800000E+00  0.00000000E+00
  1.60000000E+01  1.00800000E+00  1.00800000E+00  0.00000000E+00  1.60000000E+01
  1.00800000E+00  1.00800000E+00  0.00000000E+00  1.60000000E+01  1.00800000E+00
  1.00800000E+00  0.00000000E+00  1.60000000E+01  1.00800000E+00  1.00800000E+00
  0.00000000E+00  1.60000000E+01  1.00800000E+00  1.00800000E+00  0.00000000E+00
  1.60000000E+01  1.00800000E+00  1.00800000E+00  0.00000000E+00  1.60000000E+01
  1.00800000E+00  1.00800000E+00  0.00000000E+00  1.60000000E+01  1.00800000E+00
  1.00800000E+00  0.00000000E+00  1.60000000E+01  1.00800000E+00  1.00800000E+00
  0.00000000E+00  1.60000000E+01  1.00800000E+00  1.00800000E+00  0.00000000E+00
  1.60000000E+01  1.00800000E+00  1.00800000E+00  0.00000000E+00  1.60000000E+01
  1.00800000E+00  1.00800000E+00  0.00000000E+00  1.60000000E+01  1.00800000E+00
  1.00800000E+00  0.00000000E+00  1.60000000E+01  1.00800000E+00  1.00800000E+00
  0.00000000E+00  1.60000000E+01  1.00800000E+00  1.00800000E+00  0.00000000E+00
  1.60000000E+01  1.00800000E+00  1.00800000E+00  0.00000000E+00  1.60000000E+01
  1.00800000E+00  1.00800000E+00  0.00000000E+00  1.60000000E+01  1.00800000E+00
  1.00800000E+00  0.00000000E+00  1.60000000E+01  1.00800000E+00  1.00800000E+00
  0.00000000E+00  1.60000000E+01  1.00800000E+00  1.00800000E+00  0.00000000E+00
  1.60000000E+01  1.00800000E+00  1.00800000E+00  0.00000000E+00  1.60000000E+01
  1.00800000E+00  1.00800000E+00  0.00000000E+00  1.60000000E+01  1.00800000E+00
  1.00800000E+00  0.00000000E+00  1.60000000E+01  1.00800000E+00  1.00800000E+00
  0.00000000E+00  1.60000000E+01  1.00800000E+00  1.00800000E+00  0.00000000E+00
  1.60000000E+01  1.00800000E+00  1.00800000E+00  0.00000000E+00  1.60000000E+01
  1.00800000E+00  1.00800000E+00  0.00000000E+00  1.60000000E+01  1.00800000E+00
  1.00800000E+00  0.00000000E+00  1.60000000E+01  1.00800000E+00  1.00800000E+00
  0.00000000E+00  1.60000000E+01  1.00800000E+00  1.00800000E+00  0.00000000E+00
  1.60000000E+01  1.00800000E+00  1.00800000E+00  0.00000000E+00  1.60000000E+01
  1.00800000E+00  1.00800000E+00  0.00000000E+00  1.60000000E+01  1.00800000E+00
  1.00800000E+00  0.00000000E+00  1.60000000E+01  1.00800000E+00  1.00800000E+00
  0.00000000E+00  1.60000000E+01  1.00800000E+00  1.00800000E+00  0.00000000E+00
  1.60000000E+01  1.00800000E+00  1.00800000E+00  0.00000000E+00  1.60000000E+01
  1.00800000E+00  1.00800000E+00  0.00000000E+00  1.60000000E+01  1.00800000E+00
  1.00800000E+00  0.00000000E+00  1.60000000E+01  1.00800000E+00  1.00800000E+00
  0.00000000E+00  1.60000000E+01  1.00800000E+00  1.00800000E+00  0.00000000E+00
  1.60000000E+01  1.00800000E+00  1.00800000E+00  0.00000000E+00  1.60000000E+01
  1.00800000E+00  1.00800000E+00  0.00000000E+00  1.60000000E+01  1.00800000E+00
  1.00800000E+00  0.00000000E+00  1.60000000E+01  1.00800000E+00  1.00800000E+00
  0.00000000E+00  1.60000000E+01  1.00800000E+00  1.00800000E+00  0.00000000E+00
  1.60000000E+01  1.00800000E+00  1.00800000E+00  0.00000000E+00  1.60000000E+01
  1.00800000E+00  1.00800000E+00  0.00000000E+00  1.60000000E+01  1.00800000E+00
  1.00800000E+00  0.00000000E+00  1.60000000E+01  1.00800000E+00  1.00800000E+00
  0.00000000E+00  1.60000000E+01  1.00800000E+00  1.00800000E+00  0.00000000E+00
  1.60000000E+01  1.00800000E+00  1.00800000E+00  0.00000000E+00  1.60000000E+01
  1.00800000E+00  1.00800000E+00  0.00000000E+00  1.60000000E+01  1.00800000E+00
  1.00800000E+00  0.00000000E+00  1.60000000E+01  1.00800000E+00  1.00800000E+00
  0.00000000E+00  1.60000000E+01  1.00800000E+00  1.00800000E+00  0.00000000E+00
  1.60000000E+01  1.00800000E+00  1.00800000E+00  0.00000000E+00  1.60000000E+01
  1.00800000E+00  1.00800000E+00  0.00000000E+00  1.60000000E+01  1.00800000E+00
  1.00800000E+00  0.00000000E+00  1.60000000E+01  1.00800000E+00  1.00800000E+00
  0.00000000E+00  1.60000000E+01  1.00800000E+00  1.00800000E+00  0.00000000E+00
  1.60000000E+01  1.00800000E+00  1.00800000E+00  0.00000000E+00  1.60000000E+01
  1.00800000E+00  1.00800000E+00  0.00000000E+00  1.60000000E+01  1.00800000E+00
  1.00800000E+00  0.00000000E+00  1.60000000E+01  1.00800000E+00  1.00800000E+00
  0.00000000E+00  1.60000000E+01  1.00800000E+00  1.00800000E+00  0.00000000E+00
  1.60000000E+01  1.00800000E+00  1.00800000E+00  0.00000000E+00  1.60000000E+01
  1.00800000E+00  1.00800000E+00  0.00000000E+00  1.60000000E+01  1.00800000E+00
  1.00800000E+00  0.00000000E+00  1.60000000E+01  1.00800000E+00  1.00800000E+00
  0.00000000E+00  1.60000000E+01  1.00800000E+00  1.00800000E+00  0.00000000E+00
  1.60000000E+01  1.00800000E+00  1.00800000E+00  0.00000000E+00  1.60000000E+01
  1.00800000E+00  1.00800000E+00  0.00000000E+00  1.60000000E+01  1.00800000E+00
  1.00800000E+00  0.00000000E+00  1.60000000E+01  1.00800000E+00  1.00800000E+00
  0.00000000E+00  1.60000000E+01  1.00800000E+00  1.00800000E+00  0.00000000E+00
  1.60000000E+01  1.00800000E+00  1.00800000E+00  0.00000000E+00  1.60000000E+01
  1.00800000E+00  1.00800000E+00  0.00000000E+00  1.60000000E+01  1.00800000E+00
  1.00800000E+00  0.00000000E+00  1.60000000E+01  1.00800000E+00  1.00800000E+00
  0.00000000E+00  1.60000000E+01  1.00800000E+00  1.00800000E+00  0.00000000E+00
  1.60000000E+01  1.00800000E+00  1.00800000E+00  0.00000000E+00  1.60000000E+01
  1.00800000E+00  1.00800000E+00  0.00000000E+00  1.60000000E+01  1.00800000E+00
  1.00800000E+00  0.00000000E+00  1.60000000E+01  1.00800000E+00  1.00800000E+00
  0.00000000E+00  1.60000000E+01  1.00800000E+00  1.00800000E+00  0.00000000E+00
  1.60000000E+01  1.00800000E+00  1.00800000E+00  0.00000000E+00  1.60000000E+01
  1.00800000E+00  1.00800000E+00  0.00000000E+00  1.60000000E+01  1.00800000E+00
  1.00800000E+00  0.00000000E+00  1.60000000E+01  1.00800000E+00  1.00800000E+00
  0.00000000E+00  1.60000000E+01  1.00800000E+00  1.00800000E+00  0.00000000E+00
  1.60000000E+01  1.00800000E+00  1.00800000E+00  0.00000000E+00  1.60000000E+01
  1.00800000E+00  1.00800000E+00  0.00000000E+00  1.60000000E+01  1.00800000E+00
  1.00800000E+00  0.00000000E+00  1.60000000E+01  1.00800000E+00  1.00800000E+00
  0.00000000E+00  1.60000000E+01  1.00800000E+00  1.00800000E+00  0.00000000E+00
  1.60000000E+01  1.00800000E+00  1.00800000E+00  0.00000000E+00  1.60000000E+01
  1.00800000E+00  1.00800000E+00  0.00000000E+00  1.60000000E+01  1.00800000E+00
  1.00800000E+00  0.00000000E+00  1.60000000E+01  1.00800000E+00  1.00800000E+00
  0.00000000E+00  1.60000000E+01  1.00800000E+00  1.00800000E+00  0.00000000E+00
  1.60000000E+01  1.00800000E+00  1.00800000E+00  0.00000000E+00  1.60000000E+01
  1.00800000E+00  1.00800000E+00  0.00000000E+00  1.60000000E+01  1.00800000E+00
  1.00800000E+00  0.00000000E+00  1.60000000E+01  1.00800000E+00  1.00800000E+00
  0.00000000E+00  1.60000000E+01  1.00800000E+00  1.00800000E+00  0.00000000E+00
  1.60000000E+01  1.00800000E+00  1.00800000E+00  0.00000000E+00  1.60000000E+01
  1.00800000E+00  1.00800000E+00  0.00000000E+00  1.60000000E+01  1.00800000E+00
  1.00800000E+00  0.00000000E+00  1.60000000E+01  1.00800000E+00  1.00800000E+00
  0.00000000E+00  1.60000000E+01  1.00800000E+00  1.00800000E+00  0.00000000E+00
  1.60000000E+01  1.00800000E+00  1.00800000E+00  0.00000000E+00  1.60000000E+01
  1.00800000E+00  1.00800000E+00  0.00000000E+00  1.60000000E+01  1.00800000E+00
  1.00800000E+00  0.00000000E+00  1.60000000E+01  1.00800000E+00  1.00800000E+00
  0.00000000E+00  1.60000000E+01  1.00800000E+00  1.00800000E+00  0.00000000E+00
  1.60000000E+01  1.00800000E+00  1.00800000E+00  0.00000000E+00  1.60000000E+01
  1.00800000E+00  1.00800000E+00  0.00000000E+00  1.60000000E+01  1.00800000E+00
  1.00800000E+00  0.00000000E+00  1.60000000E+01  1.00800000E+00  1.00800000E+00
  0.00000000E+00  1.60000000E+01  1.00800000E+00  1.00800000E+00  0.00000000E+00
  1.60000000E+01  1.00800000E+00  1.00800000E+00  0.00000000E+00  1.60000000E+01
  1.00800000E+00  1.00800000E+00  0.00000000E+00  1.60000000E+01  1.00800000E+00
  1.00800000E+00  0.00000000E+00  1.60000000E+01  1.00800000E+00  1.00800000E+00
  0.00000000E+00  1.60000000E+01  1.00800000E+00  1.00800000E+00  0.00000000E+00
  1.60000000E+01  1.00800000E+00  1.00800000E+00  0.00000000E+00  1.60000000E+01
  1.00800000E+00  1.00800000E+00  0.00000000E+00  1.60000000E+01  1.00800000E+00
  1.00800000E+00  0.00000000E+00  1.60000000E+01  1.00800000E+00  1.00800000E+00
  0.00000000E+00  1.60000000E+01  1.00800000E+00  1.00800000E+00  0.00000000E+00
  1.60000000E+01  1.00800000E+00  1.00800000E+00  0.00000000E+00  1.60000000E+01
  1.00800000E+00  1.00800000E+00  0.00000000E+00  1.60000000E+01  1.00800000E+00
  1.00800000E+00  0.00000000E+00  1.60000000E+01  1.00800000E+00  1.00800000E+00
  0.00000000E+00  1.60000000E+01  1.00800000E+00  1.00800000E+00  0.00000000E+00
  1.60000000E+01  1.00800000E+00  1.00800000E+00  0.00000000E+00  1.60000000E+01
  1.00800000E+00  1.00800000E+00  0.00000000E+00  1.60000000E+01  1.00800000E+00
  1.00800000E+00  0.00000000E+00  1.60000000E+01  1.00800000E+00  1.00800000E+00
  0.00000000E+00  1.60000000E+01  1.00800000E+00  1.00800000E+00  0.00000000E+00
  1.60000000E+01  1.00800000E+00  1.00800000E+00  0.00000000E+00  1.60000000E+01
  1.00800000E+00  1.00800000E+00  0.00000000E+00  1.60000000E+01  1.00800000E+00
  1.00800000E+00  0.00000000E+00  1.60000000E+01  1.00800000E+00  1.00800000E+00
  0.00000000E+00  1.60000000E+01  1.00800000E+00  1.00800000E+00  0.00000000E+00
  1.60000000E+01  1.00800000E+00  1.00800000E+00  0.00000000E+00  1.60000000E+01
  1.00800000E+00  1.00800000E+00  0.00000000E+00  1.60000000E+01  1.00800000E+00
  1.00800000E+00  0.00000000E+00  1.60000000E+01  1.00800000E+00  1.00800000E+00
  0.00000000E+00  1.60000000E+01  1.00800000E+00  1.00800000E+00  0.00000000E+00
  1.60000000E+01  1.00800000E+00  1.00800000E+00  0.00000000E+00  1.60000000E+01
  1.00800000E+00  1.00800000E+00  0.00000000E+00  1.60000000E+01  1.00800000E+00
  1.00800000E+00  0.00000000E+00  1.60000000E+01  1.00800000E+00  1.00800000E+00
  0.00000000E+00  1.60000000E+01  1.00800000E+00  1.00800000E+00  0.00000000E+00
  1.60000000E+01  1.00800000E+00  1.00800000E+00  0.00000000E+00  1.60000000E+01
  1.00800000E+00  1.00800000E+00  0.00000000E+00  1.60000000E+01  1.00800000E+00
  1.00800000E+00  0.00000000E+00  1.60000000E+01  1.00800000E+00  1.00800000E+00
  0.00000000E+00  1.60000000E+01  1.00800000E+00  1.00800000E+00  0.00000000E+00
  1.60000000E+01  1.00800000E+00  1.00800000E+00  0.00000000E+00  1.60000000E+01
  1.00800000E+00  1.00800000E+00  0.00000000E+00  1.60000000E+01  1.00800000E+00
  1.00800000E+00  0.00000000E+00  1.60000000E+01  1.00800000E+00  1.00800000E+00
  0.00000000E+00  1.60000000E+01  1.00800000E+00  1.00800000E+00  0.00000000E+00
  1.60000000E+01  1.00800000E+00  1.00800000E+00  0.00000000E+00  1.60000000E+01
  1.00800000E+00  1.00800000E+00  0.00000000E+00  1.60000000E+01  1.00800000E+00
  1.00800000E+00  0.00000000E+00  1.60000000E+01  1.00800000E+00  1.00800000E+00
  0.00000000E+00  1.60000000E+01  1.00800000E+00  1.00800000E+00  0.00000000E+00
  1.60000000E+01  1.00800000E+00  1.00800000E+00  0.00000000E+00  1.60000000E+01
  1.00800000E+00  1.00800000E+00  0.00000000E+00  1.60000000E+01  1.00800000E+00
  1.00800000E+00  0.00000000E+00  1.60000000E+01  1.00800000E+00  1.00800000E+00
  0.00000000E+00  1.60000000E+01  1.00800000E+00  1.00800000E+00  0.00000000E+00
  1.60000000E+01  1.00800000E+00  1.00800000E+00  0.00000000E+00  1.60000000E+01
  1.00800000E+00  1.00800000E+00  0.00000000E+00  1.60000000E+01  1.00800000E+00
  1.00800000E+00  0.00000000E+00  1.60000000E+01  1.00800000E+00  1.00800000E+00
  0.00000000E+00  1.60000000E+01  1.00800000E+00  1.00800000E+00  0.00000000E+00
  1.60000000E+01  1.00800000E+00  1.00800000E+00  0.00000000E+00  1.60000000E+01
  1.00800000E+00  1.00800000E+00  0.00000000E+00  1.60000000E+01  1.00800000E+00
  1.00800000E+00  0.00000000E+00  1.60000000E+01  1.00800000E+00  1.00800000E+00
  0.00000000E+00  1.60000000E+01  1.00800000E+00  1.00800000E+00  0.00000000E+00
  1.60000000E+01  1.00800000E+00  1.00800000E+00  0.00000000E+00  1.60000000E+01
  1.00800000E+00  1.00800000E+00  0.00000000E+00  1.60000000E+01  1.00800000E+00
  1.00800000E+00  0.00000000E+00  1.60000000E+01  1.00800000E+00  1.00800000E+00
  0.00000000E+00  1.60000000E+01  1.00800000E+00  1.00800000E+00  0.00000000E+00
  1.60000000E+01  1.00800000E+00  1.00800000E+00  0.00000000E+00  1.60000000E+01
  1.00800000E+00  1.00800000E+00  0.00000000E+00  1.60000000E+01  1.00800000E+00
  1.00800000E+00  0.00000000E+00  1.60000000E+01  1.00800000E+00  1.00800000E+00
  0.00000000E+00  1.60000000E+01  1.00800000E+00  1.00800000E+00  0.00000000E+00
  1.60000000E+01  1.00800000E+00  1.00800000E+00  0.00000000E+00  1.60000000E+01
  1.00800000E+00  1.00800000E+00  0.00000000E+00  1.60000000E+01  1.00800000E+00
  1.00800000E+00  0.00000000E+00  1.60000000E+01  1.00800000E+00  1.00800000E+00
  0.00000000E+00  1.60000000E+01  1.00800000E+00  1.00800000E+00  0.00000000E+00
  1.60000000E+01  1.00800000E+00  1.00800000E+00  0.00000000E+00  1.60000000E+01
  1.00800000E+00  1.00800000E+00  0.00000000E+00  1.60000000E+01  1.00800000E+00
  1.00800000E+00  0.00000000E+00  1.60000000E+01  1.00800000E+00  1.00800000E+00
  0.00000000E+00  1.60000000E+01  1.00800000E+00  1.00800000E+00  0.00000000E+00
  1.60000000E+01  1.00800000E+00  1.00800000E+00  0.00000000E+00  1.60000000E+01
  1.00800000E+00  1.00800000E+00  0.00000000E+00  1.60000000E+01  1.00800000E+00
  1.00800000E+00  0.00000000E+00  1.60000000E+01  1.00800000E+00  1.00800000E+00
  0.00000000E+00  1.60000000E+01  1.00800000E+00  1.00800000E+00  0.00000000E+00
  1.60000000E+01  1.00800000E+00  1.00800000E+00  0.00000000E+00  1.60000000E+01
  1.00800000E+00  1.00800000E+00  0.00000000E+00  1.60000000E+01  1.00800000E+00
  1.00800000E+00  0.00000000E+00  1.60000000E+01  1.00800000E+00  1.00800000E+00
  0.00000000E+00  1.60000000E+01  1.00800000E+00  1.00800000E+00  0.00000000E+00
  1.60000000E+01  1.00800000E+00  1.00800000E+00  0.00000000E+00  1.60000000E+01
  1.00800000E+00  1.00800000E+00  0.00000000E+00  1.60000000E+01  1.00800000E+00
  1.00800000E+00  0.00000000E+00  1.60000000E+01  1.00800000E+00  1.00800000E+00
  0.00000000E+00  1.60000000E+01  1.00800000E+00  1.00800000E+00  0.00000000E+00
  1.60000000E+01  1.00800000E+00  1.00800000E+00  0.00000000E+00  1.60000000E+01
  1.00800000E+00  1.00800000E+00  0.00000000E+00  1.60000000E+01  1.00800000E+00
  1.00800000E+00  0.00000000E+00  1.60000000E+01  1.00800000E+00  1.00800000E+00
  0.00000000E+00  1.60000000E+01  1.00800000E+00  1.00800000E+00  0.00000000E+00
  1.60000000E+01  1.00800000E+00  1.00800000E+00  0.00000000E+00  1.60000000E+01
  1.00800000E+00  1.00800000E+00  0.00000000E+00  1.60000000E+01  1.00800000E+00
  1.00800000E+00  0.00000000E+00  1.60000000E+01  1.00800000E+00  1.00800000E+00
  0.00000000E+00  1.60000000E+01  1.00800000E+00  1.00800000E+00  0.00000000E+00
  1.60000000E+01  1.00800000E+00  1.00800000E+00  0.00000000E+00  1.60000000E+01
  1.00800000E+00  1.00800000E+00  0.00000000E+00  1.60000000E+01  1.00800000E+00
  1.00800000E+00  0.00000000E+00  1.60000000E+01  1.00800000E+00  1.00800000E+00
  0.00000000E+00  1.60000000E+01  1.00800000E+00  1.00800000E+00  0.00000000E+00
  1.60000000E+01  1.00800000E+00  1.00800000E+00  0.00000000E+00  1.60000000E+01
  1.00800000E+00  1.00800000E+00  0.00000000E+00  1.60000000E+01  1.00800000E+00
  1.00800000E+00  0.00000000E+00  1.60000000E+01  1.00800000E+00  1.00800000E+00
  0.00000000E+00  1.60000000E+01  1.00800000E+00  1.00800000E+00  0.00000000E+00
  1.60000000E+01  1.00800000E+00  1.00800000E+00  0.00000000E+00  1.60000000E+01
  1.00800000E+00  1.00800000E+00  0.00000000E+00  1.60000000E+01  1.00800000E+00
  1.00800000E+00  0.00000000E+00  1.60000000E+01  1.00800000E+00  1.00800000E+00
  0.00000000E+00  1.60000000E+01  1.00800000E+00  1.00800000E+00  0.00000000E+00
  1.60000000E+01  1.00800000E+00  1.00800000E+00  0.00000000E+00  1.60000000E+01
  1.00800000E+00  1.00800000E+00  0.00000000E+00  1.60000000E+01  1.00800000E+00
  1.00800000E+00  0.00000000E+00  1.60000000E+01  1.00800000E+00  1.00800000E+00
  0.00000000E+00  1.60000000E+01  1.00800000E+00  1.00800000E+00  0.00000000E+00
  1.60000000E+01  1.00800000E+00  1.00800000E+00  0.00000000E+00  1.60000000E+01
  1.00800000E+00  1.00800000E+00  0.00000000E+00  1.60000000E+01  1.00800000E+00
  1.00800000E+00  0.00000000E+00  1.60000000E+01  1.00800000E+00  1.00800000E+00
  0.00000000E+00  1.60000000E+01  1.00800000E+00  1.00800000E+00  0.00000000E+00
  1.60000000E+01  1.00800000E+00  1.00800000E+00  0.00000000E+00  1.60000000E+01
  1.00800000E+00  1.00800000E+00  0.00000000E+00  1.60000000E+01  1.00800000E+00
  1.00800000E+00  0.00000000E+00  1.60000000E+01  1.00800000E+00  1.00800000E+00
  0.00000000E+00  1.60000000E+01  1.00800000E+00  1.00800000E+00  0.00000000E+00
  1.60000000E+01  1.00800000E+00  1.00800000E+00  0.00000000E+00  1.60000000E+01
  1.00800000E+00  1.00800000E+00  0.00000000E+00  1.60000000E+01  1.00800000E+00
  1.00800000E+00  0.00000000E+00  1.60000000E+01  1.00800000E+00  1.00800000E+00
  0.00000000E+00  1.60000000E+01  1.00800000E+00  1.00800000E+00  0.00000000E+00
  1.60000000E+01  1.00800000E+00  1.00800000E+00  0.00000000E+00  1.60000000E+01
  1.00800000E+00  1.00800000E+00  0.00000000E+00  1.60000000E+01  1.00800000E+00
  1.00800000E+00  0.00000000E+00  1.60000000E+01  1.00800000E+00  1.00800000E+00
  0.00000000E+00  1.60000000E+01  1.00800000E+00  1.00800000E+00  0.00000000E+00
  1.60000000E+01  1.00800000E+00  1.00800000E+00  0.00000000E+00  1.60000000E+01
  1.00800000E+00  1.00800000E+00  0.00000000E+00  1.60000000E+01  1.00800000E+00
  1.00800000E+00  0.00000000E+00  1.60000000E+01  1.00800000E+00  1.00800000E+00
  0.00000000E+00  1.60000000E+01  1.00800000E+00  1.00800000E+00  0.00000000E+00
  1.60000000E+01  1.00800000E+00  1.00800000E+00  0.00000000E+00  1.60000000E+01
  1.00800000E+00  1.00800000E+00  0.00000000E+00  1.60000000E+01  1.00800000E+00
  1.00800000E+00  0.00000000E+00  1.60000000E+01  1.00800000E+00  1.00800000E+00
  0.00000000E+00  1.60000000E+01  1.00800000E+00  1.00800000E+00  0.00000000E+00
  1.60000000E+01  1.00800000E+00  1.00800000E+00  0.00000000E+00  1.60000000E+01
  1.00800000E+00  1.00800000E+00  0.00000000E+00  1.60000000E+01  1.00800000E+00
  1.00800000E+00  0.00000000E+00  1.60000000E+01  1.00800000E+00  1.00800000E+00
  0.00000000E+00  1.60000000E+01  1.00800000E+00  1.00800000E+00  0.00000000E+00
  1.60000000E+01  1.00800000E+00  1.00800000E+00  0.00000000E+00  1.60000000E+01
  1.00800000E+00  1.00800000E+00  0.00000000E+00  1.60000000E+01  1.00800000E+00
  1.00800000E+00  0.00000000E+00  1.60000000E+01  1.00800000E+00  1.00800000E+00
  0.00000000E+00  1.60000000E+01  1.00800000E+00  1.00800000E+00  0.00000000E+00
  1.60000000E+01  1.00800000E+00  1.00800000E+00  0.00000000E+00  1.60000000E+01
  1.00800000E+00  1.00800000E+00  0.00000000E+00  1.60000000E+01  1.00800000E+00
  1.00800000E+00  0.00000000E+00  1.60000000E+01  1.00800000E+00  1.00800000E+00
  0.00000000E+00  1.60000000E+01  1.00800000E+00  1.00800000E+00  0.00000000E+00
  1.60000000E+01  1.00800000E+00  1.00800000E+00  0.00000000E+00  1.60000000E+01
  1.00800000E+00  1.00800000E+00  0.00000000E+00  1.60000000E+01  1.00800000E+00
  1.00800000E+00  0.00000000E+00  1.60000000E+01  1.00800000E+00  1.00800000E+00
  0.00000000E+00  1.60000000E+01  1.00800000E+00  1.00800000E+00  0.00000000E+00
  1.60000000E+01  1.00800000E+00  1.00800000E+00  0.00000000E+00  1.60000000E+01
  1.00800000E+00  1.00800000E+00  0.00000000E+00  1.60000000E+01  1.00800000E+00
  1.00800000E+00  0.00000000E+00  1.60000000E+01  1.00800000E+00  1.00800000E+00
  0.00000000E+00  1.60000000E+01  1.00800000E+00  1.00800000E+00  0.00000000E+00
  1.60000000E+01  1.00800000E+00  1.00800000E+00  0.00000000E+00  1.60000000E+01
  1.00800000E+00  1.00800000E+00  0.00000000E+00  1.60000000E+01  1.00800000E+00
  1.00800000E+00  0.00000000E+00  1.60000000E+01  1.00800000E+00  1.00800000E+00
  0.00000000E+00  1.60000000E+01  1.00800000E+00  1.00800000E+00  0.00000000E+00
  1.60000000E+01  1.00800000E+00  1.00800000E+00  0.00000000E+00  1.60000000E+01
  1.00800000E+00  1.00800000E+00  0.00000000E+00  1.60000000E+01  1.00800000E+00
  1.00800000E+00  0.00000000E+00  1.60000000E+01  1.00800000E+00  1.00800000E+00
  0.00000000E+00  1.60000000E+01  1.00800000E+00  1.00800000E+00  0.00000000E+00
  1.60000000E+01  1.00800000E+00  1.00800000E+00  0.00000000E+00  1.60000000E+01
  1.00800000E+00  1.00800000E+00  0.00000000E+00  1.60000000E+01  1.00800000E+00
  1.00800000E+00  0.00000000E+00  1.60000000E+01  1.00800000E+00  1.00800000E+00
  0.00000000E+00  1.60000000E+01  1.00800000E+00  1.00800000E+00  0.00000000E+00
  1.60000000E+01  1.00800000E+00  1.00800000E+00  0.00000000E+00  1.60000000E+01
  1.00800000E+00  1.00800000E+00  0.00000000E+00  1.60000000E+01  1.00800000E+00
  1.00800000E+00  0.00000000E+00  1.60000000E+01  1.00800000E+00  1.00800000E+00
  0.00000000E+00  1.60000000E+01  1.00800000E+00  1.00800000E+00  0.00000000E+00
  1.60000000E+01  1.00800000E+00  1.00800000E+00  0.00000000E+00  1.60000000E+01
  1.00800000E+00  1.00800000E+00  0.00000000E+00  1.60000000E+01  1.00800000E+00
  1.00800000E+00  0.00000000E+00  1.60000000E+01  1.00800000E+00  1.00800000E+00
  0.00000000E+00  1.60000000E+01  1.00800000E+00  1.00800000E+00  0.00000000E+00
  1.60000000E+01  1.00800000E+00  1.00800000E+00  0.00000000E+00  1.60000000E+01
  1.00800000E+00  1.00800000E+00  0.00000000E+00  1.60000000E+01  1.00800000E+00
  1.00800000E+00  0.00000000E+00  1.60000000E+01  1.00800000E+00  1.00800000E+00
  0.00000000E+00  1.60000000E+01  1.00800000E+00  1.00800000E+00  0.00000000E+00
  1.60000000E+01  1.00800000E+00  1.00800000E+00  0.00000000E+00  1.60000000E+01
  1.00800000E+00  1.00800000E+00  0.00000000E+00  1.60000000E+01  1.00800000E+00
  1.00800000E+00  0.00000000E+00  1.60000000E+01  1.00800000E+00  1.00800000E+00
  0.00000000E+00  1.60000000E+01  1.00800000E+00  1.00800000E+00  0.00000000E+00
  1.60000000E+01  1.00800000E+00  1.00800000E+00  0.00000000E+00  1.60000000E+01
  1.00800000E+00  1.00800000E+00  0.00000000E+00  1.60000000E+01  1.00800000E+00
  1.00800000E+00  0.00000000E+00  1.60000000E+01  1.00800000E+00  1.00800000E+00
  0.00000000E+00  1.60000000E+01  1.00800000E+00  1.00800000E+00  0.00000000E+00
  1.60000000E+01  1.00800000E+00  1.00800000E+00  0.00000000E+00  1.60000000E+01
  1.00800000E+00  1.00800000E+00  0.00000000E+00  1.60000000E+01  1.00800000E+00
  1.00800000E+00  0.00000000E+00  1.60000000E+01  1.00800000E+00  1.00800000E+00
  0.00000000E+00  1.60000000E+01  1.00800000E+00  1.00800000E+00  0.00000000E+00
  1.60000000E+01  1.00800000E+00  1.00800000E+00  0.00000000E+00  1.60000000E+01
  1.00800000E+00  1.00800000E+00  0.00000000E+00  1.60000000E+01  1.00800000E+00
  1.00800000E+00  0.00000000E+00  1.60000000E+01  1.00800000E+00  1.00800000E+00
  0.00000000E+00  1.60000000E+01  1.00800000E+00  1.00800000E+00  0.00000000E+00
  1.60000000E+01  1.00800000E+00  1.00800000E+00  0.00000000E+00  1.60000000E+01
  1.00800000E+00  1.00800000E+00  0.00000000E+00  1.60000000E+01  1.00800000E+00
  1.00800000E+00  0.00000000E+00  1.60000000E+01  1.00800000E+00  1.00800000E+00
  0.00000000E+00  1.60000000E+01  1.00800000E+00  1.00800000E+00  0.00000000E+00
  1.60000000E+01  1.00800000E+00  1.00800000E+00  0.00000000E+00  1.60000000E+01
  1.00800000E+00  1.00800000E+00  0.00000000E+00  1.60000000E+01  1.00800000E+00
  1.00800000E+00  0.00000000E+00  1.60000000E+01  1.00800000E+00  1.00800000E+00
  0.00000000E+00  1.60000000E+01  1.00800000E+00  1.00800000E+00  0.00000000E+00
  1.60000000E+01  1.00800000E+00  1.00800000E+00  0.00000000E+00  1.60000000E+01
  1.00800000E+00  1.00800000E+00  0.00000000E+00  1.60000000E+01  1.00800000E+00
  1.00800000E+00  0.00000000E+00  1.60000000E+01  1.00800000E+00  1.00800000E+00
  0.00000000E+00  1.60000000E+01  1.00800000E+00  1.00800000E+00  0.00000000E+00
  1.60000000E+01  1.00800000E+00  1.00800000E+00  0.00000000E+00  1.60000000E+01
  1.00800000E+00  1.00800000E+00  0.00000000E+00  1.60000000E+01  1.00800000E+00
  1.00800000E+00  0.00000000E+00  1.60000000E+01  1.00800000E+00  1.00800000E+00
  0.00000000E+00  1.60000000E+01  1.00800000E+00  1.00800000E+00  0.00000000E+00
  1.60000000E+01  1.00800000E+00  1.00800000E+00  0.00000000E+00  1.60000000E+01
  1.00800000E+00  1.00800000E+00  0.00000000E+00  1.60000000E+01  1.00800000E+00
  1.00800000E+00  0.00000000E+00  1.60000000E+01  1.00800000E+00  1.00800000E+00
  0.00000000E+00  1.60000000E+01  1.00800000E+00  1.00800000E+00  0.00000000E+00
  1.60000000E+01  1.00800000E+00  1.00800000E+00  0.00000000E+00  1.60000000E+01
  1.00800000E+00  1.00800000E+00  0.00000000E+00  1.60000000E+01  1.00800000E+00
  1.00800000E+00  0.00000000E+00  1.60000000E+01  1.00800000E+00  1.00800000E+00
  0.00000000E+00  1.60000000E+01  1.00800000E+00  1.00800000E+00  0.00000000E+00
  1.60000000E+01  1.00800000E+00  1.00800000E+00  0.00000000E+00  1.60000000E+01
  1.00800000E+00  1.00800000E+00  0.00000000E+00  1.60000000E+01  1.00800000E+00
  1.00800000E+00  0.00000000E+00  1.60000000E+01  1.00800000E+00  1.00800000E+00
  0.00000000E+00  1.60000000E+01  1.00800000E+00  1.00800000E+00  0.00000000E+00
  1.60000000E+01  1.00800000E+00  1.00800000E+00  0.00000000E+00  1.60000000E+01
  1.00800000E+00  1.00800000E+00  0.00000000E+00  1.60000000E+01  1.00800000E+00
  1.00800000E+00  0.00000000E+00  1.60000000E+01  1.00800000E+00  1.00800000E+00
  0.00000000E+00  1.60000000E+01  1.00800000E+00  1.00800000E+00  0.00000000E+00
  1.60000000E+01  1.00800000E+00  1.00800000E+00  0.00000000E+00  1.60000000E+01
  1.00800000E+00  1.00800000E+00  0.00000000E+00  1.60000000E+01  1.00800000E+00
  1.00800000E+00  0.00000000E+00  1.60000000E+01  1.00800000E+00  1.00800000E+00
  0.00000000E+00  1.60000000E+01  1.00800000E+00  1.00800000E+00  0.00000000E+00
  1.60000000E+01  1.00800000E+00  1.00800000E+00  0.00000000E+00  1.60000000E+01
  1.00800000E+00  1.00800000E+00  0.00000000E+00  1.60000000E+01  1.00800000E+00
  1.00800000E+00  0.00000000E+00  1.60000000E+01  1.00800000E+00  1.00800000E+00
  0.00000000E+00  1.60000000E+01  1.00800000E+00  1.00800000E+00  0.00000000E+00
  1.60000000E+01  1.00800000E+00  1.00800000E+00  0.00000000E+00  1.60000000E+01
  1.00800000E+00  1.00800000E+00  0.00000000E+00  1.60000000E+01  1.00800000E+00
  1.00800000E+00  0.00000000E+00  1.60000000E+01  1.00800000E+00  1.00800000E+00
  0.00000000E+00  1.60000000E+01  1.00800000E+00  1.00800000E+00  0.00000000E+00
  1.60000000E+01  1.00800000E+00  1.00800000E+00  0.00000000E+00  1.60000000E+01
  1.00800000E+00  1.00800000E+00  0.00000000E+00  1.60000000E+01  1.00800000E+00
  1.00800000E+00  0.00000000E+00  1.60000000E+01  1.00800000E+00  1.00800000E+00
  0.00000000E+00  1.60000000E+01  1.00800000E+00  1.00800000E+00  0.00000000E+00
  1.60000000E+01  1.00800000E+00  1.00800000E+00  0.00000000E+00  1.60000000E+01
  1.00800000E+00  1.00800000E+00  0.00000000E+00  1.60000000E+01  1.00800000E+00
  1.00800000E+00  0.00000000E+00  1.60000000E+01  1.00800000E+00  1.00800000E+00
  0.00000000E+00  1.60000000E+01  1.00800000E+00  1.00800000E+00  0.00000000E+00
  1.60000000E+01  1.00800000E+00  1.00800000E+00  0.00000000E+00  1.60000000E+01
  1.00800000E+00  1.00800000E+00  0.00000000E+00  1.60000000E+01  1.00800000E+00
  1.00800000E+00  0.00000000E+00  1.60000000E+01  1.00800000E+00  1.00800000E+00
  0.00000000E+00  1.60000000E+01  1.00800000E+00  1.00800000E+00  0.00000000E+00
  1.60000000E+01  1.00800000E+00  1.00800000E+00  0.00000000E+00  1.60000000E+01
  1.00800000E+00  1.00800000E+00  0.00000000E+00  1.60000000E+01  1.00800000E+00
  1.00800000E+00  0.00000000E+00  1.60000000E+01  1.00800000E+00  1.00800000E+00
  0.00000000E+00  1.60000000E+01  1.00800000E+00  1.00800000E+00  0.00000000E+00
  1.60000000E+01  1.00800000E+00  1.00800000E+00  0.00000000E+00  1.60000000E+01
  1.00800000E+00  1.00800000E+00  0.00000000E+00  1.60000000E+01  1.00800000E+00
  1.00800000E+00  0.00000000E+00  1.60000000E+01  1.00800000E+00  1.00800000E+00
  0.00000000E+00  1.60000000E+01  1.00800000E+00  1.00800000E+00  0.00000000E+00
  1.60000000E+01  1.00800000E+00  1.00800000E+00  0.00000000E+00  1.60000000E+01
  1.00800000E+00  1.00800000E+00  0.00000000E+00  1.60000000E+01  1.00800000E+00
  1.00800000E+00  0.00000000E+00  1.60000000E+01  1.00800000E+00  1.00800000E+00
  0.00000000E+00  1.60000000E+01  1.00800000E+00  1.00800000E+00  0.00000000E+00
  1.60000000E+01  1.00800000E+00  1.00800000E+00  0.00000000E+00  1.60000000E+01
  1.00800000E+00  1.00800000E+00  0.00000000E+00  1.60000000E+01  1.00800000E+00
  1.00800000E+00  0.00000000E+00  1.60000000E+01  1.00800000E+00  1.00800000E+00
  0.00000000E+00  1.60000000E+01  1.00800000E+00  1.00800000E+00  0.00000000E+00
  1.60000000E+01  1.00800000E+00  1.00800000E+00  0.00000000E+00  1.60000000E+01
  1.00800000E+00  1.00800000E+00  0.00000000E+00  1.60000000E+01  1.00800000E+00
  1.00800000E+00  0.00000000E+00  1.60000000E+01  1.00800000E+00  1.00800000E+00
  0.00000000E+00  1.60000000E+01  1.00800000E+00  1.00800000E+00  0.00000000E+00
  1.60000000E+01  1.00800000E+00  1.00800000E+00  0.00000000E+00  1.60000000E+01
  1.00800000E+00  1.00800000E+00  0.00000000E+00  1.60000000E+01  1.00800000E+00
  1.00800000E+00  0.00000000E+00  1.60000000E+01  1.00800000E+00  1.00800000E+00
  0.00000000E+00  1.60000000E+01  1.00800000E+00  1.00800000E+00  0.00000000E+00
  1.60000000E+01  1.00800000E+00  1.00800000E+00  0.00000000E+00  1.60000000E+01
  1.00800000E+00  1.00800000E+00  0.00000000E+00  1.60000000E+01  1.00800000E+00
  1.00800000E+00  0.00000000E+00  1.60000000E+01  1.00800000E+00  1.00800000E+00
  0.00000000E+00  1.60000000E+01  1.00800000E+00  1.00800000E+00  0.00000000E+00
  1.60000000E+01  1.00800000E+00  1.00800000E+00  0.00000000E+00  1.60000000E+01
  1.00800000E+00  1.00800000E+00  0.00000000E+00  1.60000000E+01  1.00800000E+00
  1.00800000E+00  0.00000000E+00  1.60000000E+01  1.00800000E+00  1.00800000E+00
  0.00000000E+00  1.60000000E+01  1.00800000E+00  1.00800000E+00  0.00000000E+00
  1.60000000E+01  1.00800000E+00  1.00800000E+00  0.00000000E+00  1.60000000E+01
  1.00800000E+00  1.00800000E+00  0.00000000E+00  1.60000000E+01  1.00800000E+00
  1.00800000E+00  0.00000000E+00  1.60000000E+01  1.00800000E+00  1.00800000E+00
  0.00000000E+00  1.60000000E+01  1.00800000E+00  1.00800000E+00  0.00000000E+00
  1.60000000E+01  1.00800000E+00  1.00800000E+00  0.00000000E+00  1.60000000E+01
  1.00800000E+00  1.00800000E+00  0.00000000E+00  1.60000000E+01  1.00800000E+00
  1.00800000E+00  0.00000000E+00  1.60000000E+01  1.00800000E+00  1.00800000E+00
  0.00000000E+00  1.60000000E+01  1.00800000E+00  1.00800000E+00  0.00000000E+00
  1.60000000E+01  1.00800000E+00  1.00800000E+00  0.00000000E+00  1.60000000E+01
  1.00800000E+00  1.00800000E+00  0.00000000E+00  1.60000000E+01  1.00800000E+00
  1.00800000E+00  0.00000000E+00  1.60000000E+01  1.00800000E+00  1.00800000E+00
  0.00000000E+00  1.60000000E+01  1.00800000E+00  1.00800000E+00  0.00000000E+00
  1.60000000E+01  1.00800000E+00  1.00800000E+00  0.00000000E+00  1.60000000E+01
  1.00800000E+00  1.00800000E+00  0.00000000E+00  1.60000000E+01  1.00800000E+00
  1.00800000E+00  0.00000000E+00  1.60000000E+01  1.00800000E+00  1.00800000E+00
  0.00000000E+00  1.60000000E+01  1.00800000E+00  1.00800000E+00  0.00000000E+00
  1.60000000E+01  1.00800000E+00  1.00800000E+00  0.00000000E+00  1.60000000E+01
  1.00800000E+00  1.00800000E+00  0.00000000E+00  1.60000000E+01  1.00800000E+00
  1.00800000E+00  0.00000000E+00  1.60000000E+01  1.00800000E+00  1.00800000E+00
  0.00000000E+00  1.60000000E+01  1.00800000E+00  1.00800000E+00  0.00000000E+00
  1.60000000E+01  1.00800000E+00  1.00800000E+00  0.00000000E+00  1.60000000E+01
  1.00800000E+00  1.00800000E+00  0.00000000E+00  1.60000000E+01  1.00800000E+00
  1.00800000E+00  0.00000000E+00  1.60000000E+01  1.00800000E+00  1.00800000E+00
  0.00000000E+00  1.60000000E+01  1.00800000E+00  1.00800000E+00  0.00000000E+00
  1.60000000E+01  1.00800000E+00  1.00800000E+00  0.00000000E+00  1.60000000E+01
  1.00800000E+00  1.00800000E+00  0.00000000E+00  1.60000000E+01  1.00800000E+00
  1.00800000E+00  0.00000000E+00  1.60000000E+01  1.00800000E+00  1.00800000E+00
  0.00000000E+00  1.60000000E+01  1.00800000E+00  1.00800000E+00  0.00000000E+00
  1.60000000E+01  1.00800000E+00  1.00800000E+00  0.00000000E+00  1.60000000E+01
  1.00800000E+00  1.00800000E+00  0.00000000E+00  1.60000000E+01  1.00800000E+00
  1.00800000E+00  0.00000000E+00  1.60000000E+01  1.00800000E+00  1.00800000E+00
  0.00000000E+00  1.60000000E+01  1.00800000E+00  1.00800000E+00  0.00000000E+00
  1.60000000E+01  1.00800000E+00  1.00800000E+00  0.00000000E+00  1.60000000E+01
  1.00800000E+00  1.00800000E+00  0.00000000E+00  1.60000000E+01  1.00800000E+00
  1.00800000E+00  0.00000000E+00  1.60000000E+01  1.00800000E+00  1.00800000E+00
  0.00000000E+00  1.60000000E+01  1.00800000E+00  1.00800000E+00  0.00000000E+00
  1.60000000E+01  1.00800000E+00  1.00800000E+00  0.00000000E+00  1.60000000E+01
  1.00800000E+00  1.00800000E+00  0.00000000E+00  1.60000000E+01  1.00800000E+00
  1.00800000E+00  0.00000000E+00  1.60000000E+01  1.00800000E+00  1.00800000E+00
  0.00000000E+00  1.60000000E+01  1.00800000E+00  1.00800000E+00  0.00000000E+00
  1.60000000E+01  1.00800000E+00  1.00800000E+00  0.00000000E+00  1.60000000E+01
  1.00800000E+00  1.00800000E+00  0.00000000E+00  1.60000000E+01  1.00800000E+00
  1.00800000E+00  0.00000000E+00  1.60000000E+01  1.00800000E+00  1.00800000E+00
  0.00000000E+00  1.60000000E+01  1.00800000E+00  1.00800000E+00  0.00000000E+00
  1.60000000E+01  1.00800000E+00  1.00800000E+00  0.00000000E+00  1.60000000E+01
  1.00800000E+00  1.00800000E+00  0.00000000E+00  1.60000000E+01  1.00800000E+00
  1.00800000E+00  0.00000000E+00  1.60000000E+01  1.00800000E+00  1.00800000E+00
  0.00000000E+00  1.60000000E+01  1.00800000E+00  1.00800000E+00  0.00000000E+00
  1.60000000E+01  1.00800000E+00  1.00800000E+00  0.00000000E+00  1.60000000E+01
  1.00800000E+00  1.00800000E+00  0.00000000E+00  1.60000000E+01  1.00800000E+00
  1.00800000E+00  0.00000000E+00  1.60000000E+01  1.00800000E+00  1.00800000E+00
  0.00000000E+00  1.60000000E+01  1.00800000E+00  1.00800000E+00  0.00000000E+00
  1.60000000E+01  1.00800000E+00  1.00800000E+00  0.00000000E+00  1.60000000E+01
  1.00800000E+00  1.00800000E+00  0.00000000E+00  1.60000000E+01  1.00800000E+00
  1.00800000E+00  0.00000000E+00  1.60000000E+01  1.00800000E+00  1.00800000E+00
  0.00000000E+00  1.60000000E+01  1.00800000E+00  1.00800000E+00  0.00000000E+00
  1.60000000E+01  1.00800000E+00  1.00800000E+00  0.00000000E+00  1.60000000E+01
  1.00800000E+00  1.00800000E+00  0.00000000E+00  1.60000000E+01  1.00800000E+00
  1.00800000E+00  0.00000000E+00  1.60000000E+01  1.00800000E+00  1.00800000E+00
  0.00000000E+00  1.60000000E+01  1.00800000E+00  1.00800000E+00  0.00000000E+00
  1.60000000E+01  1.00800000E+00  1.00800000E+00  0.00000000E+00  1.60000000E+01
  1.00800000E+00  1.00800000E+00  0.00000000E+00  1.60000000E+01  1.00800000E+00
  1.00800000E+00  0.00000000E+00  1.60000000E+01  1.00800000E+00  1.00800000E+00
  0.00000000E+00  1.60000000E+01  1.00800000E+00  1.00800000E+00  0.00000000E+00
  1.60000000E+01  1.00800000E+00  1.00800000E+00  0.00000000E+00  1.60000000E+01
  1.00800000E+00  1.00800000E+00  0.00000000E+00  1.60000000E+01  1.00800000E+00
  1.00800000E+00  0.00000000E+00  1.60000000E+01  1.00800000E+00  1.00800000E+00
  0.00000000E+00  1.60000000E+01  1.00800000E+00  1.00800000E+00  0.00000000E+00
  1.60000000E+01  1.00800000E+00  1.00800000E+00  0.00000000E+00  1.60000000E+01
  1.00800000E+00  1.00800000E+00  0.00000000E+00  1.60000000E+01  1.00800000E+00
  1.00800000E+00  0.00000000E+00  1.60000000E+01  1.00800000E+00  1.00800000E+00
  0.00000000E+00  1.60000000E+01  1.00800000E+00  1.00800000E+00  0.00000000E+00
  1.60000000E+01  1.00800000E+00  1.00800000E+00  0.00000000E+00  1.60000000E+01
  1.00800000E+00  1.00800000E+00  0.00000000E+00  1.60000000E+01  1.00800000E+00
  1.00800000E+00  0.00000000E+00  1.60000000E+01  1.00800000E+00  1.00800000E+00
  0.00000000E+00  1.60000000E+01  1.00800000E+00  1.00800000E+00  0.00000000E+00
  1.60000000E+01  1.00800000E+00  1.00800000E+00  0.00000000E+00  1.60000000E+01
  1.00800000E+00  1.00800000E+00  0.00000000E+00  1.60000000E+01  1.00800000E+00
  1.00800000E+00  0.00000000E+00  1.60000000E+01  1.00800000E+00  1.00800000E+00
  0.00000000E+00  1.60000000E+01  1.00800000E+00  1.00800000E+00  0.00000000E+00
  1.60000000E+01  1.00800000E+00  1.00800000E+00  0.00000000E+00  1.60000000E+01
  1.00800000E+00  1.00800000E+00  0.00000000E+00  1.60000000E+01  1.00800000E+00
  1.00800000E+00  0.00000000E+00  1.60000000E+01  1.00800000E+00  1.00800000E+00
  0.00000000E+00  1.60000000E+01  1.00800000E+00  1.00800000E+00  0.00000000E+00
  1.60000000E+01  1.00800000E+00  1.00800000E+00  0.00000000E+00  1.60000000E+01
  1.00800000E+00  1.00800000E+00  0.00000000E+00  1.60000000E+01  1.00800000E+00
  1.00800000E+00  0.00000000E+00  1.60000000E+01  1.00800000E+00  1.00800000E+00
  0.00000000E+00  1.60000000E+01  1.00800000E+00  1.00800000E+00  0.00000000E+00
  1.60000000E+01  1.00800000E+00  1.00800000E+00  0.00000000E+00  1.60000000E+01
  1.00800000E+00  1.00800000E+00  0.00000000E+00  1.60000000E+01  1.00800000E+00
  1.00800000E+00  0.00000000E+00  1.60000000E+01  1.00800000E+00  1.00800000E+00
  0.00000000E+00  1.60000000E+01  1.00800000E+00  1.00800000E+00  0.00000000E+00
  1.60000000E+01  1.00800000E+00  1.00800000E+00  0.00000000E+00  1.60000000E+01
  1.00800000E+00  1.00800000E+00  0.00000000E+00  1.60000000E+01  1.00800000E+00
  1.00800000E+00  0.00000000E+00  1.60000000E+01  1.00800000E+00  1.00800000E+00
  0.00000000E+00  1.60000000E+01  1.00800000E+00  1.00800000E+00  0.00000000E+00
  1.60000000E+01  1.00800000E+00  1.00800000E+00  0.00000000E+00  1.60000000E+01
  1.00800000E+00  1.00800000E+00  0.00000000E+00  1.60000000E+01  1.00800000E+00
  1.00800000E+00  0.00000000E+00  1.60000000E+01  1.00800000E+00  1.00800000E+00
  0.00000000E+00  1.60000000E+01  1.00800000E+00  1.00800000E+00  0.00000000E+00
  1.60000000E+01  1.00800000E+00  1.00800000E+00  0.00000000E+00  1.60000000E+01
  1.00800000E+00  1.00800000E+00  0.00000000E+00  1.60000000E+01  1.00800000E+00
  1.00800000E+00  0.00000000E+00  1.60000000E+01  1.00800000E+00  1.00800000E+00
  0.00000000E+00  1.60000000E+01  1.00800000E+00  1.00800000E+00  0.00000000E+00
  1.60000000E+01  1.00800000E+00  1.00800000E+00  0.00000000E+00  1.60000000E+01
  1.00800000E+00  1.00800000E+00  0.00000000E+00  1.60000000E+01  1.00800000E+00
  1.00800000E+00  0.00000000E+00  1.60000000E+01  1.00800000E+00  1.00800000E+00
  0.00000000E+00  1.60000000E+01  1.00800000E+00  1.00800000E+00  0.00000000E+00
  1.60000000E+01  1.00800000E+00  1.00800000E+00  0.00000000E+00  1.60000000E+01
  1.00800000E+00  1.00800000E+00  0.00000000E+00  1.60000000E+01  1.00800000E+00
  1.00800000E+00  0.00000000E+00  1.60000000E+01  1.00800000E+00  1.00800000E+00
  0.00000000E+00  1.60000000E+01  1.00800000E+00  1.00800000E+00  0.00000000E+00
  1.60000000E+01  1.00800000E+00  1.00800000E+00  0.00000000E+00  1.60000000E+01
  1.00800000E+00  1.00800000E+00  0.00000000E+00  1.60000000E+01  1.00800000E+00
  1.00800000E+00  0.00000000E+00  1.60000000E+01  1.00800000E+00  1.00800000E+00
  0.00000000E+00  1.60000000E+01  1.00800000E+00  1.00800000E+00  0.00000000E+00
  1.60000000E+01  1.00800000E+00  1.00800000E+00  0.00000000E+00  1.60000000E+01
  1.00800000E+00  1.00800000E+00  0.00000000E+00  1.60000000E+01  1.00800000E+00
  1.00800000E+00  0.00000000E+00  1.60000000E+01  1.00800000E+00  1.00800000E+00
  0.00000000E+00  1.60000000E+01  1.00800000E+00  1.00800000E+00  0.00000000E+00
  1.60000000E+01  1.00800000E+00  1.00800000E+00  0.00000000E+00  1.60000000E+01
  1.00800000E+00  1.00800000E+00  0.00000000E+00  1.60000000E+01  1.00800000E+00
  1.00800000E+00  0.00000000E+00  1.60000000E+01  1.00800000E+00  1.00800000E+00
  0.00000000E+00  1.60000000E+01  1.00800000E+00  1.00800000E+00  0.00000000E+00
  1.60000000E+01  1.00800000E+00  1.00800000E+00  0.00000000E+00  1.60000000E+01
  1.00800000E+00  1.00800000E+00  0.00000000E+00  1.60000000E+01  1.00800000E+00
  1.00800000E+00  0.00000000E+00  1.60000000E+01  1.00800000E+00  1.00800000E+00
  0.00000000E+00  1.60000000E+01  1.00800000E+00  1.00800000E+00  0.00000000E+00
  1.60000000E+01  1.00800000E+00  1.00800000E+00  0.00000000E+00  1.60000000E+01
  1.00800000E+00  1.00800000E+00  0.00000000E+00  1.60000000E+01  1.00800000E+00
  1.00800000E+00  0.00000000E+00  1.60000000E+01  1.00800000E+00  1.00800000E+00
  0.00000000E+00  1.60000000E+01  1.00800000E+00  1.00800000E+00  0.00000000E+00
  1.60000000E+01  1.00800000E+00  1.00800000E+00  0.00000000E+00  1.60000000E+01
  1.00800000E+00  1.00800000E+00  0.00000000E+00  1.60000000E+01  1.00800000E+00
  1.00800000E+00  0.00000000E+00  1.60000000E+01  1.00800000E+00  1.00800000E+00
  0.00000000E+00  1.60000000E+01  1.00800000E+00  1.00800000E+00  0.00000000E+00
  1.60000000E+01  1.00800000E+00  1.00800000E+00  0.00000000E+00  1.60000000E+01
  1.00800000E+00  1.00800000E+00  0.00000000E+00  1.60000000E+01  1.00800000E+00
  1.00800000E+00  0.00000000E+00  1.60000000E+01  1.00800000E+00  1.00800000E+00
  0.00000000E+00  1.60000000E+01  1.00800000E+00  1.00800000E+00  0.00000000E+00
  1.60000000E+01  1.00800000E+00  1.00800000E+00  0.00000000E+00  1.60000000E+01
  1.00800000E+00  1.00800000E+00  0.00000000E+00  1.60000000E+01  1.00800000E+00
  1.00800000E+00  0.00000000E+00  1.60000000E+01  1.00800000E+00  1.00800000E+00
  0.00000000E+00  1.60000000E+01  1.00800000E+00  1.00800000E+00  0.00000000E+00
  1.60000000E+01  1.00800000E+00  1.00800000E+00  0.00000000E+00  1.60000000E+01
  1.00800000E+00  1.00800000E+00  0.00000000E+00  1.60000000E+01  1.00800000E+00
  1.00800000E+00  0.00000000E+00  1.60000000E+01  1.00800000E+00  1.00800000E+00
  0.00000000E+00  1.60000000E+01  1.00800000E+00  1.00800000E+00  0.00000000E+00
  1.60000000E+01  1.00800000E+00  1.00800000E+00  0.00000000E+00  1.60000000E+01
  1.00800000E+00  1.00800000E+00  0.00000000E+00  1.60000000E+01  1.00800000E+00
  1.00800000E+00  0.00000000E+00  1.60000000E+01  1.00800000E+00  1.00800000E+00
  0.00000000E+00  1.60000000E+01  1.00800000E+00  1.00800000E+00  0.00000000E+00
  1.60000000E+01  1.00800000E+00  1.00800000E+00  0.00000000E+00  1.60000000E+01
  1.00800000E+00  1.00800000E+00  0.00000000E+00  1.60000000E+01  1.00800000E+00
  1.00800000E+00  0.00000000E+00  1.60000000E+01  1.00800000E+00  1.00800000E+00
  0.00000000E+00  1.60000000E+01  1.00800000E+00  1.00800000E+00  0.00000000E+00
  1.60000000E+01  1.00800000E+00  1.00800000E+00  0.00000000E+00  1.60000000E+01
  1.00800000E+00  1.00800000E+00  0.00000000E+00  1.60000000E+01  1.00800000E+00
  1.00800000E+00  0.00000000E+00  1.60000000E+01  1.00800000E+00  1.00800000E+00
  0.00000000E+00  1.60000000E+01  1.00800000E+00  1.00800000E+00  0.00000000E+00
  1.60000000E+01  1.00800000E+00  1.00800000E+00  0.00000000E+00  1.60000000E+01
  1.00800000E+00  1.00800000E+00  0.00000000E+00  1.60000000E+01  1.00800000E+00
  1.00800000E+00  0.00000000E+00  1.60000000E+01  1.00800000E+00  1.00800000E+00
  0.00000000E+00  1.60000000E+01  1.00800000E+00  1.00800000E+00  0.00000000E+00
  1.60000000E+01  1.00800000E+00  1.00800000E+00  0.00000000E+00  1.60000000E+01
  1.00800000E+00  1.00800000E+00  0.00000000E+00  1.60000000E+01  1.00800000E+00
  1.00800000E+00  0.00000000E+00  1.60000000E+01  1.00800000E+00  1.00800000E+00
  0.00000000E+00  1.60000000E+01  1.00800000E+00  1.00800000E+00  0.00000000E+00
  1.60000000E+01  1.00800000E+00  1.00800000E+00  0.00000000E+00  1.60000000E+01
  1.00800000E+00  1.00800000E+00  0.00000000E+00  1.60000000E+01  1.00800000E+00
  1.00800000E+00  0.00000000E+00  1.60000000E+01  1.00800000E+00  1.00800000E+00
  0.00000000E+00  1.60000000E+01  1.00800000E+00  1.00800000E+00  0.00000000E+00
  1.60000000E+01  1.00800000E+00  1.00800000E+00  0.00000000E+00  1.60000000E+01
  1.00800000E+00  1.00800000E+00  0.00000000E+00  1.60000000E+01  1.00800000E+00
  1.00800000E+00  0.00000000E+00  1.60000000E+01  1.00800000E+00  1.00800000E+00
  0.00000000E+00  1.60000000E+01  1.00800000E+00  1.00800000E+00  0.00000000E+00
  1.60000000E+01  1.00800000E+00  1.00800000E+00  0.00000000E+00  1.60000000E+01
  1.00800000E+00  1.00800000E+00  0.00000000E+00  1.60000000E+01  1.00800000E+00
  1.00800000E+00  0.00000000E+00  1.60000000E+01  1.00800000E+00  1.00800000E+00
  0.00000000E+00  1.60000000E+01  1.00800000E+00  1.00800000E+00  0.00000000E+00
  1.60000000E+01  1.00800000E+00  1.00800000E+00  0.00000000E+00  1.60000000E+01
  1.00800000E+00  1.00800000E+00  0.00000000E+00  1.60000000E+01  1.00800000E+00
  1.00800000E+00  0.00000000E+00  1.60000000E+01  1.00800000E+00  1.00800000E+00
  0.00000000E+00  1.60000000E+01  1.00800000E+00  1.00800000E+00  0.00000000E+00
  1.60000000E+01  1.00800000E+00  1.00800000E+00  0.00000000E+00  1.60000000E+01
  1.00800000E+00  1.00800000E+00  0.00000000E+00  1.60000000E+01  1.00800000E+00
  1.00800000E+00  0.00000000E+00  1.60000000E+01  1.00800000E+00  1.00800000E+00
  0.00000000E+00  1.60000000E+01  1.00800000E+00  1.00800000E+00  0.00000000E+00
  1.60000000E+01  1.00800000E+00  1.00800000E+00  0.00000000E+00  1.60000000E+01
  1.00800000E+00  1.00800000E+00  0.00000000E+00  1.60000000E+01  1.00800000E+00
  1.00800000E+00  0.00000000E+00  1.60000000E+01  1.00800000E+00  1.00800000E+00
  0.00000000E+00  1.60000000E+01  1.00800000E+00  1.00800000E+00  0.00000000E+00
  1.60000000E+01  1.00800000E+00  1.00800000E+00  0.00000000E+00  1.60000000E+01
  1.00800000E+00  1.00800000E+00  0.00000000E+00  1.60000000E+01  1.00800000E+00
  1.00800000E+00  0.00000000E+00  1.60000000E+01  1.00800000E+00  1.00800000E+00
  0.00000000E+00  1.60000000E+01  1.00800000E+00  1.00800000E+00  0.00000000E+00
  1.60000000E+01  1.00800000E+00  1.00800000E+00  0.00000000E+00  1.60000000E+01
  1.00800000E+00  1.00800000E+00  0.00000000E+00  1.60000000E+01  1.00800000E+00
  1.00800000E+00  0.00000000E+00  1.60000000E+01  1.00800000E+00  1.00800000E+00
  0.00000000E+00  1.60000000E+01  1.00800000E+00  1.00800000E+00  0.00000000E+00
  1.60000000E+01  1.00800000E+00  1.00800000E+00  0.00000000E+00  1.60000000E+01
  1.00800000E+00  1.00800000E+00  0.00000000E+00  1.60000000E+01  1.00800000E+00
  1.00800000E+00  0.00000000E+00  1.60000000E+01  1.00800000E+00  1.00800000E+00
  0.00000000E+00  1.60000000E+01  1.00800000E+00  1.00800000E+00  0.00000000E+00
  1.60000000E+01  1.00800000E+00  1.00800000E+00  0.00000000E+00  1.60000000E+01
  1.00800000E+00  1.00800000E+00  0.00000000E+00  1.60000000E+01  1.00800000E+00
  1.00800000E+00  0.00000000E+00  1.60000000E+01  1.00800000E+00  1.00800000E+00
  0.00000000E+00  1.60000000E+01  1.00800000E+00  1.00800000E+00  0.00000000E+00
  1.60000000E+01  1.00800000E+00  1.00800000E+00  0.00000000E+00  1.60000000E+01
  1.00800000E+00  1.00800000E+00  0.00000000E+00  1.60000000E+01  1.00800000E+00
  1.00800000E+00  0.00000000E+00  1.60000000E+01  1.00800000E+00  1.00800000E+00
  0.00000000E+00  1.60000000E+01  1.00800000E+00  1.00800000E+00  0.00000000E+00
  1.60000000E+01  1.00800000E+00  1.00800000E+00  0.00000000E+00  1.60000000E+01
  1.00800000E+00  1.00800000E+00  0.00000000E+00  1.60000000E+01  1.00800000E+00
  1.00800000E+00  0.00000000E+00  1.60000000E+01  1.00800000E+00  1.00800000E+00
  0.00000000E+00  1.60000000E+01  1.00800000E+00  1.00800000E+00  0.00000000E+00
  1.60000000E+01  1.00800000E+00  1.00800000E+00  0.00000000E+00  1.60000000E+01
  1.00800000E+00  1.00800000E+00  0.00000000E+00  1.60000000E+01  1.00800000E+00
  1.00800000E+00  0.00000000E+00  1.60000000E+01  1.00800000E+00  1.00800000E+00
  0.00000000E+00  1.60000000E+01  1.00800000E+00  1.00800000E+00  0.00000000E+00
  1.60000000E+01  1.00800000E+00  1.00800000E+00  0.00000000E+00  1.60000000E+01
  1.00800000E+00  1.00800000E+00  0.00000000E+00  1.60000000E+01  1.00800000E+00
  1.00800000E+00  0.00000000E+00  1.60000000E+01  1.00800000E+00  1.00800000E+00
  0.00000000E+00  1.60000000E+01  1.00800000E+00  1.00800000E+00  0.00000000E+00
  1.60000000E+01  1.00800000E+00  1.00800000E+00  0.00000000E+00  1.60000000E+01
  1.00800000E+00  1.00800000E+00  0.00000000E+00  1.60000000E+01  1.00800000E+00
  1.00800000E+00  0.00000000E+00  1.60000000E+01  1.00800000E+00  1.00800000E+00
  0.00000000E+00  1.60000000E+01  1.00800000E+00  1.00800000E+00  0.00000000E+00
  1.60000000E+01  1.00800000E+00  1.00800000E+00  0.00000000E+00  1.60000000E+01
  1.00800000E+00  1.00800000E+00  0.00000000E+00  1.60000000E+01  1.00800000E+00
  1.00800000E+00  0.00000000E+00  1.60000000E+01  1.00800000E+00  1.00800000E+00
  0.00000000E+00  1.60000000E+01  1.00800000E+00  1.00800000E+00  0.00000000E+00
  1.60000000E+01  1.00800000E+00  1.00800000E+00  0.00000000E+00  1.60000000E+01
  1.00800000E+00  1.00800000E+00  0.00000000E+00  1.60000000E+01  1.00800000E+00
  1.00800000E+00  0.00000000E+00  1.60000000E+01  1.00800000E+00  1.00800000E+00
  0.00000000E+00  1.60000000E+01  1.00800000E+00  1.00800000E+00  0.00000000E+00
  1.60000000E+01  1.00800000E+00  1.00800000E+00  0.00000000E+00  1.60000000E+01
  1.00800000E+00  1.00800000E+00  0.00000000E+00  1.60000000E+01  1.00800000E+00
  1.00800000E+00  0.00000000E+00  1.60000000E+01  1.00800000E+00  1.00800000E+00
  0.00000000E+00  1.60000000E+01  1.00800000E+00  1.00800000E+00  0.00000000E+00
  1.60000000E+01  1.00800000E+00  1.00800000E+00  0.00000000E+00  1.60000000E+01
  1.00800000E+00  1.00800000E+00  0.00000000E+00  1.60000000E+01  1.00800000E+00
  1.00800000E+00  0.00000000E+00  1.60000000E+01  1.00800000E+00  1.00800000E+00
  0.00000000E+00  1.60000000E+01  1.00800000E+00  1.00800000E+00  0.00000000E+00
  1.60000000E+01  1.00800000E+00  1.00800000E+00  0.00000000E+00  1.60000000E+01
  1.00800000E+00  1.00800000E+00  0.00000000E+00  1.60000000E+01  1.00800000E+00
  1.00800000E+00  0.00000000E+00  1.60000000E+01  1.00800000E+00  1.00800000E+00
  0.00000000E+00  1.60000000E+01  1.00800000E+00  1.00800000E+00  0.00000000E+00
  1.60000000E+01  1.00800000E+00  1.00800000E+00  0.00000000E+00  1.60000000E+01
  1.00800000E+00  1.00800000E+00  0.00000000E+00  1.60000000E+01  1.00800000E+00
  1.00800000E+00  0.00000000E+00  1.60000000E+01  1.00800000E+00  1.00800000E+00
  0.00000000E+00  1.60000000E+01  1.00800000E+00  1.00800000E+00  0.00000000E+00
  1.60000000E+01  1.00800000E+00  1.00800000E+00  0.00000000E+00  1.60000000E+01
  1.00800000E+00  1.00800000E+00  0.00000000E+00  1.60000000E+01  1.00800000E+00
  1.00800000E+00  0.00000000E+00  1.60000000E+01  1.00800000E+00  1.00800000E+00
  0.00000000E+00  1.60000000E+01  1.00800000E+00  1.00800000E+00  0.00000000E+00
  1.60000000E+01  1.00800000E+00  1.00800000E+00  0.00000000E+00  1.60000000E+01
  1.00800000E+00  1.00800000E+00  0.00000000E+00  1.60000000E+01  1.00800000E+00
  1.00800000E+00  0.00000000E+00  1.60000000E+01  1.00800000E+00  1.00800000E+00
  0.00000000E+00  1.60000000E+01  1.00800000E+00  1.00800000E+00  0.00000000E+00
  1.60000000E+01  1.00800000E+00  1.00800000E+00  0.00000000E+00  1.60000000E+01
  1.00800000E+00  1.00800000E+00  0.00000000E+00  1.60000000E+01  1.00800000E+00
  1.00800000E+00  0.00000000E+00  1.60000000E+01  1.00800000E+00  1.00800000E+00
  0.00000000E+00  1.60000000E+01  1.00800000E+00  1.00800000E+00  0.00000000E+00
  1.60000000E+01  1.00800000E+00  1.00800000E+00  0.00000000E+00  1.60000000E+01
  1.00800000E+00  1.00800000E+00  0.00000000E+00  1.60000000E+01  1.00800000E+00
  1.00800000E+00  0.00000000E+00  1.60000000E+01  1.00800000E+00  1.00800000E+00
  0.00000000E+00  1.60000000E+01  1.00800000E+00  1.00800000E+00  0.00000000E+00
  1.60000000E+01  1.00800000E+00  1.00800000E+00  0.00000000E+00  1.60000000E+01
  1.00800000E+00  1.00800000E+00  0.00000000E+00  1.60000000E+01  1.00800000E+00
  1.00800000E+00  0.00000000E+00  1.60000000E+01  1.00800000E+00  1.00800000E+00
  0.00000000E+00  1.60000000E+01  1.00800000E+00  1.00800000E+00  0.00000000E+00
  1.60000000E+01  1.00800000E+00  1.00800000E+00  0.00000000E+00  1.60000000E+01
  1.00800000E+00  1.00800000E+00  0.00000000E+00  1.60000000E+01  1.00800000E+00
  1.00800000E+00  0.00000000E+00  1.60000000E+01  1.00800000E+00  1.00800000E+00
  0.00000000E+00  1.60000000E+01  1.00800000E+00  1.00800000E+00  0.00000000E+00
  1.60000000E+01  1.00800000E+00  1.00800000E+00  0.00000000E+00  1.60000000E+01
  1.00800000E+00  1.00800000E+00  0.00000000E+00  1.60000000E+01  1.00800000E+00
  1.00800000E+00  0.00000000E+00  1.60000000E+01  1.00800000E+00  1.00800000E+00
  0.00000000E+00  1.60000000E+01  1.00800000E+00  1.00800000E+00  0.00000000E+00
  1.60000000E+01  1.00800000E+00  1.00800000E+00  0.00000000E+00  1.60000000E+01
  1.00800000E+00  1.00800000E+00  0.00000000E+00  1.60000000E+01  1.00800000E+00
  1.00800000E+00  0.00000000E+00  1.60000000E+01  1.00800000E+00  1.00800000E+00
  0.00000000E+00  1.60000000E+01  1.00800000E+00  1.00800000E+00  0.00000000E+00
  1.60000000E+01  1.00800000E+00  1.00800000E+00  0.00000000E+00  1.60000000E+01
  1.00800000E+00  1.00800000E+00  0.00000000E+00  1.60000000E+01  1.00800000E+00
  1.00800000E+00  0.00000000E+00  1.60000000E+01  1.00800000E+00  1.00800000E+00
  0.00000000E+00  1.60000000E+01  1.00800000E+00  1.00800000E+00  0.00000000E+00
  1.60000000E+01  1.00800000E+00  1.00800000E+00  0.00000000E+00  1.60000000E+01
  1.00800000E+00  1.00800000E+00  0.00000000E+00  1.60000000E+01  1.00800000E+00
  1.00800000E+00  0.00000000E+00  1.60000000E+01  1.00800000E+00  1.00800000E+00
  0.00000000E+00  1.60000000E+01  1.00800000E+00  1.00800000E+00  0.00000000E+00
  1.60000000E+01  1.00800000E+00  1.00800000E+00  0.00000000E+00  1.60000000E+01
  1.00800000E+00  1.00800000E+00  0.00000000E+00  1.60000000E+01  1.00800000E+00
  1.00800000E+00  0.00000000E+00  1.60000000E+01  1.00800000E+00  1.00800000E+00
  0.00000000E+00  1.60000000E+01  1.00800000E+00  1.00800000E+00  0.00000000E+00
  1.60000000E+01  1.00800000E+00  1.00800000E+00  0.00000000E+00  1.60000000E+01
  1.00800000E+00  1.00800000E+00  0.00000000E+00  1.60000000E+01  1.00800000E+00
  1.00800000E+00  0.00000000E+00  1.60000000E+01  1.00800000E+00  1.00800000E+00
  0.00000000E+00  1.60000000E+01  1.00800000E+00  1.00800000E+00  0.00000000E+00
  1.60000000E+01  1.00800000E+00  1.00800000E+00  0.00000000E+00  1.60000000E+01
  1.00800000E+00  1.00800000E+00  0.00000000E+00  1.60000000E+01  1.00800000E+00
  1.00800000E+00  0.00000000E+00  1.60000000E+01  1.00800000E+00  1.00800000E+00
  0.00000000E+00  1.60000000E+01  1.00800000E+00  1.00800000E+00  0.00000000E+00
  1.60000000E+01  1.00800000E+00  1.00800000E+00  0.00000000E+00  1.60000000E+01
  1.00800000E+00  1.00800000E+00  0.00000000E+00  1.60000000E+01  1.00800000E+00
  1.00800000E+00  0.00000000E+00  1.60000000E+01  1.00800000E+00  1.00800000E+00
  0.00000000E+00  1.60000000E+01  1.00800000E+00  1.00800000E+00  0.00000000E+00
  1.60000000E+01  1.00800000E+00  1.00800000E+00  0.00000000E+00  1.60000000E+01
  1.00800000E+00  1.00800000E+00  0.00000000E+00  1.60000000E+01  1.00800000E+00
  1.00800000E+00  0.00000000E+00  1.60000000E+01  1.00800000E+00  1.00800000E+00
  0.00000000E+00  1.60000000E+01  1.00800000E+00  1.00800000E+00  0.00000000E+00
  1.60000000E+01  1.00800000E+00  1.00800000E+00  0.00000000E+00  1.60000000E+01
  1.00800000E+00  1.00800000E+00  0.00000000E+00  1.60000000E+01  1.00800000E+00
  1.00800000E+00  0.00000000E+00  1.60000000E+01  1.00800000E+00  1.00800000E+00
  0.00000000E+00  1.60000000E+01  1.00800000E+00  1.00800000E+00  0.00000000E+00
  1.60000000E+01  1.00800000E+00  1.00800000E+00  0.00000000E+00  1.60000000E+01
  1.00800000E+00  1.00800000E+00  0.00000000E+00  1.60000000E+01  1.00800000E+00
  1.00800000E+00  0.00000000E+00  1.60000000E+01  1.00800000E+00  1.00800000E+00
  0.00000000E+00  1.60000000E+01  1.00800000E+00  1.00800000E+00  0.00000000E+00
  1.60000000E+01  1.00800000E+00  1.00800000E+00  0.00000000E+00  1.60000000E+01
  1.00800000E+00  1.00800000E+00  0.00000000E+00  1.60000000E+01  1.00800000E+00
  1.00800000E+00  0.00000000E+00  1.60000000E+01  1.00800000E+00  1.00800000E+00
  0.00000000E+00  1.60000000E+01  1.00800000E+00  1.00800000E+00  0.00000000E+00
  1.60000000E+01  1.00800000E+00  1.00800000E+00  0.00000000E+00  1.60000000E+01
  1.00800000E+00  1.00800000E+00  0.00000000E+00  1.60000000E+01  1.00800000E+00
  1.00800000E+00  0.00000000E+00  1.60000000E+01  1.00800000E+00  1.00800000E+00
  0.00000000E+00  1.60000000E+01  1.00800000E+00  1.00800000E+00  0.00000000E+00
  1.60000000E+01  1.00800000E+00  1.00800000E+00  0.00000000E+00  1.60000000E+01
  1.00800000E+00  1.00800000E+00  0.00000000E+00  1.60000000E+01  1.00800000E+00
  1.00800000E+00  0.00000000E+00  1.60000000E+01  1.00800000E+00  1.00800000E+00
  0.00000000E+00  1.60000000E+01  1.00800000E+00  1.00800000E+00  0.00000000E+00
  1.60000000E+01  1.00800000E+00  1.00800000E+00  0.00000000E+00  1.60000000E+01
  1.00800000E+00  1.00800000E+00  0.00000000E+00  1.60000000E+01  1.00800000E+00
  1.00800000E+00  0.00000000E+00  1.60000000E+01  1.00800000E+00  1.00800000E+00
  0.00000000E+00  1.60000000E+01  1.00800000E+00  1.00800000E+00  0.00000000E+00
  1.60000000E+01  1.00800000E+00  1.00800000E+00  0.00000000E+00  1.60000000E+01
  1.00800000E+00  1.00800000E+00  0.00000000E+00  1.60000000E+01  1.00800000E+00
  1.00800000E+00  0.00000000E+00  1.60000000E+01  1.00800000E+00  1.00800000E+00
  0.00000000E+00  1.60000000E+01  1.00800000E+00  1.00800000E+00  0.00000000E+00
  1.60000000E+01  1.00800000E+00  1.00800000E+00  0.00000000E+00  1.60000000E+01
  1.00800000E+00  1.00800000E+00  0.00000000E+00  1.60000000E+01  1.00800000E+00
  1.00800000E+00  0.00000000E+00  1.60000000E+01  1.00800000E+00  1.00800000E+00
  0.00000000E+00  1.60000000E+01  1.00800000E+00  1.00800000E+00  0.00000000E+00
  1.60000000E+01  1.00800000E+00  1.00800000E+00  0.00000000E+00  1.60000000E+01
  1.00800000E+00  1.00800000E+00  0.00000000E+00  1.60000000E+01  1.00800000E+00
  1.00800000E+00  0.00000000E+00  1.60000000E+01  1.00800000E+00  1.00800000E+00
  0.00000000E+00  1.60000000E+01  1.00800000E+00  1.00800000E+00  0.00000000E+00
  1.60000000E+01  1.00800000E+00  1.00800000E+00  0.00000000E+00  1.60000000E+01
  1.00800000E+00  1.00800000E+00  0.00000000E+00  1.60000000E+01  1.00800000E+00
  1.00800000E+00  0.00000000E+00  1.60000000E+01  1.00800000E+00  1.00800000E+00
  0.00000000E+00  1.60000000E+01  1.00800000E+00  1.00800000E+00  0.00000000E+00
  1.60000000E+01  1.00800000E+00  1.00800000E+00  0.00000000E+00  1.60000000E+01
  1.00800000E+00  1.00800000E+00  0.00000000E+00  1.60000000E+01  1.00800000E+00
  1.00800000E+00  0.00000000E+00  1.60000000E+01  1.00800000E+00  1.00800000E+00
  0.00000000E+00  1.60000000E+01  1.00800000E+00  1.00800000E+00  0.00000000E+00
  1.60000000E+01  1.00800000E+00  1.00800000E+00  0.00000000E+00  1.60000000E+01
  1.00800000E+00  1.00800000E+00  0.00000000E+00  1.60000000E+01  1.00800000E+00
  1.00800000E+00  0.00000000E+00  1.60000000E+01  1.00800000E+00  1.00800000E+00
  0.00000000E+00  1.60000000E+01  1.00800000E+00  1.00800000E+00  0.00000000E+00
  1.60000000E+01  1.00800000E+00  1.00800000E+00  0.00000000E+00  1.60000000E+01
  1.00800000E+00  1.00800000E+00  0.00000000E+00  1.60000000E+01  1.00800000E+00
  1.00800000E+00  0.00000000E+00  1.60000000E+01  1.00800000E+00  1.00800000E+00
  0.00000000E+00  1.60000000E+01  1.00800000E+00  1.00800000E+00  0.00000000E+00
  1.60000000E+01  1.00800000E+00  1.00800000E+00  0.00000000E+00  1.60000000E+01
  1.00800000E+00  1.00800000E+00  0.00000000E+00  1.60000000E+01  1.00800000E+00
  1.00800000E+00  0.00000000E+00  1.60000000E+01  1.00800000E+00  1.00800000E+00
  0.00000000E+00  1.60000000E+01  1.00800000E+00  1.00800000E+00  0.00000000E+00
  1.60000000E+01  1.00800000E+00  1.00800000E+00  0.00000000E+00  1.60000000E+01
  1.00800000E+00  1.00800000E+00  0.00000000E+00  1.60000000E+01  1.00800000E+00
  1.00800000E+00  0.00000000E+00  1.60000000E+01  1.00800000E+00  1.00800000E+00
  0.00000000E+00  1.60000000E+01  1.00800000E+00  1.00800000E+00  0.00000000E+00
  1.60000000E+01  1.00800000E+00  1.00800000E+00  0.00000000E+00  1.60000000E+01
  1.00800000E+00  1.00800000E+00  0.00000000E+00  1.60000000E+01  1.00800000E+00
  1.00800000E+00  0.00000000E+00  1.60000000E+01  1.00800000E+00  1.00800000E+00
  0.00000000E+00  1.60000000E+01  1.00800000E+00  1.00800000E+00  0.00000000E+00
  1.60000000E+01  1.00800000E+00  1.00800000E+00  0.00000000E+00  1.60000000E+01
  1.00800000E+00  1.00800000E+00  0.00000000E+00  1.60000000E+01  1.00800000E+00
  1.00800000E+00  0.00000000E+00  1.60000000E+01  1.00800000E+00  1.00800000E+00
  0.00000000E+00  1.60000000E+01  1.00800000E+00  1.00800000E+00  0.00000000E+00
  1.60000000E+01  1.00800000E+00  1.00800000E+00  0.00000000E+00  1.60000000E+01
  1.00800000E+00  1.00800000E+00  0.00000000E+00  1.60000000E+01  1.00800000E+00
  1.00800000E+00  0.00000000E+00  1.60000000E+01  1.00800000E+00  1.00800000E+00
  0.00000000E+00  1.60000000E+01  1.00800000E+00  1.00800000E+00  0.00000000E+00
  1.60000000E+01  1.00800000E+00  1.00800000E+00  0.00000000E+00  1.60000000E+01
  1.00800000E+00  1.00800000E+00  0.00000000E+00  1.60000000E+01  1.00800000E+00
  1.00800000E+00  0.00000000E+00  1.60000000E+01  1.00800000E+00  1.00800000E+00
  0.00000000E+00  1.60000000E+01  1.00800000E+00  1.00800000E+00  0.00000000E+00
  1.60000000E+01  1.00800000E+00  1.00800000E+00  0.00000000E+00  1.60000000E+01
  1.00800000E+00  1.00800000E+00  0.00000000E+00  1.60000000E+01  1.00800000E+00
  1.00800000E+00  0.00000000E+00  1.60000000E+01  1.00800000E+00  1.00800000E+00
  0.00000000E+00  1.60000000E+01  1.00800000E+00  1.00800000E+00  0.00000000E+00
  1.60000000E+01  1.00800000E+00  1.00800000E+00  0.00000000E+00  1.60000000E+01
  1.00800000E+00  1.00800000E+00  0.00000000E+00  1.60000000E+01  1.00800000E+00
  1.00800000E+00  0.00000000E+00  1.60000000E+01  1.00800000E+00  1.00800000E+00
  0.00000000E+00  1.60000000E+01  1.00800000E+00  1.00800000E+00  0.00000000E+00
  1.60000000E+01  1.00800000E+00  1.00800000E+00  0.00000000E+00  1.60000000E+01
  1.00800000E+00  1.00800000E+00  0.00000000E+00  1.60000000E+01  1.00800000E+00
  1.00800000E+00  0.00000000E+00  1.60000000E+01  1.00800000E+00  1.00800000E+00
  0.00000000E+00  1.60000000E+01  1.00800000E+00  1.00800000E+00  0.00000000E+00
  1.60000000E+01  1.00800000E+00  1.00800000E+00  0.00000000E+00  1.60000000E+01
  1.00800000E+00  1.00800000E+00  0.00000000E+00  1.60000000E+01  1.00800000E+00
  1.00800000E+00  0.00000000E+00  1.60000000E+01  1.00800000E+00  1.00800000E+00
  0.00000000E+00  1.60000000E+01  1.00800000E+00  1.00800000E+00  0.00000000E+00
  1.60000000E+01  1.00800000E+00  1.00800000E+00  0.00000000E+00  1.60000000E+01
  1.00800000E+00  1.00800000E+00  0.00000000E+00  1.60000000E+01  1.00800000E+00
  1.00800000E+00  0.00000000E+00  1.60000000E+01  1.00800000E+00  1.00800000E+00
  0.00000000E+00  1.60000000E+01  1.00800000E+00  1.00800000E+00  0.00000000E+00
  1.60000000E+01  1.00800000E+00  1.00800000E+00  0.00000000E+00  1.60000000E+01
  1.00800000E+00  1.00800000E+00  0.00000000E+00  1.60000000E+01  1.00800000E+00
  1.00800000E+00  0.00000000E+00  1.60000000E+01  1.00800000E+00  1.00800000E+00
  0.00000000E+00  1.60000000E+01  1.00800000E+00  1.00800000E+00  0.00000000E+00
  1.60000000E+01  1.00800000E+00  1.00800000E+00  0.00000000E+00  1.60000000E+01
  1.00800000E+00  1.00800000E+00  0.00000000E+00  1.60000000E+01  1.00800000E+00
  1.00800000E+00  0.00000000E+00  1.60000000E+01  1.00800000E+00  1.00800000E+00
  0.00000000E+00  1.60000000E+01  1.00800000E+00  1.00800000E+00  0.00000000E+00
  1.60000000E+01  1.00800000E+00  1.00800000E+00  0.00000000E+00  1.60000000E+01
  1.00800000E+00  1.00800000E+00  0.00000000E+00  1.60000000E+01  1.00800000E+00
  1.00800000E+00  0.00000000E+00  1.60000000E+01  1.00800000E+00  1.00800000E+00
  0.00000000E+00  1.60000000E+01  1.00800000E+00  1.00800000E+00  0.00000000E+00
  1.60000000E+01  1.00800000E+00  1.00800000E+00  0.00000000E+00  1.60000000E+01
  1.00800000E+00  1.00800000E+00  0.00000000E+00  1.60000000E+01  1.00800000E+00
  1.00800000E+00  0.00000000E+00  1.60000000E+01  1.00800000E+00  1.00800000E+00
  0.00000000E+00  1.60000000E+01  1.00800000E+00  1.00800000E+00  0.00000000E+00
  1.60000000E+01  1.00800000E+00  1.00800000E+00  0.00000000E+00  1.60000000E+01
  1.00800000E+00  1.00800000E+00  0.00000000E+00  1.60000000E+01  1.00800000E+00
  1.00800000E+00  0.00000000E+00  1.60000000E+01  1.00800000E+00  1.00800000E+00
  0.00000000E+00  1.60000000E+01  1.00800000E+00  1.00800000E+00  0.00000000E+00
  1.60000000E+01  1.00800000E+00  1.00800000E+00  0.00000000E+00  1.60000000E+01
  1.00800000E+00  1.00800000E+00  0.00000000E+00  1.60000000E+01  1.00800000E+00
  1.00800000E+00  0.00000000E+00  1.60000000E+01  1.00800000E+00  1.00800000E+00
  0.00000000E+00  1.60000000E+01  1.00800000E+00  1.00800000E+00  0.00000000E+00
  1.60000000E+01  1.00800000E+00  1.00800000E+00  0.00000000E+00  1.60000000E+01
  1.00800000E+00  1.00800000E+00  0.00000000E+00  1.60000000E+01  1.00800000E+00
  1.00800000E+00  0.00000000E+00  1.60000000E+01  1.00800000E+00  1.00800000E+00
  0.00000000E+00  1.60000000E+01  1.00800000E+00  1.00800000E+00  0.00000000E+00
  1.60000000E+01  1.00800000E+00  1.00800000E+00  0.00000000E+00  1.60000000E+01
  1.00800000E+00  1.00800000E+00  0.00000000E+00  1.60000000E+01  1.00800000E+00
  1.00800000E+00  0.00000000E+00  1.60000000E+01  1.00800000E+00  1.00800000E+00
  0.00000000E+00  1.60000000E+01  1.00800000E+00  1.00800000E+00  0.00000000E+00
  1.60000000E+01  1.00800000E+00  1.00800000E+00  0.00000000E+00  1.60000000E+01
  1.00800000E+00  1.00800000E+00  0.00000000E+00  1.60000000E+01  1.00800000E+00
  1.00800000E+00  0.00000000E+00  1.60000000E+01  1.00800000E+00  1.00800000E+00
  0.00000000E+00  1.60000000E+01  1.00800000E+00  1.00800000E+00  0.00000000E+00
  1.60000000E+01  1.00800000E+00  1.00800000E+00  0.00000000E+00  1.60000000E+01
  1.00800000E+00  1.00800000E+00  0.00000000E+00  1.60000000E+01  1.00800000E+00
  1.00800000E+00  0.00000000E+00  1.60000000E+01  1.00800000E+00  1.00800000E+00
  0.00000000E+00  1.60000000E+01  1.00800000E+00  1.00800000E+00  0.00000000E+00
  1.60000000E+01  1.00800000E+00  1.00800000E+00  0.00000000E+00  1.60000000E+01
  1.00800000E+00  1.00800000E+00  0.00000000E+00  1.60000000E+01  1.00800000E+00
  1.00800000E+00  0.00000000E+00  1.60000000E+01  1.00800000E+00  1.00800000E+00
  0.00000000E+00  1.60000000E+01  1.00800000E+00  1.00800000E+00  0.00000000E+00
  1.60000000E+01  1.00800000E+00  1.00800000E+00  0.00000000E+00  1.60000000E+01
  1.00800000E+00  1.00800000E+00  0.00000000E+00  1.60000000E+01  1.00800000E+00
  1.00800000E+00  0.00000000E+00  1.60000000E+01  1.00800000E+00  1.00800000E+00
  0.00000000E+00  1.60000000E+01  1.00800000E+00  1.00800000E+00  0.00000000E+00
  1.60000000E+01  1.00800000E+00  1.00800000E+00  0.00000000E+00  1.60000000E+01
  1.00800000E+00  1.00800000E+00  0.00000000E+00  1.60000000E+01  1.00800000E+00
  1.00800000E+00  0.00000000E+00  1.60000000E+01  1.00800000E+00  1.00800000E+00
  0.00000000E+00  1.60000000E+01  1.00800000E+00  1.00800000E+00  0.00000000E+00
  1.60000000E+01  1.00800000E+00  1.00800000E+00  0.00000000E+00  1.60000000E+01
  1.00800000E+00  1.00800000E+00  0.00000000E+00  1.60000000E+01  1.00800000E+00
  1.00800000E+00  0.00000000E+00  1.60000000E+01  1.00800000E+00  1.00800000E+00
  0.00000000E+00  1.60000000E+01  1.00800000E+00  1.00800000E+00  0.00000000E+00
  1.60000000E+01  1.00800000E+00  1.00800000E+00  0.00000000E+00  1.60000000E+01
  1.00800000E+00  1.00800000E+00  0.00000000E+00  1.60000000E+01  1.00800000E+00
  1.00800000E+00  0.00000000E+00  1.60000000E+01  1.00800000E+00  1.00800000E+00
  0.00000000E+00  1.60000000E+01  1.00800000E+00  1.00800000E+00  0.00000000E+00
  1.60000000E+01  1.00800000E+00  1.00800000E+00  0.00000000E+00  1.60000000E+01
  1.00800000E+00  1.00800000E+00  0.00000000E+00  1.60000000E+01  1.00800000E+00
  1.00800000E+00  0.00000000E+00  1.60000000E+01  1.00800000E+00  1.00800000E+00
  0.00000000E+00  1.60000000E+01  1.00800000E+00  1.00800000E+00  0.00000000E+00
  1.60000000E+01  1.00800000E+00  1.00800000E+00  0.00000000E+00  1.60000000E+01
  1.00800000E+00  1.00800000E+00  0.00000000E+00  1.60000000E+01  1.00800000E+00
  1.00800000E+00  0.00000000E+00  1.60000000E+01  1.00800000E+00  1.00800000E+00
  0.00000000E+00  1.60000000E+01  1.00800000E+00  1.00800000E+00  0.00000000E+00
  1.60000000E+01  1.00800000E+00  1.00800000E+00  0.00000000E+00  1.60000000E+01
  1.00800000E+00  1.00800000E+00  0.00000000E+00  1.60000000E+01  1.00800000E+00
  1.00800000E+00  0.00000000E+00  1.60000000E+01  1.00800000E+00  1.00800000E+00
  0.00000000E+00  1.60000000E+01  1.00800000E+00  1.00800000E+00  0.00000000E+00
  1.60000000E+01  1.00800000E+00  1.00800000E+00  0.00000000E+00  1.60000000E+01
  1.00800000E+00  1.00800000E+00  0.00000000E+00  1.60000000E+01  1.00800000E+00
  1.00800000E+00  0.00000000E+00  1.60000000E+01  1.00800000E+00  1.00800000E+00
  0.00000000E+00  1.60000000E+01  1.00800000E+00  1.00800000E+00  0.00000000E+00
  1.60000000E+01  1.00800000E+00  1.00800000E+00  0.00000000E+00  1.60000000E+01
  1.00800000E+00  1.00800000E+00  0.00000000E+00  1.60000000E+01  1.00800000E+00
  1.00800000E+00  0.00000000E+00  1.60000000E+01  1.00800000E+00  1.00800000E+00
  0.00000000E+00  1.60000000E+01  1.00800000E+00  1.00800000E+00  0.00000000E+00
  1.60000000E+01  1.00800000E+00  1.00800000E+00  0.00000000E+00  1.60000000E+01
  1.00800000E+00  1.00800000E+00  0.00000000E+00  1.60000000E+01  1.00800000E+00
  1.00800000E+00  0.00000000E+00  1.60000000E+01  1.00800000E+00  1.00800000E+00
  0.00000000E+00  1.60000000E+01  1.00800000E+00  1.00800000E+00  0.00000000E+00
  1.60000000E+01  1.00800000E+00  1.00800000E+00  0.00000000E+00  1.60000000E+01
  1.00800000E+00  1.00800000E+00  0.00000000E+00  1.60000000E+01  1.00800000E+00
  1.00800000E+00  0.00000000E+00  1.60000000E+01  1.00800000E+00  1.00800000E+00
  0.00000000E+00  1.60000000E+01  1.00800000E+00  1.00800000E+00  0.00000000E+00
  1.60000000E+01  1.00800000E+00  1.00800000E+00  0.00000000E+00  1.60000000E+01
  1.00800000E+00  1.00800000E+00  0.00000000E+00  1.60000000E+01  1.00800000E+00
  1.00800000E+00  0.00000000E+00  1.60000000E+01  1.00800000E+00  1.00800000E+00
  0.00000000E+00  1.60000000E+01  1.00800000E+00  1.00800000E+00  0.00000000E+00
  1.60000000E+01  1.00800000E+00  1.00800000E+00  0.00000000E+00  1.60000000E+01
  1.00800000E+00  1.00800000E+00  0.00000000E+00  1.60000000E+01  1.00800000E+00
  1.00800000E+00  0.00000000E+00  1.60000000E+01  1.00800000E+00  1.00800000E+00
  0.00000000E+00  1.60000000E+01  1.00800000E+00  1.00800000E+00  0.00000000E+00
  1.60000000E+01  1.00800000E+00  1.00800000E+00  0.00000000E+00  1.60000000E+01
  1.00800000E+00  1.00800000E+00  0.00000000E+00  1.60000000E+01  1.00800000E+00
  1.00800000E+00  0.00000000E+00  1.60000000E+01  1.00800000E+00  1.00800000E+00
  0.00000000E+00  1.60000000E+01  1.00800000E+00  1.00800000E+00  0.00000000E+00
  1.60000000E+01  1.00800000E+00  1.00800000E+00  0.00000000E+00  1.60000000E+01
  1.00800000E+00  1.00800000E+00  0.00000000E+00  1.60000000E+01  1.00800000E+00
  1.00800000E+00  0.00000000E+00  1.60000000E+01  1.00800000E+00  1.00800000E+00
  0.00000000E+00  1.60000000E+01  1.00800000E+00  1.00800000E+00  0.00000000E+00
  1.60000000E+01  1.00800000E+00  1.00800000E+00  0.00000000E+00  1.60000000E+01
  1.00800000E+00  1.00800000E+00  0.00000000E+00  1.60000000E+01  1.00800000E+00
  1.00800000E+00  0.00000000E+00  1.60000000E+01  1.00800000E+00  1.00800000E+00
  0.00000000E+00  1.60000000E+01  1.00800000E+00  1.00800000E+00  0.00000000E+00
  1.60000000E+01  1.00800000E+00  1.00800000E+00  0.00000000E+00  1.60000000E+01
  1.00800000E+00  1.00800000E+00  0.00000000E+00  1.60000000E+01  1.00800000E+00
  1.00800000E+00  0.00000000E+00  1.60000000E+01  1.00800000E+00  1.00800000E+00
  0.00000000E+00  1.60000000E+01  1.00800000E+00  1.00800000E+00  0.00000000E+00
  1.60000000E+01  1.00800000E+00  1.00800000E+00  0.00000000E+00  1.60000000E+01
  1.00800000E+00  1.00800000E+00  0.00000000E+00  1.60000000E+01  1.00800000E+00
  1.00800000E+00  0.00000000E+00  1.60000000E+01  1.00800000E+00  1.00800000E+00
  0.00000000E+00  1.60000000E+01  1.00800000E+00  1.00800000E+00  0.00000000E+00
  1.60000000E+01  1.00800000E+00  1.00800000E+00  0.00000000E+00  1.60000000E+01
  1.00800000E+00  1.00800000E+00  0.00000000E+00  1.60000000E+01  1.00800000E+00
  1.00800000E+00  0.00000000E+00  1.60000000E+01  1.00800000E+00  1.00800000E+00
  0.00000000E+00  1.60000000E+01  1.00800000E+00  1.00800000E+00  0.00000000E+00
  1.60000000E+01  1.00800000E+00  1.00800000E+00  0.00000000E+00  1.60000000E+01
  1.00800000E+00  1.00800000E+00  0.00000000E+00  1.60000000E+01  1.00800000E+00
  1.00800000E+00  0.00000000E+00  1.60000000E+01  1.00800000E+00  1.00800000E+00
  0.00000000E+00  1.60000000E+01  1.00800000E+00  1.00800000E+00  0.00000000E+00
  1.60000000E+01  1.00800000E+00  1.00800000E+00  0.00000000E+00  1.60000000E+01
  1.00800000E+00  1.00800000E+00  0.00000000E+00  1.60000000E+01  1.00800000E+00
  1.00800000E+00  0.00000000E+00  1.60000000E+01  1.00800000E+00  1.00800000E+00
  0.00000000E+00  1.60000000E+01  1.00800000E+00  1.00800000E+00  0.00000000E+00
  1.60000000E+01  1.00800000E+00  1.00800000E+00  0.00000000E+00  1.60000000E+01
  1.00800000E+00  1.00800000E+00  0.00000000E+00  1.60000000E+01  1.00800000E+00
  1.00800000E+00  0.00000000E+00  1.60000000E+01  1.00800000E+00  1.00800000E+00
  0.00000000E+00  1.60000000E+01  1.00800000E+00  1.00800000E+00  0.00000000E+00
  1.60000000E+01  1.00800000E+00  1.00800000E+00  0.00000000E+00  1.60000000E+01
  1.00800000E+00  1.00800000E+00  0.00000000E+00  1.60000000E+01  1.00800000E+00
  1.00800000E+00  0.00000000E+00  1.60000000E+01  1.00800000E+00  1.00800000E+00
  0.00000000E+00  1.60000000E+01  1.00800000E+00  1.00800000E+00  0.00000000E+00
  1.60000000E+01  1.00800000E+00  1.00800000E+00  0.00000000E+00  1.60000000E+01
  1.00800000E+00  1.00800000E+00  0.00000000E+00  1.60000000E+01  1.00800000E+00
  1.00800000E+00  0.00000000E+00  1.60000000E+01  1.00800000E+00  1.00800000E+00
  0.00000000E+00  1.60000000E+01  1.00800000E+00  1.00800000E+00  0.00000000E+00
  1.60000000E+01  1.00800000E+00  1.00800000E+00  0.00000000E+00  1.60000000E+01
  1.00800000E+00  1.00800000E+00  0.00000000E+00  1.60000000E+01  1.00800000E+00
  1.00800000E+00  0.00000000E+00  1.60000000E+01  1.00800000E+00  1.00800000E+00
  0.00000000E+00  1.60000000E+01  1.00800000E+00  1.00800000E+00  0.00000000E+00
  1.60000000E+01  1.00800000E+00  1.00800000E+00  0.00000000E+00  1.60000000E+01
  1.00800000E+00  1.00800000E+00  0.00000000E+00  1.60000000E+01  1.00800000E+00
  1.00800000E+00  0.00000000E+00  1.60000000E+01  1.00800000E+00  1.00800000E+00
  0.00000000E+00  1.60000000E+01  1.00800000E+00  1.00800000E+00  0.00000000E+00
  1.60000000E+01  1.00800000E+00  1.00800000E+00  0.00000000E+00  1.60000000E+01
  1.00800000E+00  1.00800000E+00  0.00000000E+00  1.60000000E+01  1.00800000E+00
  1.00800000E+00  0.00000000E+00  1.60000000E+01  1.00800000E+00  1.00800000E+00
  0.00000000E+00  1.60000000E+01  1.00800000E+00  1.00800000E+00  0.00000000E+00
  1.60000000E+01  1.00800000E+00  1.00800000E+00  0.00000000E+00  1.60000000E+01
  1.00800000E+00  1.00800000E+00  0.00000000E+00  1.60000000E+01  1.00800000E+00
  1.00800000E+00  0.00000000E+00  1.60000000E+01  1.00800000E+00  1.00800000E+00
  0.00000000E+00  1.60000000E+01  1.00800000E+00  1.00800000E+00  0.00000000E+00
  1.60000000E+01  1.00800000E+00  1.00800000E+00  0.00000000E+00  1.60000000E+01
  1.00800000E+00  1.00800000E+00  0.00000000E+00  1.60000000E+01  1.00800000E+00
  1.00800000E+00  0.00000000E+00  1.60000000E+01  1.00800000E+00  1.00800000E+00
  0.00000000E+00  1.60000000E+01  1.00800000E+00  1.00800000E+00  0.00000000E+00
  1.60000000E+01  1.00800000E+00  1.00800000E+00  0.00000000E+00  1.60000000E+01
  1.00800000E+00  1.00800000E+00  0.00000000E+00  1.60000000E+01  1.00800000E+00
  1.00800000E+00  0.00000000E+00  1.60000000E+01  1.00800000E+00  1.00800000E+00
  0.00000000E+00  1.60000000E+01  1.00800000E+00  1.00800000E+00  0.00000000E+00
  1.60000000E+01  1.00800000E+00  1.00800000E+00  0.00000000E+00  1.60000000E+01
  1.00800000E+00  1.00800000E+00  0.00000000E+00  1.60000000E+01  1.00800000E+00
  1.00800000E+00  0.00000000E+00  1.60000000E+01  1.00800000E+00  1.00800000E+00
  0.00000000E+00  1.60000000E+01  1.00800000E+00  1.00800000E+00  0.00000000E+00
  1.60000000E+01  1.00800000E+00  1.00800000E+00  0.00000000E+00  1.60000000E+01
  1.00800000E+00  1.00800000E+00  0.00000000E+00  1.60000000E+01  1.00800000E+00
  1.00800000E+00  0.00000000E+00  1.60000000E+01  1.00800000E+00  1.00800000E+00
  0.00000000E+00  1.60000000E+01  1.00800000E+00  1.00800000E+00  0.00000000E+00
  1.60000000E+01  1.00800000E+00  1.00800000E+00  0.00000000E+00  1.60000000E+01
  1.00800000E+00  1.00800000E+00  0.00000000E+00  1.60000000E+01  1.00800000E+00
  1.00800000E+00  0.00000000E+00  1.60000000E+01  1.00800000E+00  1.00800000E+00
  0.00000000E+00  1.60000000E+01  1.00800000E+00  1.00800000E+00  0.00000000E+00
  1.60000000E+01  1.00800000E+00  1.00800000E+00  0.00000000E+00  1.60000000E+01
  1.00800000E+00  1.00800000E+00  0.00000000E+00  1.60000000E+01  1.00800000E+00
  1.00800000E+00  0.00000000E+00  1.60000000E+01  1.00800000E+00  1.00800000E+00
  0.00000000E+00  1.60000000E+01  1.00800000E+00  1.00800000E+00  0.00000000E+00
  1.60000000E+01  1.00800000E+00  1.00800000E+00  0.00000000E+00  1.60000000E+01
  1.00800000E+00  1.00800000E+00  0.00000000E+00  1.60000000E+01  1.00800000E+00
  1.00800000E+00  0.00000000E+00  1.60000000E+01  1.00800000E+00  1.00800000E+00
  0.00000000E+00  1.60000000E+01  1.00800000E+00  1.00800000E+00  0.00000000E+00
  1.60000000E+01  1.00800000E+00  1.00800000E+00  0.00000000E+00  1.60000000E+01
  1.00800000E+00  1.00800000E+00  0.00000000E+00  1.60000000E+01  1.00800000E+00
  1.00800000E+00  0.00000000E+00  1.60000000E+01  1.00800000E+00  1.00800000E+00
  0.00000000E+00  1.60000000E+01  1.00800000E+00  1.00800000E+00  0.00000000E+00
  1.60000000E+01  1.00800000E+00  1.00800000E+00  0.00000000E+00  1.60000000E+01
  1.00800000E+00  1.00800000E+00  0.00000000E+00  1.60000000E+01  1.00800000E+00
  1.00800000E+00  0.00000000E+00  1.60000000E+01  1.00800000E+00  1.00800000E+00
  0.00000000E+00  1.60000000E+01  1.00800000E+00  1.00800000E+00  0.00000000E+00
  1.60000000E+01  1.00800000E+00  1.00800000E+00  0.00000000E+00  1.60000000E+01
  1.00800000E+00  1.00800000E+00  0.00000000E+00  1.60000000E+01  1.00800000E+00
  1.00800000E+00  0.00000000E+00  1.60000000E+01  1.00800000E+00  1.00800000E+00
  0.00000000E+00  1.60000000E+01  1.00800000E+00  1.00800000E+00  0.00000000E+00
  1.60000000E+01  1.00800000E+00  1.00800000E+00  0.00000000E+00  1.60000000E+01
  1.00800000E+00  1.00800000E+00  0.00000000E+00  1.60000000E+01  1.00800000E+00
  1.00800000E+00  0.00000000E+00  1.60000000E+01  1.00800000E+00  1.00800000E+00
  0.00000000E+00  1.60000000E+01  1.00800000E+00  1.00800000E+00  0.00000000E+00
  1.60000000E+01  1.00800000E+00  1.00800000E+00  0.00000000E+00  1.60000000E+01
  1.00800000E+00  1.00800000E+00  0.00000000E+00  1.60000000E+01  1.00800000E+00
  1.00800000E+00  0.00000000E+00  1.60000000E+01  1.00800000E+00  1.00800000E+00
  0.00000000E+00  1.60000000E+01  1.00800000E+00  1.00800000E+00  0.00000000E+00
  1.60000000E+01  1.00800000E+00  1.00800000E+00  0.00000000E+00  1.60000000E+01
  1.00800000E+00  1.00800000E+00  0.00000000E+00  1.60000000E+01  1.00800000E+00
  1.00800000E+00  0.00000000E+00  1.60000000E+01  1.00800000E+00  1.00800000E+00
  0.00000000E+00  1.60000000E+01  1.00800000E+00  1.00800000E+00  0.00000000E+00
  1.60000000E+01  1.00800000E+00  1.00800000E+00  0.00000000E+00  1.60000000E+01
  1.00800000E+00  1.00800000E+00  0.00000000E+00  1.60000000E+01  1.00800000E+00
  1.00800000E+00  0.00000000E+00  1.60000000E+01  1.00800000E+00  1.00800000E+00
  0.00000000E+00  1.60000000E+01  1.00800000E+00  1.00800000E+00  0.00000000E+00
  1.60000000E+01  1.00800000E+00  1.00800000E+00  0.00000000E+00  1.60000000E+01
  1.00800000E+00  1.00800000E+00  0.00000000E+00  1.60000000E+01  1.00800000E+00
  1.00800000E+00  0.00000000E+00  1.60000000E+01  1.00800000E+00  1.00800000E+00
  0.00000000E+00  1.60000000E+01  1.00800000E+00  1.00800000E+00  0.00000000E+00
  1.60000000E+01  1.00800000E+00  1.00800000E+00  0.00000000E+00  1.60000000E+01
  1.00800000E+00  1.00800000E+00  0.00000000E+00  1.60000000E+01  1.00800000E+00
  1.00800000E+00  0.00000000E+00  1.60000000E+01  1.00800000E+00  1.00800000E+00
  0.00000000E+00  1.60000000E+01  1.00800000E+00  1.00800000E+00  0.00000000E+00
  1.60000000E+01  1.00800000E+00  1.00800000E+00  0.00000000E+00  1.60000000E+01
  1.00800000E+00  1.00800000E+00  0.00000000E+00  1.60000000E+01  1.00800000E+00
  1.00800000E+00  0.00000000E+00  1.60000000E+01  1.00800000E+00  1.00800000E+00
  0.00000000E+00  1.60000000E+01  1.00800000E+00  1.00800000E+00  0.00000000E+00
  1.60000000E+01  1.00800000E+00  1.00800000E+00  0.00000000E+00  1.60000000E+01
  1.00800000E+00  1.00800000E+00  0.00000000E+00  1.60000000E+01  1.00800000E+00
  1.00800000E+00  0.00000000E+00  1.60000000E+01  1.00800000E+00  1.00800000E+00
  0.00000000E+00  1.60000000E+01  1.00800000E+00  1.00800000E+00  0.00000000E+00
  1.60000000E+01  1.00800000E+00  1.00800000E+00  0.00000000E+00  1.60000000E+01
  1.00800000E+00  1.00800000E+00  0.00000000E+00  1.60000000E+01  1.00800000E+00
  1.00800000E+00  0.00000000E+00  1.60000000E+01  1.00800000E+00  1.00800000E+00
  0.00000000E+00  1.60000000E+01  1.00800000E+00  1.00800000E+00  0.00000000E+00
  1.60000000E+01  1.00800000E+00  1.00800000E+00  0.00000000E+00  1.60000000E+01
  1.00800000E+00  1.00800000E+00  0.00000000E+00  1.60000000E+01  1.00800000E+00
  1.00800000E+00  0.00000000E+00  1.60000000E+01  1.00800000E+00  1.00800000E+00
  0.00000000E+00  1.60000000E+01  1.00800000E+00  1.00800000E+00  0.00000000E+00
  1.60000000E+01  1.00800000E+00  1.00800000E+00  0.00000000E+00  1.60000000E+01
  1.00800000E+00  1.00800000E+00  0.00000000E+00  1.60000000E+01  1.00800000E+00
  1.00800000E+00  0.00000000E+00  1.60000000E+01  1.00800000E+00  1.00800000E+00
  0.00000000E+00  1.60000000E+01  1.00800000E+00  1.00800000E+00  0.00000000E+00
  1.60000000E+01  1.00800000E+00  1.00800000E+00  0.00000000E+00  1.60000000E+01
  1.00800000E+00  1.00800000E+00  0.00000000E+00  1.60000000E+01  1.00800000E+00
  1.00800000E+00  0.00000000E+00  1.60000000E+01  1.00800000E+00  1.00800000E+00
  0.00000000E+00  1.60000000E+01  1.00800000E+00  1.00800000E+00  0.00000000E+00
  1.60000000E+01  1.00800000E+00  1.00800000E+00  0.00000000E+00  1.60000000E+01
  1.00800000E+00  1.00800000E+00  0.00000000E+00  1.60000000E+01  1.00800000E+00
  1.00800000E+00  0.00000000E+00  1.60000000E+01  1.00800000E+00  1.00800000E+00
  0.00000000E+00  1.60000000E+01  1.00800000E+00  1.00800000E+00  0.00000000E+00
  1.60000000E+01  1.00800000E+00  1.00800000E+00  0.00000000E+00  1.60000000E+01
  1.00800000E+00  1.00800000E+00  0.00000000E+00  1.60000000E+01  1.00800000E+00
  1.00800000E+00  0.00000000E+00  1.60000000E+01  1.00800000E+00  1.00800000E+00
  0.00000000E+00  1.60000000E+01  1.00800000E+00  1.00800000E+00  0.00000000E+00
  1.60000000E+01  1.00800000E+00  1.00800000E+00  0.00000000E+00  1.60000000E+01
  1.00800000E+00  1.00800000E+00  0.00000000E+00  1.60000000E+01  1.00800000E+00
  1.00800000E+00  0.00000000E+00  1.60000000E+01  1.00800000E+00  1.00800000E+00
  0.00000000E+00  1.60000000E+01  1.00800000E+00  1.00800000E+00  0.00000000E+00
  1.60000000E+01  1.00800000E+00  1.00800000E+00  0.00000000E+00  1.60000000E+01
  1.00800000E+00  1.00800000E+00  0.00000000E+00  1.60000000E+01  1.00800000E+00
  1.00800000E+00  0.00000000E+00  1.60000000E+01  1.00800000E+00  1.00800000E+00
  0.00000000E+00  1.60000000E+01  1.00800000E+00  1.00800000E+00  0.00000000E+00
  1.60000000E+01  1.00800000E+00  1.00800000E+00  0.00000000E+00  1.60000000E+01
  1.00800000E+00  1.00800000E+00  0.00000000E+00  1.60000000E+01  1.00800000E+00
  1.00800000E+00  0.00000000E+00  1.60000000E+01  1.00800000E+00  1.00800000E+00
  0.00000000E+00  1.60000000E+01  1.00800000E+00  1.00800000E+00  0.00000000E+00
  1.60000000E+01  1.00800000E+00  1.00800000E+00  0.00000000E+00  1.60000000E+01
  1.00800000E+00  1.00800000E+00  0.00000000E+00  1.60000000E+01  1.00800000E+00
  1.00800000E+00  0.00000000E+00  1.60000000E+01  1.00800000E+00  1.00800000E+00
  0.00000000E+00  1.60000000E+01  1.00800000E+00  1.00800000E+00  0.00000000E+00
  1.60000000E+01  1.00800000E+00  1.00800000E+00  0.00000000E+00  1.60000000E+01
  1.00800000E+00  1.00800000E+00  0.00000000E+00  1.60000000E+01  1.00800000E+00
  1.00800000E+00  0.00000000E+00  1.60000000E+01  1.00800000E+00  1.00800000E+00
  0.00000000E+00  1.60000000E+01  1.00800000E+00  1.00800000E+00  0.00000000E+00
  1.60000000E+01  1.00800000E+00  1.00800000E+00  0.00000000E+00  1.60000000E+01
  1.00800000E+00  1.00800000E+00  0.00000000E+00  1.60000000E+01  1.00800000E+00
  1.00800000E+00  0.00000000E+00  1.60000000E+01  1.00800000E+00  1.00800000E+00
  0.00000000E+00  1.60000000E+01  1.00800000E+00  1.00800000E+00  0.00000000E+00
  1.60000000E+01  1.00800000E+00  1.00800000E+00  0.00000000E+00  1.60000000E+01
  1.00800000E+00  1.00800000E+00  0.00000000E+00  1.60000000E+01  1.00800000E+00
  1.00800000E+00  0.00000000E+00  1.60000000E+01  1.00800000E+00  1.00800000E+00
  0.00000000E+00  1.60000000E+01  1.00800000E+00  1.00800000E+00  0.00000000E+00
  1.60000000E+01  1.00800000E+00  1.00800000E+00  0.00000000E+00  1.60000000E+01
  1.00800000E+00  1.00800000E+00  0.00000000E+00  1.60000000E+01  1.00800000E+00
  1.00800000E+00  0.00000000E+00  1.60000000E+01  1.00800000E+00  1.00800000E+00
  0.00000000E+00  1.60000000E+01  1.00800000E+00  1.00800000E+00  0.00000000E+00
  1.60000000E+01  1.00800000E+00  1.00800000E+00  0.00000000E+00  1.60000000E+01
  1.00800000E+00  1.00800000E+00  0.00000000E+00  1.60000000E+01  1.00800000E+00
  1.00800000E+00  0.00000000E+00  1.60000000E+01  1.00800000E+00  1.00800000E+00
  0.00000000E+00  1.60000000E+01  1.00800000E+00  1.00800000E+00  0.00000000E+00
  1.60000000E+01  1.00800000E+00  1.00800000E+00  0.00000000E+00  1.60000000E+01
  1.00800000E+00  1.00800000E+00  0.00000000E+00  1.60000000E+01  1.00800000E+00
  1.00800000E+00  0.00000000E+00  1.60000000E+01  1.00800000E+00  1.00800000E+00
  0.00000000E+00  1.60000000E+01  1.00800000E+00  1.00800000E+00  0.00000000E+00
  1.60000000E+01  1.00800000E+00  1.00800000E+00  0.00000000E+00  1.60000000E+01
  1.00800000E+00  1.00800000E+00  0.00000000E+00  1.60000000E+01  1.00800000E+00
  1.00800000E+00  0.00000000E+00  1.60000000E+01  1.00800000E+00  1.00800000E+00
  0.00000000E+00  1.60000000E+01  1.00800000E+00  1.00800000E+00  0.00000000E+00
  1.60000000E+01  1.00800000E+00  1.00800000E+00  0.00000000E+00  1.60000000E+01
  1.00800000E+00  1.00800000E+00  0.00000000E+00  1.60000000E+01  1.00800000E+00
  1.00800000E+00  0.00000000E+00  1.60000000E+01  1.00800000E+00  1.00800000E+00
  0.00000000E+00  1.60000000E+01  1.00800000E+00  1.00800000E+00  0.00000000E+00
  1.60000000E+01  1.00800000E+00  1.00800000E+00  0.00000000E+00  1.60000000E+01
  1.00800000E+00  1.00800000E+00  0.00000000E+00  1.60000000E+01  1.00800000E+00
  1.00800000E+00  0.00000000E+00  1.60000000E+01  1.00800000E+00  1.00800000E+00
  0.00000000E+00  1.60000000E+01  1.00800000E+00  1.00800000E+00  0.00000000E+00
  1.60000000E+01  1.00800000E+00  1.00800000E+00  0.00000000E+00  1.60000000E+01
  1.00800000E+00  1.00800000E+00  0.00000000E+00  1.60000000E+01  1.00800000E+00
  1.00800000E+00  0.00000000E+00  1.60000000E+01  1.00800000E+00  1.00800000E+00
  0.00000000E+00  1.60000000E+01  1.00800000E+00  1.00800000E+00  0.00000000E+00
  1.60000000E+01  1.00800000E+00  1.00800000E+00  0.00000000E+00  1.60000000E+01
  1.00800000E+00  1.00800000E+00  0.00000000E+00  1.60000000E+01  1.00800000E+00
  1.00800000E+00  0.00000000E+00  1.60000000E+01  1.00800000E+00  1.00800000E+00
  0.00000000E+00  1.60000000E+01  1.00800000E+00  1.00800000E+00  0.00000000E+00
  1.60000000E+01  1.00800000E+00  1.00800000E+00  0.00000000E+00  1.60000000E+01
  1.00800000E+00  1.00800000E+00  0.00000000E+00  1.60000000E+01  1.00800000E+00
  1.00800000E+00  0.00000000E+00  1.60000000E+01  1.00800000E+00  1.00800000E+00
  0.00000000E+00  1.60000000E+01  1.00800000E+00  1.00800000E+00  0.00000000E+00
  1.60000000E+01  1.00800000E+00  1.00800000E+00  0.00000000E+00  1.60000000E+01
  1.00800000E+00  1.00800000E+00  0.00000000E+00  1.60000000E+01  1.00800000E+00
  1.00800000E+00  0.00000000E+00  1.60000000E+01  1.00800000E+00  1.00800000E+00
  0.00000000E+00  1.60000000E+01  1.00800000E+00  1.00800000E+00  0.00000000E+00
  1.60000000E+01  1.00800000E+00  1.00800000E+00  0.00000000E+00  1.60000000E+01
  1.00800000E+00  1.00800000E+00  0.00000000E+00  1.60000000E+01  1.00800000E+00
  1.00800000E+00  0.00000000E+00  1.60000000E+01  1.00800000E+00  1.00800000E+00
  0.00000000E+00  1.60000000E+01  1.00800000E+00  1.00800000E+00  0.00000000E+00
  1.60000000E+01  1.00800000E+00  1.00800000E+00  0.00000000E+00  1.60000000E+01
  1.00800000E+00  1.00800000E+00  0.00000000E+00  1.60000000E+01  1.00800000E+00
  1.00800000E+00  0.00000000E+00  1.60000000E+01  1.00800000E+00  1.00800000E+00
  0.00000000E+00  1.60000000E+01  1.00800000E+00  1.00800000E+00  0.00000000E+00
  1.60000000E+01  1.00800000E+00  1.00800000E+00  0.00000000E+00  1.60000000E+01
  1.00800000E+00  1.00800000E+00  0.00000000E+00  1.60000000E+01  1.00800000E+00
  1.00800000E+00  0.00000000E+00  1.60000000E+01  1.00800000E+00  1.00800000E+00
  0.00000000E+00  1.60000000E+01  1.00800000E+00  1.00800000E+00  0.00000000E+00
  1.60000000E+01  1.00800000E+00  1.00800000E+00  0.00000000E+00  1.60000000E+01
  1.00800000E+00  1.00800000E+00  0.00000000E+00  1.60000000E+01  1.00800000E+00
  1.00800000E+00  0.00000000E+00  1.60000000E+01  1.00800000E+00  1.00800000E+00
  0.00000000E+00  1.60000000E+01  1.00800000E+00  1.00800000E+00  0.00000000E+00
  1.60000000E+01  1.00800000E+00  1.00800000E+00  0.00000000E+00  1.60000000E+01
  1.00800000E+00  1.00800000E+00  0.00000000E+00  1.60000000E+01  1.00800000E+00
  1.00800000E+00  0.00000000E+00  1.60000000E+01  1.00800000E+00  1.00800000E+00
  0.00000000E+00  1.60000000E+01  1.00800000E+00  1.00800000E+00  0.00000000E+00
  1.60000000E+01  1.00800000E+00  1.00800000E+00  0.00000000E+00  1.60000000E+01
  1.00800000E+00  1.00800000E+00  0.00000000E+00  1.60000000E+01  1.00800000E+00
  1.00800000E+00  0.00000000E+00  1.60000000E+01  1.00800000E+00  1.00800000E+00
  0.00000000E+00  1.60000000E+01  1.00800000E+00  1.00800000E+00  0.00000000E+00
  1.60000000E+01  1.00800000E+00  1.00800000E+00  0.00000000E+00  1.60000000E+01
  1.00800000E+00  1.00800000E+00  0.00000000E+00  1.60000000E+01  1.00800000E+00
  1.00800000E+00  0.00000000E+00  1.60000000E+01  1.00800000E+00  1.00800000E+00
  0.00000000E+00  1.60000000E+01  1.00800000E+00  1.00800000E+00  0.00000000E+00
  1.60000000E+01  1.00800000E+00  1.00800000E+00  0.00000000E+00  1.60000000E+01
  1.00800000E+00  1.00800000E+00  0.00000000E+00  1.60000000E+01  1.00800000E+00
  1.00800000E+00  0.00000000E+00  1.60000000E+01  1.00800000E+00  1.00800000E+00
  0.00000000E+00  1.60000000E+01  1.00800000E+00  1.00800000E+00  0.00000000E+00
  1.60000000E+01  1.00800000E+00  1.00800000E+00  0.00000000E+00  1.60000000E+01
  1.00800000E+00  1.00800000E+00  0.00000000E+00  1.60000000E+01  1.00800000E+00
  1.00800000E+00  0.00000000E+00  1.60000000E+01  1.00800000E+00  1.00800000E+00
  0.00000000E+00  1.60000000E+01  1.00800000E+00  1.00800000E+00  0.00000000E+00
  1.60000000E+01  1.00800000E+00  1.00800000E+00  0.00000000E+00  1.60000000E+01
  1.00800000E+00  1.00800000E+00  0.00000000E+00  1.60000000E+01  1.00800000E+00
  1.00800000E+00  0.00000000E+00  1.60000000E+01  1.00800000E+00  1.00800000E+00
  0.00000000E+00  1.60000000E+01  1.00800000E+00  1.00800000E+00  0.00000000E+00
  1.60000000E+01  1.00800000E+00  1.00800000E+00  0.00000000E+00  1.60000000E+01
  1.00800000E+00  1.00800000E+00  0.00000000E+00  1.60000000E+01  1.00800000E+00
  1.00800000E+00  0.00000000E+00  1.60000000E+01  1.00800000E+00  1.00800000E+00
  0.00000000E+00  1.60000000E+01  1.00800000E+00  1.00800000E+00  0.00000000E+00
  1.60000000E+01  1.00800000E+00  1.00800000E+00  0.00000000E+00  1.60000000E+01
  1.00800000E+00  1.00800000E+00  0.00000000E+00  1.60000000E+01  1.00800000E+00
  1.00800000E+00  0.00000000E+00  1.60000000E+01  1.00800000E+00  1.00800000E+00
  0.00000000E+00  1.60000000E+01  1.00800000E+00  1.00800000E+00  0.00000000E+00
  1.60000000E+01  1.00800000E+00  1.00800000E+00  0.00000000E+00  1.60000000E+01
  1.00800000E+00  1.00800000E+00  0.00000000E+00  1.60000000E+01  1.00800000E+00
  1.00800000E+00  0.00000000E+00  1.60000000E+01  1.00800000E+00  1.00800000E+00
  0.00000000E+00  1.60000000E+01  1.00800000E+00  1.00800000E+00  0.00000000E+00
  1.60000000E+01  1.00800000E+00  1.00800000E+00  0.00000000E+00  1.60000000E+01
  1.00800000E+00  1.00800000E+00  0.00000000E+00  1.60000000E+01  1.00800000E+00
  1.00800000E+00  0.00000000E+00  1.60000000E+01  1.00800000E+00  1.00800000E+00
  0.00000000E+00  1.60000000E+01  1.00800000E+00  1.00800000E+00  0.00000000E+00
  1.60000000E+01  1.00800000E+00  1.00800000E+00  0.00000000E+00  1.60000000E+01
  1.00800000E+00  1.00800000E+00  0.00000000E+00  1.60000000E+01  1.00800000E+00
  1.00800000E+00  0.00000000E+00  1.60000000E+01  1.00800000E+00  1.00800000E+00
  0.00000000E+00  1.60000000E+01  1.00800000E+00  1.00800000E+00  0.00000000E+00
  1.60000000E+01  1.00800000E+00  1.00800000E+00  0.00000000E+00  1.60000000E+01
  1.00800000E+00  1.00800000E+00  0.00000000E+00  1.60000000E+01  1.00800000E+00
  1.00800000E+00  0.00000000E+00  1.60000000E+01  1.00800000E+00  1.00800000E+00
  0.00000000E+00  1.60000000E+01  1.00800000E+00  1.00800000E+00  0.00000000E+00
  1.60000000E+01  1.00800000E+00  1.00800000E+00  0.00000000E+00  1.60000000E+01
  1.00800000E+00  1.00800000E+00  0.00000000E+00  1.60000000E+01  1.00800000E+00
  1.00800000E+00  0.00000000E+00  1.60000000E+01  1.00800000E+00  1.00800000E+00
  0.00000000E+00  1.60000000E+01  1.00800000E+00  1.00800000E+00  0.00000000E+00
  1.60000000E+01  1.00800000E+00  1.00800000E+00  0.00000000E+00  1.60000000E+01
  1.00800000E+00  1.00800000E+00  0.00000000E+00  1.60000000E+01  1.00800000E+00
  1.00800000E+00  0.00000000E+00  1.60000000E+01  1.00800000E+00  1.00800000E+00
  0.00000000E+00  1.60000000E+01  1.00800000E+00  1.00800000E+00  0.00000000E+00
  1.60000000E+01  1.00800000E+00  1.00800000E+00  0.00000000E+00  1.60000000E+01
  1.00800000E+00  1.00800000E+00  0.00000000E+00  1.60000000E+01  1.00800000E+00
  1.00800000E+00  0.00000000E+00  1.60000000E+01  1.00800000E+00  1.00800000E+00
  0.00000000E+00
%FLAG ATOM_TYPE_INDEX                                                           
%FORMAT(10I8)                                                                   
       1       2       3       4       4       3       4       5       3       6
       7       8       9       7       8       8      10       7      11       8
       7      11      11       7       8       3       4       3       4       2
       1       5      12      10      10       5       3       4       4       3
       4       5       3       6       7       8       9       7       8       8
      10       7      11       8       7      11      11       7       8       3
       4       3       4       2       1       5      12      10      10       5
       3       4       4       3       4       5       3       6       7       8
       9       7       8       8       7      11      11       7       8       9
       7       8       3       4       3       4       2       1       5      12
      10      10       5       3       4       4       3       4       5       3
       6       7       8      13       8      14       8      10       7      11
       8      10       3       4       3       4       2       1       5      12
      10      10       5       3       4       4       3       4       5       3
       6       7       8      13       8      14       8       7      11      11
       7       8      10       3       4       3       4       2       1       5
      12      10      10       5       3       4       4       3       4       5
       3       6       7       8       9       7       8       8       7      11
      11       7       8       9       7       8       3       4       3       4
       2       1       5      12      10      10       5       3       4       4
       3       4       5       3       6       7       8      13       8      14
       8      10       7      11       8      10       3       4       3       4
       2       1       5      12      10      10       5       3       4       4
       3       4       5       3       6       7       8       9       7       8
       8       7      11      11       7       8       9       7       8       3
       4       3       4       2       1       5      12      10      10       5
       3       4       4       3       4       5       3       6       7       8
      13       8      14       8      10       7      11       8      10       3
       4       3       4       2       1       5      12      10      10       5
       3       4       4       3       4       5       3       6       7       8
       9       7       8       8       7      11      11       7       8       9
       7       8       3       4       3       4       2       1       5      12
      10      10       5       3       4       4       3       4       5       3
       6       7       8       9       7       8       8       7      11      11
       7       8       9       7       8       3       4       3       4       2
       1       5      12      10      10       5       3       4       4       3
       4       5       3       6       7       8      13       8      14       8
      10       7      11       8      10       3       4       3       4       2
       1       5      12      10      10       5       3       4       4       3
       4       5       3       6       7       8      13       8      14       8
       7      11      11       7       8      10       3       4       3       4
       2       1       5      12      10      10       5       3       4       4
       3       4       5       3       6       7       8       9       7       8
       8      10       7      11       8       7      11      11       7       8
       3       4       3       4       2       1       5      12      10      10
       5       3       4       4       3       4       5       3       6       7
       8      13       8      14       8       7      11      11       7       8
      10       3       4       3       4       2       1       5      12      10
      10       5       3       4       4       3       4       5       3       6
       7       8       9       7       8       8      10       7      11       8
       7      11      11       7       8       3       4       3       4       2
       1       5      12      10      10       5       3       4       4       3
       4       5       3       6       7       8      13       8      14       8
      10       7      11       8      10       3       4       3       4       2
       1       5      12      10      10       5       3       4       4       3
       4       5       3       6       7       8       9       7       8       8
      10       7      11       8       7      11      11       7       8       3
       4       3       4       2       1       5      12      10      10       5
       3       4       4       3       4       5       3       6       7       8
       9       7       8       8      10       7      11       8       7      11
      11       7       8       3       4       3       4       2       1       5
      12      10      10       5       3       4       4       3       4       5
       3       6       7       8       9       7       8       8       7      11
      11       7       8       9       7       8       3       4       3       4
       2       1       5      12      10      10       5       3       4       4
       3       4       5       3       6       7       8      13       8      14
       8      10       7      11       8      10       3       4       3       4
       2       1       5      12      10      10       5       3       4       4
       3       4       5       3       6       7       8       9       7       8
       8       7      11      11       7       8       9       7       8       3
       4       3       4       2       1       5      12      10      10       5
       3       4       4       3       4       5       3       6       7       8
      13       8      14       8      10       7      11       8      10       3
       4       3       4       2       1       5      12      10      10       5
       3       4       4       3       4       5       3       6       7       8
       9       7       8       8      10       7      11       8       7      11
      11       7       8       3       4       3       4       2       1       5
      12      10      10       5       3       4       4       3       4       5
       3       6       7       8       9       7       8       8      10       7
      11       8       7      11      11       7       8       3       4       3
       4       2       1       5      12      10      10       5       3       4
       4       3       4       5       3       6       7       8      13       8
      14       8       7      11      11       7       8      10       3       4
       3       4       2       1       5      12      10      10       5       3
       4       4       3       4       5       3       6       7       8       9
       7       8       8       7      11      11       7       8       9       7
       8       3       4       3       4       2       1       5      12      10
      10       5       3       4       4       3       4       5       3       6
       7       8      13       8      14       8       7      11      11       7
       8      10       3       4       3       4       2       1       5      12
      10      10       5       3       4       4       3       4       5       3
       6       7       8       9       7       8       8      10       7      11
       8       7      11      11       7       8       3       4       3       4
       2       1       5      12      10      10       5       3       4       4
       3       4       5       3       6       7       8      13       8      14
       8       7      11      11       7       8      10       3       4       3
       4       2       1       5      12      10      10       5       3       4
       4       3       4       5       3       6       7       8       9       7
       8       8       7      11      11       7       8       9       7       8
       3       4       3       4       2       1       5      12      10      10
       5       3       4       4       3       4       5       3       6       7
       8       9       7       8       8       7      11      11       7       8
       9       7       8       3       4       3       4       2       1       5
      12      10      10       5       3       4       4       3       4       5
       3       6       7       8       9       7       8       8      10       7
      11       8       7      11      11       7       8       3       4       3
       4       2       1       5      12      10      10       5       3       4
       4       3       4       5       3       6       7       8      13       8
      14       8      10       7      11       8      10       3       4       3
       4       2       1       5      12      10      10       5       3       4
       4       3       4       5       3       6       7       8      13       8
      14       8      10       7      11       8      10       3       4       3
       4       2       1       5      12      10      10       5       3       4
       4       3       4       5       3       6       7       8      13       8
      14       8      10       7      11       8      10       3       4       3
       4       2       1       5      12      10      10       5       3       4
       4       3       4       5       3       6       7       8      13       8
      14       8       7      11      11       7       8      10       3       4
       3       4       2       1       5      12      10      10       5       3
       4       4       3       4       5       3       6       7       8      13
       8      14       8      10       7      11       8      10       3       4
       3       4       2       1       5      12      10      10       5       3
       4       4       3       4       5       3       6       7       8       9
       7       8       8       7      11      11       7       8       9       7
       8       3       4       3       4       2       1       5      12      10
      10       5       3       4       4       3       4       5       3       6
       7       8      13       8      14       8       7      11      11       7
       8      10       3       4       3       4       2       1       5      12
      10      10       5       3       4       4       3       4       5       3
       6       7       8      13       8      14       8       7      11      11
       7       8      10       3       4       3       4       2       1       5
      12      10      10       5       3       4       4       3       4       5
       3       6       7       8       9       7       8       8      10       7
      11       8       7      11      11       7       8       3       4       3
       4       2       1       5      12      10      10       5       3       4
       4       3       4       5       3       6       7       8       9       7
       8       8      10       7      11       8       7      11      11       7
       8       3       4       3       4       2       1       5      12      10
      10       5       3       4       4       3       4       5       3       6
       7       8       9       7       8       8      10       7      11       8
       7      11      11       7       8       3       4       3       4       2
       1       5      12      10      10       5       3       4       4       3
       4       5       3       6       7       8      13       8      14       8
       7      11      11       7       8      10       3       4       3       4
       2       1       5      12      10      10       5       3       4       4
       3       4       5       3       6       7       8       9       7       8
       8       7      11      11       7       8       9       7       8       3
       4       3       4       2       1       5      12      10      10       5
       3       4       4       3       4       5       3       6       7       8
      13       8      14       8       7      11      11       7       8      10
       3       4       3       4       2       1       5      12      10      10
       5       3       4       4       3       4       5       3       6       7
       8      13       8      14       8       7      11      11       7       8
      10       3       4       3       4       2       1       5      12      10
      10       5       3       4       4       3       4       5       3       6
       7       8       9       7       8       8      10       7      11       8
       7      11      11       7       8       3       4       3       4       2
       1       5      12      10      10       5       3       4       4       3
       4       5       3       6       7       8      13       8      14       8
      10       7      11       8      10       3       4       3       4       2
       1       5      12      10      10       5       3       4       4       3
       4       5       3       6       7       8       9       7       8       8
       7      11      11       7       8       9       7       8       3       4
       3       4       2       1       5      12      10      10       5       3
       4       4       3       4       5       3       6       7       8       9
       7       8       8       7      11      11       7       8       9       7
       8       3       4       3       4       2       1       5      12      10
      10       5       3       4       4       3       4       5       3       6
       7       8       9       7       8       8       7      11      11       7
       8       9       7       8       3       4       3       4       2       1
       5      12      10      10       5       3       4       4       3       4
       5       3       6       7       8      13       8      14       8      10
       7      11       8      10       3       4       3       4       2       1
       5      12      10      10       5       3       4       4       3       4
       5       3       6       7       8       9       7       8       8      10
       7      11       8       7      11      11       7       8       3       4
       3       4       2       1       5      12      10      10       5       3
       4       4       3       4       5       3       6       7       8      13
       8      14       8      10       7      11       8      10       3       4
       3       4       2       1       5      12      10      10       5       3
       4       4       3       4       5       3       6       7       8      13
       8      14       8       7      11      11       7       8      10       3
       4       3       4       2       1       5      12      10      10       5
       3       4       4       3       4       5       3       6       7       8
      13       8      14       8       7      11      11       7       8      10
       3       4       3       4       2       1       5      12      10      10
       5       3       4       4       3       4       5       3       6       7
       8       9       7       8       8      10       7      11       8       7
      11      11       7       8       3       4       3       4       2       1
       5      12      10      10       5       3       4       4       3       4
       5       3       6       7       8       9       7       8       8       7
      11      11       7       8       9       7       8       3       4       3
       4       2       1       5      12      10      10       5       3       4
       4       3       4       5       3       6       7       8      13       8
      14       8       7      11      11       7       8      10       3       4
       3       4       2       1       5      12      10      10       5       3
       4       4       3       4       5       3       6       7       8      13
       8      14       8      10       7      11       8      10       3       4
       3       4       2       1       5      12      10      10       5       3
       4       4       3       4       5       3       6       7       8       9
       7       8       8       7      11      11       7       8       9       7
       8       3       4       3       4       2       1       5      12      10
      10       5       3       4       4       3       4       5       3       6
       7       8      13       8      14       8      10       7      11       8
      10       3       4       3       4       2       1       5      12      10
      10       5       3       4       4       3       4       5       3       6
       7       8       9       7       8       8      10       7      11       8
       7      11      11       7       8       3       4       3       4       2
       1       5      12      10      10       5       3       4       4       3
       4       5       3       6       7       8       9       7       8       8
      10       7      11       8       7      11      11       7       8       3
       4       3       4       2       1       5      12      10      10       5
       3       4       4       3       4       5       3       6       7       8
      13       8      14       8      10       7      11       8      10       3
       4       3       4       2       1       5      12      10      10       5
       3       4       4       3       4       5       3       6       7       8
      13       8      14       8       7      11      11       7       8      10
       3       4       3       4       2       1       2       1      15      15
      15      15      15      15      15      15      15      15      15      15
      15      15      15      15      15      15      15      15      15      15
      15      15      15      15      15      15      15      15      15      15
      15      15      15      15      15      15      15      15      15      15
      15      15      15      15      15      15      15      15      15      15
      15      15      15      15      15      15      15      15      15      15
      15      15      15      15      15      15      16      15      16      15
      16      15      16      15      16      15      16      15      16      15
      16      15      16      15      16      15      16      15      16      15
      16      15      16      15      16      15      16      15      16      15
      16      15      16      15      16      15      16      15      16      15
      16      15      16      15      16      15      16      15      16      15
      16      15      16      15      16      15      16      15      16      17
      18      19      18      20      21      21      21      22      18      18
      22      18      23      24      25      24      26       1       1      27
      26       1       1      27      26       1       1      27      26       1
       1      27      26       1       1      27      26       1       1      27
      26       1       1      27      26       1       1      27      26       1
       1      27      26       1       1      27      26       1       1      27
      26       1       1      27      26       1       1      27      26       1
       1      27      26       1       1      27      26       1       1      27
      26       1       1      27      26       1       1      27      26       1
       1      27      26       1       1      27      26       1       1      27
      26       1       1      27      26       1       1      27      26       1
       1      27      26       1       1      27      26       1       1      27
      26       1       1      27      26       1       1      27      26       1
       1      27      26       1       1      27      26       1       1      27
      26       1       1      27      26       1       1      27      26       1
       1      27      26       1       1      27      26       1       1      27
      26       1       1      27      26       1       1      27      26       1
       1      27      26       1       1      27      26       1       1      27
      26       1       1      27      26       1       1      27      26       1
       1      27      26       1       1      27      26       1       1      27
      26       1       1      27      26       1       1      27      26       1
       1      27      26       1       1      27      26       1       1      27
      26       1       1      27      26       1       1      27      26       1
       1      27      26       1       1      27      26       1       1      27
      26       1       1      27      26       1       1      27      26       1
       1      27      26       1       1      27      26       1       1      27
      26       1       1      27      26       1       1      27      26       1
       1      27      26       1       1      27      26       1       1      27
      26       1       1      27      26       1       1      27      26       1
       1      27      26       1       1      27      26       1       1      27
      26       1       1      27      26       1       1      27      26       1
       1      27      26       1       1      27      26       1       1      27
      26       1       1      27      26       1       1      27      26       1
       1      27      26       1       1      27      26       1       1      27
      26       1       1      27      26       1       1      27      26       1
       1      27      26       1       1      27      26       1       1      27
      26       1       1      27      26       1       1      27      26       1
       1      27      26       1       1      27      26       1       1      27
      26       1       1      27      26       1       1      27      26       1
       1      27      26       1       1      27      26       1       1      27
      26       1       1      27      26       1       1      27      26       1
       1      27      26       1       1      27      26       1       1      27
      26       1       1      27      26       1       1      27      26       1
       1      27      26       1       1      27      26       1       1      27
      26       1       1      27      26       1       1      27      26       1
       1      27      26       1       1      27      26       1       1      27
      26       1       1      27      26       1       1      27      26       1
       1      27      26       1       1      27      26       1       1      27
      26       1       1      27      26       1       1      27      26       1
       1      27      26       1       1      27      26       1       1      27
      26       1       1      27      26       1       1      27      26       1
       1      27      26       1       1      27      26       1       1      27
      26       1       1      27      26       1       1      27      26       1
       1      27      26       1       1      27      26       1       1      27
      26       1       1      27      26       1       1      27      26       1
       1      27      26       1       1      27      26       1       1      27
      26       1       1      27      26       1       1      27      26       1
       1      27      26       1       1      27      26       1       1      27
      26       1       1      27      26       1       1      27      26       1
       1      27      26       1       1      27      26       1       1      27
      26       1       1      27      26       1       1      27      26       1
       1      27      26       1       1      27      26       1       1      27
      26       1       1      27      26       1       1      27      26       1
       1      27      26       1       1      27      26       1       1      27
      26       1       1      27      26       1       1      27      26       1
       1      27      26       1       1      27      26       1       1      27
      26       1       1      27      26       1       1      27      26       1
       1      27      26       1       1      27      26       1       1      27
      26       1       1      27      26       1       1      27      26       1
       1      27      26       1       1      27      26       1       1      27
      26       1       1      27      26       1       1      27      26       1
       1      27      26       1       1      27      26       1       1      27
      26       1       1      27      26       1       1      27      26       1
       1      27      26       1       1      27      26       1       1      27
      26       1       1      27      26       1       1      27      26       1
       1      27      26       1       1      27      26       1       1      27
      26       1       1      27      26       1       1      27      26       1
       1      27      26       1       1      27      26       1       1      27
      26       1       1      27      26       1       1      27      26       1
       1      27      26       1       1      27      26       1       1      27
      26       1       1      27      26       1       1      27      26       1
       1      27      26       1       1      27      26       1       1      27
      26       1       1      27      26       1       1      27      26       1
       1      27      26       1       1      27      26       1       1      27
      26       1       1      27      26       1       1      27      26       1
       1      27      26       1       1      27      26       1       1      27
      26       1       1      27      26       1       1      27      26       1
       1      27      26       1       1      27      26       1       1      27
      26       1       1      27      26       1       1      27      26       1
       1      27      26       1       1      27      26       1       1      27
      26       1       1      27      26       1       1      27      26       1
       1      27      26       1       1      27      26       1       1      27
      26       1       1      27      26       1       1      27      26       1
       1      27      26       1       1      27      26       1       1      27
      26       1       1      27      26       1       1      27      26       1
       1      27      26       1       1      27      26       1       1      27
      26       1       1      27      26       1       1      27      26       1
       1      27      26       1       1      27      26       1       1      27
      26       1       1      27      26       1       1      27      26       1
       1      27      26       1       1      27      26       1       1      27
      26       1       1      27      26       1       1      27      26       1
       1      27      26       1       1      27      26       1       1      27
      26       1       1      27      26       1       1      27      26       1
       1      27      26       1       1      27      26       1       1      27
      26       1       1      27      26       1       1      27      26       1
       1      27      26       1       1      27      26       1       1      27
      26       1       1      27      26       1       1      27      26       1
       1      27      26       1       1      27      26       1       1      27
      26       1       1      27      26       1       1      27      26       1
       1      27      26       1       1      27      26       1       1      27
      26       1       1      27      26       1       1      27      26       1
       1      27      26       1       1      27      26       1       1      27
      26       1       1      27      26       1       1      27      26       1
       1      27      26       1       1      27      26       1       1      27
      26       1       1      27      26       1       1      27      26       1
       1      27      26       1       1      27      26       1       1      27
      26       1       1      27      26       1       1      27      26       1
       1      27      26       1       1      27      26       1       1      27
      26       1       1      27      26       1       1      27      26       1
       1      27      26       1       1      27      26       1       1      27
      26       1       1      27      26       1       1      27      26       1
       1      27      26       1       1      27      26       1       1      27
      26       1       1      27      26       1       1      27      26       1
       1      27      26       1       1      27      26       1       1      27
      26       1       1      27      26       1       1      27      26       1
       1      27      26       1       1      27      26       1       1      27
      26       1       1      27      26       1       1      27      26       1
       1      27      26       1       1      27      26       1       1      27
      26       1       1      27      26       1       1      27      26       1
       1      27      26       1       1      27      26       1       1      27
      26       1       1      27      26       1       1      27      26       1
       1      27      26       1       1      27      26       1       1      27
      26       1       1      27      26       1       1      27      26       1
       1      27      26       1       1      27      26       1       1      27
      26       1       1      27      26       1       1      27      26       1
       1      27      26       1       1      27      26       1       1      27
      26       1       1      27      26       1       1      27      26       1
       1      27      26       1       1      27      26       1       1      27
      26       1       1      27      26       1       1      27      26       1
       1      27      26       1       1      27      26       1       1      27
      26       1       1      27      26       1       1      27      26       1
       1      27      26       1       1      27      26       1       1      27
      26       1       1      27      26       1       1      27      26       1
       1      27      26       1       1      27      26       1       1      27
      26       1       1      27      26       1       1      27      26       1
       1      27      26       1       1      27      26       1       1      27
      26       1       1      27      26       1       1      27      26       1
       1      27      26       1       1      27      26       1       1      27
      26       1       1      27      26       1       1      27      26       1
       1      27      26       1       1      27      26       1       1      27
      26       1       1      27      26       1       1      27      26       1
       1      27      26       1       1      27      26       1       1      27
      26       1       1      27      26       1       1      27      26       1
       1      27      26       1       1      27      26       1       1      27
      26       1       1      27      26       1       1      27      26       1
       1      27      26       1       1      27      26       1       1      27
      26       1       1      27      26       1       1      27      26       1
       1      27      26       1       1      27      26       1       1      27
      26       1       1      27      26       1       1      27      26       1
       1      27      26       1       1      27      26       1       1      27
      26       1       1      27      26       1       1      27      26       1
       1      27      26       1       1      27      26       1       1      27
      26       1       1      27      26       1       1      27      26       1
       1      27      26       1       1      27      26       1       1      27
      26       1       1      27      26       1       1      27      26       1
       1      27      26       1       1      27      26       1       1      27
      26       1       1      27      26       1       1      27      26       1
       1      27      26       1       1      27      26       1       1      27
      26       1       1      27      26       1       1      27      26       1
       1      27      26       1       1      27      26       1       1      27
      26       1       1      27      26       1       1      27      26       1
       1      27      26       1       1      27      26       1       1      27
      26       1       1      27      26       1       1      27      26       1
       1      27      26       1       1      27      26       1       1      27
      26       1       1      27      26       1       1      27      26       1
       1      27      26       1       1      27      26       1       1      27
      26       1       1      27      26       1       1      27      26       1
       1      27      26       1       1      27      26       1       1      27
      26       1       1      27      26       1       1      27      26       1
       1      27      26       1       1      27      26       1       1      27
      26       1       1      27      26       1       1      27      26       1
       1      27      26       1       1      27      26       1       1      27
      26       1       1      27      26       1       1      27      26       1
       1      27      26       1       1      27      26       1       1      27
      26       1       1      27      26       1       1      27      26       1
       1      27      26       1       1      27      26       1       1      27
      26       1       1      27      26       1       1      27      26       1
       1      27      26       1       1      27      26       1       1      27
      26       1       1      27      26       1       1      27      26       1
       1      27      26       1       1      27      26       1       1      27
      26       1       1      27      26       1       1      27      26       1
       1      27      26       1       1      27      26       1       1      27
      26       1       1      27      26       1       1      27      26       1
       1      27      26       1       1      27      26       1       1      27
      26       1       1      27      26       1       1      27      26       1
       1      27      26       1       1      27      26       1       1      27
      26       1       1      27      26       1       1      27      26       1
       1      27      26       1       1      27      26       1       1      27
      26       1       1      27      26       1       1      27      26       1
       1      27      26       1       1      27      26       1       1      27
      26       1       1      27      26       1       1      27      26       1
       1      27      26       1       1      27      26       1       1      27
      26       1       1      27      26       1       1      27      26       1
       1      27      26       1       1      27      26       1       1      27
      26       1       1      27      26       1       1      27      26       1
       1      27      26       1       1      27      26       1       1      27
      26       1       1      27      26       1       1      27      26       1
       1      27      26       1       1      27      26       1       1      27
      26       1       1      27      26       1       1      27      26       1
       1      27      26       1       1      27      26       1       1      27
      26       1       1      27      26       1       1      27      26       1
       1      27      26       1       1      27      26       1       1      27
      26       1       1      27      26       1       1      27      26       1
       1      27      26       1       1      27      26       1       1      27
      26       1       1      27      26       1       1      27      26       1
       1      27      26       1       1      27      26       1       1      27
      26       1       1      27      26       1       1      27      26       1
       1      27      26       1       1      27      26       1       1      27
      26       1       1      27      26       1       1      27      26       1
       1      27      26       1       1      27      26       1       1      27
      26       1       1      27      26       1       1      27      26       1
       1      27      26       1       1      27      26       1       1      27
      26       1       1      27      26       1       1      27      26       1
       1      27      26       1       1      27      26       1       1      27
      26       1       1      27      26       1       1      27      26       1
       1      27      26       1       1      27      26       1       1      27
      26       1       1      27      26       1       1      27      26       1
       1      27      26       1       1      27      26       1       1      27
      26       1       1      27      26       1       1      27      26       1
       1      27      26       1       1      27      26       1       1      27
      26       1       1      27      26       1       1      27      26       1
       1      27      26       1       1      27      26       1       1      27
      26       1       1      27      26       1       1      27      26       1
       1      27      26       1       1      27      26       1       1      27
      26       1       1      27      26       1       1      27      26       1
       1      27      26       1       1      27      26       1       1      27
      26       1       1      27      26       1       1      27      26       1
       1      27      26       1       1      27      26       1       1      27
      26       1       1      27      26       1       1      27      26       1
       1      27      26       1       1      27      26       1       1      27
      26       1       1      27      26       1       1      27      26       1
       1      27      26       1       1      27      26       1       1      27
      26       1       1      27      26       1       1      27      26       1
       1      27      26       1       1      27      26       1       1      27
      26       1       1      27      26       1       1      27      26       1
       1      27      26       1       1      27      26       1       1      27
      26       1       1      27      26       1       1      27      26       1
       1      27      26       1       1      27      26       1       1      27
      26       1       1      27      26       1       1      27      26       1
       1      27      26       1       1      27      26       1       1      27
      26       1       1      27      26       1       1      27      26       1
       1      27      26       1       1      27      26       1       1      27
      26       1       1      27      26       1       1      27      26       1
       1      27      26       1       1      27      26       1       1      27
      26       1       1      27      26       1       1      27      26       1
       1      27      26       1       1      27      26       1       1      27
      26       1       1      27      26       1       1      27      26       1
       1      27      26       1       1      27      26       1       1      27
      26       1       1      27      26       1       1      27      26       1
       1      27      26       1       1      27      26       1       1      27
      26       1       1      27      26       1       1      27      26       1
       1      27      26       1       1      27      26       1       1      27
      26       1       1      27      26       1       1      27      26       1
       1      27      26       1       1      27      26       1       1      27
      26       1       1      27      26       1       1      27      26       1
       1      27      26       1       1      27      26       1       1      27
      26       1       1      27      26       1       1      27      26       1
       1      27      26       1       1      27      26       1       1      27
      26       1       1      27      26       1       1      27      26       1
       1      27      26       1       1      27      26       1       1      27
      26       1       1      27      26       1       1      27      26       1
       1      27      26       1       1      27      26       1       1      27
      26       1       1      27      26       1       1      27      26       1
       1      27      26       1       1      27      26       1       1      27
      26       1       1      27      26       1       1      27      26       1
       1      27      26       1       1      27      26       1       1      27
      26       1       1      27      26       1       1      27      26       1
       1      27      26       1       1      27      26       1       1      27
      26       1       1      27      26       1       1      27      26       1
       1      27      26       1       1      27      26       1       1      27
      26       1       1      27      26       1       1      27      26       1
       1      27      26       1       1      27      26       1       1      27
      26       1       1      27      26       1       1      27      26       1
       1      27      26       1       1      27      26       1       1      27
      26       1       1      27      26       1       1      27      26       1
       1      27      26       1       1      27      26       1       1      27
      26       1       1      27      26       1       1      27      26       1
       1      27      26       1       1      27      26       1       1      27
      26       1       1      27      26       1       1      27      26       1
       1      27      26       1       1      27      26       1       1      27
      26       1       1      27      26       1       1      27      26       1
       1      27      26       1       1      27      26       1       1      27
      26       1       1      27      26       1       1      27      26       1
       1      27      26       1       1      27      26       1       1      27
      26       1       1      27      26       1       1      27      26       1
       1      27      26       1       1      27      26       1       1      27
      26       1       1      27      26       1       1      27      26       1
       1      27      26       1       1      27      26       1       1      27
      26       1       1      27      26       1       1      27      26       1
       1      27      26       1       1      27      26       1       1      27
      26       1       1      27      26       1       1      27      26       1
       1      27      26       1       1      27      26       1       1      27
      26       1       1      27      26       1       1      27      26       1
       1      27      26       1       1      27      26       1       1      27
      26       1       1      27      26       1       1      27      26       1
       1      27      26       1       1      27      26       1       1      27
      26       1       1      27      26       1       1      27      26       1
       1      27      26       1       1      27      26       1       1      27
      26       1       1      27      26       1       1      27      26       1
       1      27      26       1       1      27      26       1       1      27
      26       1       1      27      26       1       1      27      26       1
       1      27      26       1       1      27      26       1       1      27
      26       1       1      27      26       1       1      27      26       1
       1      27      26       1       1      27      26       1       1      27
      26       1       1      27      26       1       1      27      26       1
       1      27      26       1       1      27      26       1       1      27
      26       1       1      27      26       1       1      27      26       1
       1      27      26       1       1      27      26       1       1      27
      26       1       1      27      26       1       1      27      26       1
       1      27      26       1       1      27      26       1       1      27
      26       1       1      27      26       1       1      27      26       1
       1      27      26       1       1      27      26       1       1      27
      26       1       1      27      26       1       1      27      26       1
       1      27      26       1       1      27      26       1       1      27
      26       1       1      27      26       1       1      27      26       1
       1      27      26       1       1      27      26       1       1      27
      26       1       1      27      26       1       1      27      26       1
       1      27      26       1       1      27      26       1       1      27
      26       1       1      27      26       1       1      27      26       1
       1      27      26       1       1      27      26       1       1      27
      26       1       1      27      26       1       1      27      26       1
       1      27      26       1       1      27      26       1       1      27
      26       1       1      27      26       1       1      27      26       1
       1      27      26       1       1      27      26       1       1      27
      26       1       1      27      26       1       1      27      26       1
       1      27      26       1       1      27      26       1       1      27
      26       1       1      27      26       1       1      27      26       1
       1      27      26       1       1      27      26       1       1      27
      26       1       1      27      26       1       1      27      26       1
       1      27      26       1       1      27      26       1       1      27
      26       1       1      27      26       1       1      27      26       1
       1      27      26       1       1      27      26       1       1      27
      26       1       1      27      26       1       1      27      26       1
       1      27      26       1       1      27      26       1       1      27
      26       1       1      27      26       1       1      27      26       1
       1      27      26       1       1      27      26       1       1      27
      26       1       1      27      26       1       1      27      26       1
       1      27      26       1       1      27      26       1       1      27
      26       1       1      27      26       1       1      27      26       1
       1      27      26       1       1      27      26       1       1      27
      26       1       1      27      26       1       1      27      26       1
       1      27      26       1       1      27      26       1       1      27
      26       1       1      27      26       1       1      27      26       1
       1      27      26       1       1      27      26       1       1      27
      26       1       1      27      26       1       1      27      26       1
       1      27      26       1       1      27      26       1       1      27
      26       1       1      27      26       1       1      27      26       1
       1      27      26       1       1      27      26       1       1      27
      26       1       1      27      26       1       1      27      26       1
       1      27      26       1       1      27      26       1       1      27
      26       1       1      27      26       1       1      27      26       1
       1      27      26       1       1      27      26       1       1      27
      26       1       1      27      26       1       1      27      26       1
       1      27      26       1       1      27      26       1       1      27
      26       1       1      27      26       1       1      27      26       1
       1      27      26       1       1      27      26       1       1      27
      26       1       1      27      26       1       1      27      26       1
       1      27      26       1       1      27      26       1       1      27
      26       1       1      27      26       1       1      27      26       1
       1      27      26       1       1      27      26       1       1      27
      26       1       1      27      26       1       1      27      26       1
       1      27      26       1       1      27      26       1       1      27
      26       1       1      27      26       1       1      27      26       1
       1      27      26       1       1      27      26       1       1      27
      26       1       1      27      26       1       1      27      26       1
       1      27      26       1       1      27      26       1       1      27
      26       1       1      27      26       1       1      27      26       1
       1      27      26       1       1      27      26       1       1      27
      26       1       1      27      26       1       1      27      26       1
       1      27      26       1       1      27      26       1       1      27
      26       1       1      27      26       1       1      27      26       1
       1      27      26       1       1      27      26       1       1      27
      26       1       1      27      26       1       1      27      26       1
       1      27      26       1       1      27      26       1       1      27
      26       1       1      27      26       1       1      27      26       1
       1      27      26       1       1      27      26       1       1      27
      26       1       1      27      26       1       1      27      26       1
       1      27      26       1       1      27      26       1       1      27
      26       1       1      27      26       1       1      27      26       1
       1      27      26       1       1      27      26       1       1      27
      26       1       1      27      26       1       1      27      26       1
       1      27      26       1       1      27      26       1       1      27
      26       1       1      27      26       1       1      27      26       1
       1      27      26       1       1      27      26       1       1      27
      26       1       1      27      26       1       1      27      26       1
       1      27      26       1       1      27      26       1       1      27
      26       1       1      27      26       1       1      27      26       1
       1      27      26       1       1      27      26       1       1      27
      26       1       1      27      26       1       1      27      26       1
       1      27      26       1       1      27      26       1       1      27
      26       1       1      27      26       1       1      27      26       1
       1      27      26       1       1      27      26       1       1      27
      26       1       1      27      26       1       1      27      26       1
       1      27      26       1       1      27      26       1       1      27
      26       1       1      27      26       1       1      27      26       1
       1      27      26       1       1      27      26       1       1      27
      26       1       1      27      26       1       1      27      26       1
       1      27      26       1       1      27      26       1       1      27
      26       1       1      27      26       1       1      27      26       1
       1      27      26       1       1      27      26       1       1      27
      26       1       1      27      26       1       1      27      26       1
       1      27      26       1       1      27      26       1       1      27
      26       1       1      27      26       1       1      27      26       1
       1      27      26       1       1      27      26       1       1      27
      26       1       1      27      26       1       1      27      26       1
       1      27      26       1       1      27      26       1       1      27
      26       1       1      27      26       1       1      27      26       1
       1      27      26       1       1      27      26       1       1      27
      26       1       1      27      26       1       1      27      26       1
       1      27      26       1       1      27      26       1       1      27
      26       1       1      27      26       1       1      27      26       1
       1      27      26       1       1      27      26       1       1      27
      26       1       1      27      26       1       1      27      26       1
       1      27      26       1       1      27      26       1       1      27
      26       1       1      27      26       1       1      27      26       1
       1      27      26       1       1      27      26       1       1      27
      26       1       1      27      26       1       1      27      26       1
       1      27      26       1       1      27      26       1       1      27
      26       1       1      27      26       1       1      27      26       1
       1      27      26       1       1      27      26       1       1      27
      26       1       1      27      26       1       1      27      26       1
       1      27      26       1       1      27      26       1       1      27
      26       1       1      27      26       1       1      27      26       1
       1      27      26       1       1      27      26       1       1      27
      26       1       1      27      26       1       1      27      26       1
       1      27      26       1       1      27      26       1       1      27
      26       1       1      27      26       1       1      27      26       1
       1      27      26       1       1      27      26       1       1      27
      26       1       1      27      26       1       1      27      26       1
       1      27      26       1       1      27      26       1       1      27
      26       1       1      27      26       1       1      27      26       1
       1      27      26       1       1      27      26       1       1      27
      26       1       1      27      26       1       1      27      26       1
       1      27      26       1       1      27      26       1       1      27
      26       1       1      27      26       1       1      27      26       1
       1      27      26       1       1      27      26       1       1      27
      26       1       1      27      26       1       1      27      26       1
       1      27      26       1       1      27      26       1       1      27
      26       1       1      27      26       1       1      27      26       1
       1      27      26       1       1      27      26       1       1      27
      26       1       1      27      26       1       1      27      26       1
       1      27      26       1       1      27      26       1       1      27
      26       1       1      27      26       1       1      27      26       1
       1      27      26       1       1      27      26       1       1      27
      26       1       1      27      26       1       1      27      26       1
       1      27      26       1       1      27      26       1       1      27
      26       1       1      27      26       1       1      27      26       1
       1      27      26       1       1      27      26       1       1      27
      26       1       1      27      26       1       1      27      26       1
       1      27      26       1       1      27      26       1       1      27
      26       1       1      27      26       1       1      27      26       1
       1      27      26       1       1      27      26       1       1      27
      26       1       1      27      26       1       1      27      26       1
       1      27      26       1       1      27      26       1       1      27
      26       1       1      27      26       1       1      27      26       1
       1      27      26       1       1      27      26       1       1      27
      26       1       1      27      26       1       1      27      26       1
       1      27      26       1       1      27      26       1       1      27
      26       1       1      27      26       1       1      27      26       1
       1      27      26       1       1      27      26       1       1      27
      26       1       1      27      26       1       1      27      26       1
       1      27      26       1       1      27      26       1       1      27
      26       1       1      27      26       1       1      27      26       1
       1      27      26       1       1      27      26       1       1      27
      26       1       1      27      26       1       1      27      26       1
       1      27      26       1       1      27      26       1       1      27
      26       1       1      27      26       1       1      27      26       1
       1      27      26       1       1      27      26       1       1      27
      26       1       1      27      26       1       1      27      26       1
       1      27      26       1       1      27      26       1       1      27
      26       1       1      27      26       1       1      27      26       1
       1      27      26       1       1      27      26       1       1      27
      26       1       1      27      26       1       1      27      26       1
       1      27      26       1       1      27      26       1       1      27
      26       1       1      27      26       1       1      27      26       1
       1      27      26       1       1      27      26       1       1      27
      26       1       1      27      26       1       1      27      26       1
       1      27      26       1       1      27      26       1       1      27
      26       1       1      27      26       1       1      27      26       1
       1      27      26       1       1      27      26       1       1      27
      26       1       1      27      26       1       1      27      26       1
       1      27      26       1       1      27      26       1       1      27
      26       1       1      27      26       1       1      27      26       1
       1      27      26       1       1      27      26       1       1      27
      26       1       1      27      26       1       1      27      26       1
       1      27      26       1       1      27      26       1       1      27
      26       1       1      27      26       1       1      27      26       1
       1      27      26       1       1      27      26       1       1      27
      26       1       1      27      26       1       1      27      26       1
       1      27      26       1       1      27      26       1       1      27
      26       1       1      27      26       1       1      27      26       1
       1      27      26       1       1      27      26       1       1      27
      26       1       1      27      26       1       1      27      26       1
       1      27      26       1       1      27      26       1       1      27
      26       1       1      27      26       1       1      27      26       1
       1      27      26       1       1      27      26       1       1      27
      26       1       1      27      26       1       1      27      26       1
       1      27      26       1       1      27      26       1       1      27
      26       1       1      27      26       1       1      27      26       1
       1      27      26       1       1      27      26       1       1      27
      26       1       1      27      26       1       1      27      26       1
       1      27      26       1       1      27      26       1       1      27
      26       1       1      27      26       1       1      27      26       1
       1      27      26       1       1      27      26       1       1      27
      26       1       1      27      26       1       1      27      26       1
       1      27      26       1       1      27      26       1       1      27
      26       1       1      27      26       1       1      27      26       1
       1      27      26       1       1      27      26       1       1      27
      26       1       1      27      26       1       1      27      26       1
       1      27      26       1       1      27      26       1       1      27
      26       1       1      27      26       1       1      27      26       1
       1      27      26       1       1      27      26       1       1      27
      26       1       1      27      26       1       1      27      26       1
       1      27      26       1       1      27      26       1       1      27
      26       1       1      27      26       1       1      27      26       1
       1      27      26       1       1      27      26       1       1      27
      26       1       1      27      26       1       1      27      26       1
       1      27      26       1       1      27      26       1       1      27
      26       1       1      27      26       1       1      27      26       1
       1      27      26       1       1      27      26       1       1      27
      26       1       1      27      26       1       1      27      26       1
       1      27      26       1       1      27      26       1       1      27
      26       1       1      27      26       1       1      27      26       1
       1      27      26       1       1      27      26       1       1      27
      26       1       1      27      26       1       1      27      26       1
       1      27      26       1       1      27      26       1       1      27
      26       1       1      27      26       1       1      27      26       1
       1      27      26       1       1      27      26       1       1      27
      26       1       1      27      26       1       1      27      26       1
       1      27      26       1       1      27      26       1       1      27
      26       1       1      27      26       1       1      27      26       1
       1      27      26       1       1      27      26       1       1      27
      26       1       1      27      26       1       1      27      26       1
       1      27      26       1       1      27      26       1       1      27
      26       1       1      27      26       1       1      27      26       1
       1      27      26       1       1      27      26       1       1      27
      26       1       1      27      26       1       1      27      26       1
       1      27      26       1       1      27      26       1       1      27
      26       1       1      27      26       1       1      27      26       1
       1      27      26       1       1      27      26       1       1      27
      26       1       1      27      26       1       1      27      26       1
       1      27      26       1       1      27      26       1       1      27
      26       1       1      27      26       1       1      27      26       1
       1      27      26       1       1      27      26       1       1      27
      26       1       1      27      26       1       1      27      26       1
       1      27      26       1       1      27      26       1       1      27
      26       1       1      27      26       1       1      27      26       1
       1      27      26       1       1      27      26       1       1      27
      26       1       1      27      26       1       1      27      26       1
       1      27      26       1       1      27      26       1       1      27
      26       1       1      27      26       1       1      27      26       1
       1      27      26       1       1      27      26       1       1      27
      26       1       1      27      26       1       1      27      26       1
       1      27      26       1       1      27      26       1       1      27
      26       1       1      27      26       1       1      27      26       1
       1      27      26       1       1      27      26       1       1      27
      26       1       1      27      26       1       1      27      26       1
       1      27      26       1       1      27      26       1       1      27
      26       1       1      27      26       1       1      27      26       1
       1      27      26       1       1      27      26       1       1      27
      26       1       1      27      26       1       1      27      26       1
       1      27      26       1       1      27      26       1       1      27
      26       1       1      27      26       1       1      27      26       1
       1      27      26       1       1      27      26       1       1      27
      26       1       1      27      26       1       1      27      26       1
       1      27      26       1       1      27      26       1       1      27
      26       1       1      27      26       1       1      27      26       1
       1      27      26       1       1      27      26       1       1      27
      26       1       1      27      26       1       1      27      26       1
       1      27      26       1       1      27      26       1       1      27
      26       1       1      27      26       1       1      27      26       1
       1      27      26       1       1      27      26       1       1      27
      26       1       1      27      26       1       1      27      26       1
       1      27      26       1       1      27      26       1       1      27
      26       1       1      27      26       1       1      27      26       1
       1      27      26       1       1      27      26       1       1      27
      26       1       1      27      26       1       1      27      26       1
       1      27      26       1       1      27      26       1       1      27
      26       1       1      27      26       1       1      27      26       1
       1      27      26       1       1      27      26       1       1      27
      26       1       1      27      26       1       1      27      26       1
       1      27      26       1       1      27      26       1       1      27
      26       1       1      27      26       1       1      27      26       1
       1      27      26       1       1      27      26       1       1      27
      26       1       1      27      26       1       1      27      26       1
       1      27      26       1       1      27      26       1       1      27
      26       1       1      27      26       1       1      27      26       1
       1      27      26       1       1      27      26       1       1      27
      26       1       1      27      26       1       1      27      26       1
       1      27      26       1       1      27      26       1       1      27
      26       1       1      27      26       1       1      27      26       1
       1      27      26       1       1      27      26       1       1      27
      26       1       1      27      26       1       1      27      26       1
       1      27      26       1       1      27      26       1       1      27
      26       1       1      27      26       1       1      27      26       1
       1      27      26       1       1      27      26       1       1      27
      26       1       1      27      26       1       1      27      26       1
       1      27      26       1       1      27      26       1       1      27
      26       1       1      27      26       1       1      27      26       1
       1      27      26       1       1      27      26       1       1      27
      26       1       1      27      26       1       1      27      26       1
       1      27      26       1       1      27      26       1       1      27
      26       1       1      27      26       1       1      27      26       1
       1      27      26       1       1      27      26       1       1      27
      26       1       1      27      26       1       1      27      26       1
       1      27      26       1       1      27      26       1       1      27
      26       1       1      27      26       1       1      27      26       1
       1      27      26       1       1      27      26       1       1      27
      26       1       1      27      26       1       1      27      26       1
       1      27      26       1       1      27      26       1       1      27
      26       1       1      27      26       1       1      27      26       1
       1      27      26       1       1      27      26       1       1      27
      26       1       1      27      26       1       1      27      26       1
       1      27      26       1       1      27      26       1       1      27
      26       1       1      27      26       1       1      27      26       1
       1      27      26       1       1      27      26       1       1      27
      26       1       1      27      26       1       1      27      26       1
       1      27      26       1       1      27      26       1       1      27
      26       1       1      27      26       1       1      27      26       1
       1      27      26       1       1      27      26       1       1      27
      26       1       1      27      26       1       1      27      26       1
       1      27      26       1       1      27      26       1       1      27
      26       1       1      27      26       1       1      27      26       1
       1      27      26       1       1      27      26       1       1      27
      26       1       1      27      26       1       1      27      26       1
       1      27      26       1       1      27      26       1       1      27
      26       1       1      27      26       1       1      27      26       1
       1      27      26       1       1      27      26       1       1      27
      26       1       1      27      26       1       1      27      26       1
       1      27      26       1       1      27      26       1       1      27
      26       1       1      27      26       1       1      27      26       1
       1      27      26       1       1      27      26       1       1      27
      26       1       1      27      26       1       1      27      26       1
       1      27      26       1       1      27      26       1       1      27
      26       1       1      27      26       1       1      27      26       1
       1      27      26       1       1      27      26       1       1      27
      26       1       1      27      26       1       1      27      26       1
       1      27      26       1       1      27      26       1       1      27
      26       1       1      27      26       1       1      27      26       1
       1      27      26       1       1      27      26       1       1      27
      26       1       1      27      26       1       1      27      26       1
       1      27      26       1       1      27      26       1       1      27
      26       1       1      27      26       1       1      27      26       1
       1      27      26       1       1      27      26       1       1      27
      26       1       1      27      26       1       1      27      26       1
       1      27      26       1       1      27      26       1       1      27
      26       1       1      27      26       1       1      27      26       1
       1      27      26       1       1      27      26       1       1      27
      26       1       1      27      26       1       1      27      26       1
       1      27      26       1       1      27      26       1       1      27
      26       1       1      27      26       1       1      27      26       1
       1      27      26       1       1      27      26       1       1      27
      26       1       1      27      26       1       1      27      26       1
       1      27      26       1       1      27      26       1       1      27
      26       1       1      27      26       1       1      27      26       1
       1      27      26       1       1      27      26       1       1      27
      26       1       1      27      26       1       1      27      26       1
       1      27      26       1       1      27      26       1       1      27
      26       1       1      27      26       1       1      27      26       1
       1      27      26       1       1      27      26       1       1      27
      26       1       1      27      26       1       1      27      26       1
       1      27      26       1       1      27      26       1       1      27
      26       1       1      27      26       1       1      27      26       1
       1      27      26       1       1      27      26       1       1      27
      26       1       1      27      26       1       1      27      26       1
       1      27      26       1       1      27      26       1       1      27
      26       1       1      27      26       1       1      27      26       1
       1      27      26       1       1      27      26       1       1      27
      26       1       1      27      26       1       1      27      26       1
       1      27      26       1       1      27      26       1       1      27
      26       1       1      27      26       1       1      27      26       1
       1      27      26       1       1      27      26       1       1      27
      26       1       1      27      26       1       1      27      26       1
       1      27      26       1       1      27      26       1       1      27
      26       1       1      27      26       1       1      27      26       1
       1      27      26       1       1      27      26       1       1      27
      26       1       1      27      26       1       1      27      26       1
       1      27      26       1       1      27      26       1       1      27
      26       1       1      27      26       1       1      27      26       1
       1      27      26       1       1      27      26       1       1      27
      26       1       1      27      26       1       1      27      26       1
       1      27      26       1       1      27      26       1       1      27
      26       1       1      27      26       1       1      27      26       1
       1      27      26       1       1      27      26       1       1      27
      26       1       1      27      26       1       1      27      26       1
       1      27      26       1       1      27      26       1       1      27
      26       1       1      27      26       1       1      27      26       1
       1      27      26       1       1      27      26       1       1      27
      26       1       1      27      26       1       1      27      26       1
       1      27      26       1       1      27      26       1       1      27
      26       1       1      27      26       1       1      27      26       1
       1      27      26       1       1      27      26       1       1      27
      26       1       1      27      26       1       1      27      26       1
       1      27      26       1       1      27      26       1       1      27
      26       1       1      27      26       1       1      27      26       1
       1      27      26       1       1      27      26       1       1      27
      26       1       1      27      26       1       1      27      26       1
       1      27      26       1       1      27      26       1       1      27
      26       1       1      27      26       1       1      27      26       1
       1      27      26       1       1      27      26       1       1      27
      26       1       1      27      26       1       1      27      26       1
       1      27      26       1       1      27      26       1       1      27
      26       1       1      27      26       1       1      27      26       1
       1      27      26       1       1      27      26       1       1      27
      26       1       1      27      26       1       1      27      26       1
       1      27      26       1       1      27      26       1       1      27
      26       1       1      27      26       1       1      27      26       1
       1      27      26       1       1      27      26       1       1      27
      26       1       1      27      26       1       1      27      26       1
       1      27      26       1       1      27      26       1       1      27
      26       1       1      27      26       1       1      27      26       1
       1      27      26       1       1      27      26       1       1      27
      26       1       1      27      26       1       1      27      26       1
       1      27      26       1       1      27      26       1       1      27
      26       1       1      27      26       1       1      27      26       1
       1      27      26       1       1      27      26       1       1      27
      26       1       1      27      26       1       1      27      26       1
       1      27      26       1       1      27      26       1       1      27
      26       1       1      27      26       1       1      27      26       1
       1      27      26       1       1      27      26       1       1      27
      26       1       1      27      26       1       1      27      26       1
       1      27      26       1       1      27      26       1       1      27
      26       1       1      27      26       1       1      27      26       1
       1      27      26       1       1      27      26       1       1      27
      26       1       1      27      26       1       1      27      26       1
       1      27      26       1       1      27      26       1       1      27
      26       1       1      27      26       1       1      27      26       1
       1      27      26       1       1      27      26       1       1      27
      26       1       1      27      26       1       1      27      26       1
       1      27      26       1       1      27      26       1       1      27
      26       1       1      27      26       1       1      27      26       1
       1      27      26       1       1      27      26       1       1      27
      26       1       1      27      26       1       1      27      26       1
       1      27      26       1       1      27      26       1       1      27
      26       1       1      27      26       1       1      27      26       1
       1      27      26       1       1      27      26       1       1      27
      26       1       1      27      26       1       1      27      26       1
       1      27      26       1       1      27      26       1       1      27
      26       1       1      27      26       1       1      27      26       1
       1      27      26       1       1      27      26       1       1      27
      26       1       1      27      26       1       1      27      26       1
       1      27      26       1       1      27      26       1       1      27
      26       1       1      27      26       1       1      27      26       1
       1      27      26       1       1      27      26       1       1      27
      26       1       1      27      26       1       1      27      26       1
       1      27      26       1       1      27      26       1       1      27
      26       1       1      27      26       1       1      27      26       1
       1      27      26       1       1      27      26       1       1      27
      26       1       1      27      26       1       1      27      26       1
       1      27      26       1       1      27      26       1       1      27
      26       1       1      27      26       1       1      27      26       1
       1      27      26       1       1      27      26       1       1      27
      26       1       1      27      26       1       1      27      26       1
       1      27      26       1       1      27      26       1       1      27
      26       1       1      27      26       1       1      27      26       1
       1      27      26       1       1      27      26       1       1      27
      26       1       1      27      26       1       1      27      26       1
       1      27      26       1       1      27      26       1       1      27
      26       1       1      27      26       1       1      27      26       1
       1      27      26       1       1      27      26       1       1      27
      26       1       1      27      26       1       1      27      26       1
       1      27      26       1       1      27      26       1       1      27
      26       1       1      27      26       1       1      27      26       1
       1      27      26       1       1      27      26       1       1      27
      26       1       1      27      26       1       1      27      26       1
       1      27      26       1       1      27      26       1       1      27
      26       1       1      27      26       1       1      27      26       1
       1      27      26       1       1      27      26       1       1      27
      26       1       1      27      26       1       1      27      26       1
       1      27      26       1       1      27      26       1       1      27
      26       1       1      27      26       1       1      27      26       1
       1      27      26       1       1      27      26       1       1      27
      26       1       1      27      26       1       1      27      26       1
       1      27      26       1       1      27      26       1       1      27
      26       1       1      27      26       1       1      27      26       1
       1      27      26       1       1      27      26       1       1      27
      26       1       1      27      26       1       1      27      26       1
       1      27      26       1       1      27      26       1       1      27
      26       1       1      27      26       1       1      27      26       1
       1      27      26       1       1      27      26       1       1      27
      26       1       1      27      26       1       1      27      26       1
       1      27      26       1       1      27      26       1       1      27
      26       1       1      27      26       1       1      27      26       1
       1      27      26       1       1      27      26       1       1      27
      26       1       1      27      26       1       1      27      26       1
       1      27      26       1       1      27      26       1       1      27
      26       1       1      27      26       1       1      27      26       1
       1      27      26       1       1      27      26       1       1      27
      26       1       1      27      26       1       1      27      26       1
       1      27      26       1       1      27      26       1       1      27
      26       1       1      27      26       1       1      27      26       1
       1      27      26       1       1      27      26       1       1      27
      26       1       1      27      26       1       1      27      26       1
       1      27      26       1       1      27      26       1       1      27
      26       1       1      27      26       1       1      27      26       1
       1      27      26       1       1      27      26       1       1      27
      26       1       1      27      26       1       1      27      26       1
       1      27      26       1       1      27      26       1       1      27
      26       1       1      27      26       1       1      27      26       1
       1      27      26       1       1      27      26       1       1      27
      26       1       1      27      26       1       1      27      26       1
       1      27      26       1       1      27      26       1       1      27
      26       1       1      27      26       1       1      27      26       1
       1      27      26       1       1      27      26       1       1      27
      26       1       1      27      26       1       1      27      26       1
       1      27      26       1       1      27      26       1       1      27
      26       1       1      27      26       1       1      27      26       1
       1      27      26       1       1      27      26       1       1      27
      26       1       1      27      26       1       1      27      26       1
       1      27      26       1       1      27      26       1       1      27
      26       1       1      27      26       1       1      27      26       1
       1      27      26       1       1      27      26       1       1      27
      26       1       1      27      26       1       1      27      26       1
       1      27      26       1       1      27      26       1       1      27
      26       1       1      27      26       1       1      27      26       1
       1      27      26       1       1      27      26       1       1      27
      26       1       1      27      26       1       1      27      26       1
       1      27      26       1       1      27      26       1       1      27
      26       1       1      27      26       1       1      27      26       1
       1      27      26       1       1      27      26       1       1      27
      26       1       1      27      26       1       1      27      26       1
       1      27      26       1       1      27      26       1       1      27
      26       1       1      27      26       1       1      27      26       1
       1      27      26       1       1      27      26       1       1      27
      26       1       1      27      26       1       1      27      26       1
       1      27      26       1       1      27      26       1       1      27
      26       1       1      27      26       1       1      27      26       1
       1      27      26       1       1      27      26       1       1      27
      26       1       1      27      26       1       1      27      26       1
       1      27      26       1       1      27      26       1       1      27
      26       1       1      27      26       1       1      27      26       1
       1      27      26       1       1      27      26       1       1      27
      26       1       1      27      26       1       1      27      26       1
       1      27      26       1       1      27      26       1       1      27
      26       1       1      27      26       1       1      27      26       1
       1      27      26       1       1      27      26       1       1      27
      26       1       1      27      26       1       1      27      26       1
       1      27      26       1       1      27      26       1       1      27
      26       1       1      27      26       1       1      27      26       1
       1      27      26       1       1      27      26       1       1      27
      26       1       1      27      26       1       1      27      26       1
       1      27      26       1       1      27      26       1       1      27
      26       1       1      27      26       1       1      27      26       1
       1      27      26       1       1      27      26       1       1      27
      26       1       1      27      26       1       1      27      26       1
       1      27      26       1       1      27      26       1       1      27
      26       1       1      27      26       1       1      27      26       1
       1      27      26       1       1      27      26       1       1      27
      26       1       1      27      26       1       1      27      26       1
       1      27      26       1       1      27      26       1       1      27
      26       1       1      27      26       1       1      27      26       1
       1      27      26       1       1      27      26       1       1      27
      26       1       1      27      26       1       1      27      26       1
       1      27      26       1       1      27      26       1       1      27
      26       1       1      27      26       1       1      27      26       1
       1      27      26       1       1      27      26       1       1      27
      26       1       1      27      26       1       1      27      26       1
       1      27      26       1       1      27      26       1       1      27
      26       1       1      27      26       1       1      27      26       1
       1      27      26       1       1      27      26       1       1      27
      26       1       1      27      26       1       1      27      26       1
       1      27      26       1       1      27      26       1       1      27
      26       1       1      27      26       1       1      27      26       1
       1      27      26       1       1      27      26       1       1      27
      26       1       1      27      26       1       1      27      26       1
       1      27      26       1       1      27      26       1       1      27
      26       1       1      27      26       1       1      27      26       1
       1      27      26       1       1      27      26       1       1      27
      26       1       1      27      26       1       1      27      26       1
       1      27      26       1       1      27      26       1       1      27
      26       1       1      27      26       1       1      27      26       1
       1      27      26       1       1      27      26       1       1      27
      26       1       1      27      26       1       1      27      26       1
       1      27      26       1       1      27      26       1       1      27
      26       1       1      27      26       1       1      27      26       1
       1      27      26       1       1      27      26       1       1      27
      26       1       1      27      26       1       1      27      26       1
       1      27      26       1       1      27      26       1       1      27
      26       1       1      27      26       1       1      27      26       1
       1      27      26       1       1      27      26       1       1      27
      26       1       1      27      26       1       1      27      26       1
       1      27      26       1       1      27      26       1       1      27
      26       1       1      27      26       1       1      27      26       1
       1      27      26       1       1      27      26       1       1      27
      26       1       1      27      26       1       1      27      26       1
       1      27      26       1       1      27      26       1       1      27
      26       1       1      27      26       1       1      27      26       1
       1      27      26       1       1      27      26       1       1      27
      26       1       1      27      26       1       1      27      26       1
       1      27      26       1       1      27      26       1       1      27
      26       1       1      27      26       1       1      27      26       1
       1      27      26       1       1      27      26       1       1      27
      26       1       1      27      26       1       1      27      26       1
       1      27      26       1       1      27      26       1       1      27
      26       1       1      27      26       1       1      27      26       1
       1      27      26       1       1      27      26       1       1      27
      26       1       1      27      26       1       1      27      26       1
       1      27      26       1       1      27      26       1       1      27
      26       1       1      27      26       1       1      27      26       1
       1      27      26       1       1      27      26       1       1      27
      26       1       1      27      26       1       1      27      26       1
       1      27      26       1       1      27      26       1       1      27
      26       1       1      27      26       1       1      27      26       1
       1      27      26       1       1      27      26       1       1      27
      26       1       1      27      26       1       1      27      26       1
       1      27      26       1       1      27      26       1       1      27
      26       1       1      27      26       1       1      27      26       1
       1      27      26       1       1      27      26       1       1      27
      26       1       1      27      26       1       1      27      26       1
       1      27      26       1       1      27      26       1       1      27
      26       1       1      27      26       1       1      27      26       1
       1      27      26       1       1      27      26       1       1      27
      26       1       1      27      26       1       1      27      26       1
       1      27      26       1       1      27      26       1       1      27
      26       1       1      27      26       1       1      27      26       1
       1      27      26       1       1      27      26       1       1      27
      26       1       1      27      26       1       1      27      26       1
       1      27      26       1       1      27      26       1       1      27
      26       1       1      27      26       1       1      27      26       1
       1      27      26       1       1      27      26       1       1      27
      26       1       1      27      26       1       1      27      26       1
       1      27      26       1       1      27      26       1       1      27
      26       1       1      27      26       1       1      27      26       1
       1      27      26       1       1      27      26       1       1      27
      26       1       1      27      26       1       1      27      26       1
       1      27      26       1       1      27      26       1       1      27
      26       1       1      27      26       1       1      27      26       1
       1      27      26       1       1      27      26       1       1      27
      26       1       1      27      26       1       1      27      26       1
       1      27      26       1       1      27      26       1       1      27
      26       1       1      27      26       1       1      27      26       1
       1      27      26       1       1      27      26       1       1      27
      26       1       1      27      26       1       1      27      26       1
       1      27      26       1       1      27      26       1       1      27
      26       1       1      27      26       1       1      27      26       1
       1      27      26       1       1      27      26       1       1      27
      26       1       1      27      26       1       1      27      26       1
       1      27      26       1       1      27      26       1       1      27
      26       1       1      27      26       1       1      27      26       1
       1      27      26       1       1      27      26       1       1      27
      26       1       1      27      26       1       1      27      26       1
       1      27      26       1       1      27      26       1       1      27
      26       1       1      27      26       1       1      27      26       1
       1      27      26       1       1      27      26       1       1      27
      26       1       1      27      26       1       1      27      26       1
       1      27      26       1       1      27      26       1       1      27
      26       1       1      27      26       1       1      27      26       1
       1      27      26       1       1      27      26       1       1      27
      26       1       1      27      26       1       1      27      26       1
       1      27      26       1       1      27      26       1       1      27
      26       1       1      27      26       1       1      27      26       1
       1      27      26       1       1      27      26       1       1      27
      26       1       1      27      26       1       1      27      26       1
       1      27      26       1       1      27      26       1       1      27
      26       1       1      27      26       1       1      27      26       1
       1      27      26       1       1      27      26       1       1      27
      26       1       1      27      26       1       1      27      26       1
       1      27      26       1       1      27      26       1       1      27
      26       1       1      27      26       1       1      27      26       1
       1      27      26       1       1      27      26       1       1      27
      26       1       1      27      26       1       1      27      26       1
       1      27      26       1       1      27      26       1       1      27
      26       1       1      27      26       1       1      27      26       1
       1      27      26       1       1      27      26       1       1      27
      26       1       1      27      26       1       1      27      26       1
       1      27      26       1       1      27      26       1       1      27
      26       1       1      27      26       1       1      27      26       1
       1      27      26       1       1      27      26       1       1      27
      26       1       1      27      26       1       1      27      26       1
       1      27      26       1       1      27      26       1       1      27
      26       1       1      27      26       1       1      27      26       1
       1      27      26       1       1      27      26       1       1      27
      26       1       1      27      26       1       1      27      26       1
       1      27      26       1       1      27      26       1       1      27
      26       1       1      27      26       1       1      27      26       1
       1      27      26       1       1      27      26       1       1      27
      26       1       1      27      26       1       1      27      26       1
       1      27      26       1       1      27      26       1       1      27
      26       1       1      27      26       1       1      27      26       1
       1      27      26       1       1      27      26       1       1      27
      26       1       1      27      26       1       1      27      26       1
       1      27      26       1       1      27      26       1       1      27
      26       1       1      27      26       1       1      27      26       1
       1      27      26       1       1      27      26       1       1      27
      26       1       1      27      26       1       1      27      26       1
       1      27      26       1       1      27      26       1       1      27
      26       1       1      27      26       1       1      27      26       1
       1      27      26       1       1      27      26       1       1      27
      26       1       1      27      26       1       1      27      26       1
       1      27      26       1       1      27      26       1       1      27
      26       1       1      27      26       1       1      27      26       1
       1      27      26       1       1      27      26       1       1      27
      26       1       1      27      26       1       1      27      26       1
       1      27      26       1       1      27      26       1       1      27
      26       1       1      27      26       1       1      27      26       1
       1      27      26       1       1      27      26       1       1      27
      26       1       1      27      26       1       1      27      26       1
       1      27      26       1       1      27      26       1       1      27
      26       1       1      27      26       1       1      27      26       1
       1      27      26       1       1      27      26       1       1      27
      26       1       1      27      26       1       1      27      26       1
       1      27      26       1       1      27      26       1       1      27
      26       1       1      27      26       1       1      27      26       1
       1      27      26       1       1      27      26       1       1      27
      26       1       1      27      26       1       1      27      26       1
       1      27      26       1       1      27      26       1       1      27
      26       1       1      27      26       1       1      27      26       1
       1      27      26       1       1      27      26       1       1      27
      26       1       1      27      26       1       1      27      26       1
       1      27      26       1       1      27      26       1       1      27
      26       1       1      27      26       1       1      27      26       1
       1      27      26       1       1      27      26       1       1      27
      26       1       1      27      26       1       1      27      26       1
       1      27      26       1       1      27      26       1       1      27
      26       1       1      27      26       1       1      27      26       1
       1      27      26       1       1      27      26       1       1      27
      26       1       1      27      26       1       1      27      26       1
       1      27      26       1       1      27      26       1       1      27
      26       1       1      27      26       1       1      27      26       1
       1      27      26       1       1      27      26       1       1      27
      26       1       1      27      26       1       1      27      26       1
       1      27      26       1       1      27      26       1       1      27
      26       1       1      27      26       1       1      27      26       1
       1      27      26       1       1      27      26       1       1      27
      26       1       1      27      26       1       1      27      26       1
       1      27      26       1       1      27      26       1       1      27
      26       1       1      27      26       1       1      27      26       1
       1      27      26       1       1      27      26       1       1      27
      26       1       1      27      26       1       1      27      26       1
       1      27      26       1       1      27      26       1       1      27
      26       1       1      27      26       1       1      27      26       1
       1      27      26       1       1      27      26       1       1      27
      26       1       1      27      26       1       1      27      26       1
       1      27      26       1       1      27      26       1       1      27
      26       1       1      27      26       1       1      27      26       1
       1      27      26       1       1      27      26       1       1      27
      26       1       1      27      26       1       1      27      26       1
       1      27      26       1       1      27      26       1       1      27
      26       1       1      27      26       1       1      27      26       1
       1      27      26       1       1      27      26       1       1      27
      26       1       1      27      26       1       1      27      26       1
       1      27      26       1       1      27      26       1       1      27
      26       1       1      27      26       1       1      27      26       1
       1      27      26       1       1      27      26       1       1      27
      26       1       1      27      26       1       1      27      26       1
       1      27      26       1       1      27      26       1       1      27
      26       1       1      27      26       1       1      27      26       1
       1      27      26       1       1      27      26       1       1      27
      26       1       1      27      26       1       1      27      26       1
       1      27      26       1       1      27      26       1       1      27
      26       1       1      27      26       1       1      27      26       1
       1      27      26       1       1      27      26       1       1      27
      26       1       1      27      26       1       1      27      26       1
       1      27      26       1       1      27      26       1       1      27
      26       1       1      27      26       1       1      27      26       1
       1      27      26       1       1      27      26       1       1      27
      26       1       1      27      26       1       1      27      26       1
       1      27      26       1       1      27      26       1       1      27
      26       1       1      27      26       1       1      27      26       1
       1      27      26       1       1      27      26       1       1      27
      26       1       1      27      26       1       1      27      26       1
       1      27      26       1       1      27      26       1       1      27
      26       1       1      27      26       1       1      27      26       1
       1      27      26       1       1      27      26       1       1      27
      26       1       1      27      26       1       1      27      26       1
       1      27      26       1       1      27      26       1       1      27
      26       1       1      27      26       1       1      27      26       1
       1      27      26       1       1      27      26       1       1      27
      26       1       1      27      26       1       1      27      26       1
       1      27      26       1       1      27      26       1       1      27
      26       1       1      27      26       1       1      27      26       1
       1      27      26       1       1      27      26       1       1      27
      26       1       1      27      26       1       1      27      26       1
       1      27      26       1       1      27      26       1       1      27
      26       1       1      27      26       1       1      27      26       1
       1      27      26       1       1      27      26       1       1      27
      26       1       1      27      26       1       1      27      26       1
       1      27      26       1       1      27      26       1       1      27
      26       1       1      27      26       1       1      27      26       1
       1      27      26       1       1      27      26       1       1      27
      26       1       1      27      26       1       1      27      26       1
       1      27      26       1       1      27      26       1       1      27
      26       1       1      27      26       1       1      27      26       1
       1      27      26       1       1      27      26       1       1      27
      26       1       1      27      26       1       1      27      26       1
       1      27      26       1       1      27      26       1       1      27
      26       1       1      27      26       1       1      27      26       1
       1      27      26       1       1      27      26       1       1      27
      26       1       1      27      26       1       1      27      26       1
       1      27      26       1       1      27      26       1       1      27
      26       1       1      27      26       1       1      27      26       1
       1      27      26       1       1      27      26       1       1      27
      26       1       1      27      26       1       1      27      26       1
       1      27      26       1       1      27      26       1       1      27
      26       1       1      27      26       1       1      27      26       1
       1      27      26       1       1      27      26       1       1      27
      26       1       1      27      26       1       1      27      26       1
       1      27      26       1       1      27      26       1       1      27
      26       1       1      27      26       1       1      27      26       1
       1      27      26       1       1      27      26       1       1      27
      26       1       1      27      26       1       1      27      26       1
       1      27      26       1       1      27      26       1       1      27
      26       1       1      27      26       1       1      27      26       1
       1      27      26       1       1      27      26       1       1      27
      26       1       1      27      26       1       1      27      26       1
       1      27      26       1       1      27      26       1       1      27
      26       1       1      27      26       1       1      27      26       1
       1      27      26       1       1      27      26       1       1      27
      26       1       1      27      26       1       1      27      26       1
       1      27      26       1       1      27      26       1       1      27
      26       1       1      27      26       1       1      27      26       1
       1      27      26       1       1      27      26       1       1      27
      26       1       1      27      26       1       1      27      26       1
       1      27      26       1       1      27      26       1       1      27
      26       1       1      27      26       1       1      27      26       1
       1      27      26       1       1      27      26       1       1      27
      26       1       1      27      26       1       1      27      26       1
       1      27      26       1       1      27      26       1       1      27
      26       1       1      27      26       1       1      27      26       1
       1      27      26       1       1      27      26       1       1      27
      26       1       1      27      26       1       1      27      26       1
       1      27      26       1       1      27      26       1       1      27
      26       1       1      27      26       1       1      27      26       1
       1      27      26       1       1      27      26       1       1      27
      26       1       1      27      26       1       1      27      26       1
       1      27      26       1       1      27      26       1       1      27
      26       1       1      27      26       1       1      27      26       1
       1      27      26       1       1      27      26       1       1      27
      26       1       1      27      26       1       1      27      26       1
       1      27      26       1       1      27      26       1       1      27
      26       1       1      27      26       1       1      27      26       1
       1      27      26       1       1      27      26       1       1      27
      26       1       1      27      26       1       1      27      26       1
       1      27      26       1       1      27      26       1       1      27
      26       1       1      27      26       1       1      27      26       1
       1      27      26       1       1      27      26       1       1      27
      26       1       1      27      26       1       1      27      26       1
       1      27      26       1       1      27      26       1       1      27
      26       1       1      27      26       1       1      27      26       1
       1      27      26       1       1      27      26       1       1      27
      26       1       1      27      26       1       1      27      26       1
       1      27      26       1       1      27      26       1       1      27
      26       1       1      27      26       1       1      27      26       1
       1      27      26       1       1      27      26       1       1      27
      26       1       1      27      26       1       1      27      26       1
       1      27      26       1       1      27      26       1       1      27
      26       1       1      27      26       1       1      27      26       1
       1      27      26       1       1      27      26       1       1      27
      26       1       1      27      26       1       1      27      26       1
       1      27      26       1       1      27      26       1       1      27
      26       1       1      27      26       1       1      27      26       1
       1      27      26       1       1      27      26       1       1      27
      26       1       1      27      26       1       1      27      26       1
       1      27      26       1       1      27      26       1       1      27
      26       1       1      27      26       1       1      27      26       1
       1      27      26       1       1      27      26       1       1      27
      26       1       1      27      26       1       1      27      26       1
       1      27      26       1       1      27      26       1       1      27
      26       1       1      27      26       1       1      27      26       1
       1      27      26       1       1      27      26       1       1      27
      26       1       1      27      26       1       1      27      26       1
       1      27      26       1       1      27      26       1       1      27
      26       1       1      27      26       1       1      27      26       1
       1      27      26       1       1      27      26       1       1      27
      26       1       1      27      26       1       1      27      26       1
       1      27      26       1       1      27      26       1       1      27
      26       1       1      27      26       1       1      27      26       1
       1      27      26       1       1      27      26       1       1      27
      26       1       1      27      26       1       1      27      26       1
       1      27      26       1       1      27      26       1       1      27
      26       1       1      27      26       1       1      27      26       1
       1      27      26       1       1      27      26       1       1      27
      26       1       1      27      26       1       1      27      26       1
       1      27      26       1       1      27      26       1       1      27
      26       1       1      27      26       1       1      27      26       1
       1      27      26       1       1      27      26       1       1      27
      26       1       1      27      26       1       1      27      26       1
       1      27      26       1       1      27      26       1       1      27
      26       1       1      27      26       1       1      27      26       1
       1      27      26       1       1      27      26       1       1      27
      26       1       1      27      26       1       1      27      26       1
       1      27      26       1       1      27      26       1       1      27
      26       1       1      27      26       1       1      27      26       1
       1      27      26       1       1      27      26       1       1      27
      26       1       1      27      26       1       1      27      26       1
       1      27      26       1       1      27      26       1       1      27
      26       1       1      27      26       1       1      27      26       1
       1      27      26       1       1      27      26       1       1      27
      26       1       1      27      26       1       1      27      26       1
       1      27      26       1       1      27      26       1       1      27
      26       1       1      27      26       1       1      27      26       1
       1      27      26       1       1      27      26       1       1      27
      26       1       1      27      26       1       1      27      26       1
       1      27      26       1       1      27      26       1       1      27
      26       1       1      27      26       1       1      27      26       1
       1      27      26       1       1      27      26       1       1      27
      26       1       1      27      26       1       1      27      26       1
       1      27      26       1       1      27      26       1       1      27
      26       1       1      27      26       1       1      27      26       1
       1      27      26       1       1      27      26       1       1      27
      26       1       1      27      26       1       1      27      26       1
       1      27      26       1       1      27      26       1       1      27
      26       1       1      27      26       1       1      27      26       1
       1      27      26       1       1      27      26       1       1      27
      26       1       1      27      26       1       1      27      26       1
       1      27      26       1       1      27      26       1       1      27
      26       1       1      27      26       1       1      27      26       1
       1      27      26       1       1      27      26       1       1      27
      26       1       1      27      26       1       1      27      26       1
       1      27      26       1       1      27      26       1       1      27
      26       1       1      27      26       1       1      27      26       1
       1      27      26       1       1      27      26       1       1      27
      26       1       1      27      26       1       1      27      26       1
       1      27      26       1       1      27      26       1       1      27
      26       1       1      27      26       1       1      27      26       1
       1      27      26       1       1      27      26       1       1      27
      26       1       1      27      26       1       1      27      26       1
       1      27      26       1       1      27      26       1       1      27
      26       1       1      27      26       1       1      27      26       1
       1      27      26       1       1      27      26       1       1      27
      26       1       1      27      26       1       1      27      26       1
       1      27      26       1       1      27      26       1       1      27
      26       1       1      27      26       1       1      27      26       1
       1      27      26       1       1      27      26       1       1      27
      26       1       1      27      26       1       1      27      26       1
       1      27      26       1       1      27      26       1       1      27
      26       1       1      27      26       1       1      27      26       1
       1      27      26       1       1      27      26       1       1      27
      26       1       1      27      26       1       1      27      26       1
       1      27      26       1       1      27      26       1       1      27
      26       1       1      27      26       1       1      27      26       1
       1      27      26       1       1      27      26       1       1      27
      26       1       1      27      26       1       1      27      26       1
       1      27      26       1       1      27      26       1       1      27
      26       1       1      27      26       1       1      27      26       1
       1      27      26       1       1      27      26       1       1      27
      26       1       1      27      26       1       1      27      26       1
       1      27      26       1       1      27      26       1       1      27
      26       1       1      27      26       1       1      27      26       1
       1      27      26       1       1      27      26       1       1      27
      26       1       1      27      26       1       1      27      26       1
       1      27      26       1       1      27      26       1       1      27
      26       1       1      27      26       1       1      27      26       1
       1      27      26       1       1      27      26       1       1      27
      26       1       1      27      26       1       1      27      26       1
       1      27      26       1       1      27      26       1       1      27
      26       1       1      27      26       1       1      27      26       1
       1      27      26       1       1      27      26       1       1      27
      26       1       1      27      26       1       1      27      26       1
       1      27      26       1       1      27      26       1       1      27
      26       1       1      27      26       1       1      27      26       1
       1      27      26       1       1      27      26       1       1      27
      26       1       1      27      26       1       1      27      26       1
       1      27      26       1       1      27      26       1       1      27
      26       1       1      27      26       1       1      27      26       1
       1      27      26       1       1      27      26       1       1      27
      26       1       1      27      26       1       1      27      26       1
       1      27      26       1       1      27      26       1       1      27
      26       1       1      27      26       1       1      27      26       1
       1      27      26       1       1      27      26       1       1      27
      26       1       1      27      26       1       1      27      26       1
       1      27      26       1       1      27      26       1       1      27
      26       1       1      27      26       1       1      27      26       1
       1      27      26       1       1      27      26       1       1      27
      26       1       1      27      26       1       1      27      26       1
       1      27      26       1       1      27      26       1       1      27
      26       1       1      27      26       1       1      27      26       1
       1      27      26       1       1      27      26       1       1      27
      26       1       1      27      26       1       1      27      26       1
       1      27      26       1       1      27      26       1       1      27
      26       1       1      27      26       1       1      27      26       1
       1      27      26       1       1      27      26       1       1      27
      26       1       1      27      26       1       1      27      26       1
       1      27      26       1       1      27      26       1       1      27
      26       1       1      27      26       1       1      27      26       1
       1      27      26       1       1      27      26       1       1      27
      26       1       1      27      26       1       1      27      26       1
       1      27      26       1       1      27      26       1       1      27
      26       1       1      27      26       1       1      27      26       1
       1      27      26       1       1      27      26       1       1      27
      26       1       1      27      26       1       1      27      26       1
       1      27      26       1       1      27      26       1       1      27
      26       1       1      27      26       1       1      27      26       1
       1      27      26       1       1      27      26       1       1      27
      26       1       1      27      26       1       1      27      26       1
       1      27      26       1       1      27      26       1       1      27
      26       1       1      27      26       1       1      27      26       1
       1      27      26       1       1      27      26       1       1      27
      26       1       1      27      26       1       1      27      26       1
       1      27      26       1       1      27      26       1       1      27
      26       1       1      27      26       1       1      27      26       1
       1      27      26       1       1      27      26       1       1      27
      26       1       1      27      26       1       1      27      26       1
       1      27      26       1       1      27      26       1       1      27
      26       1       1      27      26       1       1      27      26       1
       1      27      26       1       1      27      26       1       1      27
      26       1       1      27      26       1       1      27      26       1
       1      27      26       1       1      27      26       1       1      27
      26       1       1      27      26       1       1      27      26       1
       1      27      26       1       1      27      26       1       1      27
      26       1       1      27      26       1       1      27      26       1
       1      27      26       1       1      27      26       1       1      27
      26       1       1      27      26       1       1      27      26       1
       1      27      26       1       1      27      26       1       1      27
      26       1       1      27      26       1       1      27      26       1
       1      27      26       1       1      27      26       1       1      27
      26       1       1      27      26       1       1      27      26       1
       1      27      26       1       1      27      26       1       1      27
      26       1       1      27      26       1       1      27      26       1
       1      27      26       1       1      27      26       1       1      27
      26       1       1      27      26       1       1      27      26       1
       1      27      26       1       1      27      26       1       1      27
      26       1       1      27      26       1       1      27      26       1
       1      27      26       1       1      27      26       1       1      27
      26       1       1      27      26       1       1      27      26       1
       1      27      26       1       1      27      26       1       1      27
      26       1       1      27      26       1       1      27      26       1
       1      27      26       1       1      27      26       1       1      27
      26       1       1      27      26       1       1      27      26       1
       1      27      26       1       1      27      26       1       1      27
      26       1       1      27      26       1       1      27      26       1
       1      27      26       1       1      27      26       1       1      27
      26       1       1      27      26       1       1      27      26       1
       1      27      26       1       1      27      26       1       1      27
      26       1       1      27      26       1       1      27      26       1
       1      27      26       1       1      27      26       1       1      27
      26       1       1      27      26       1       1      27      26       1
       1      27      26       1       1      27      26       1       1      27
      26       1       1      27      26       1       1      27      26       1
       1      27      26       1       1      27      26       1       1      27
      26       1       1      27      26       1       1      27      26       1
       1      27      26       1       1      27      26       1       1      27
      26       1       1      27      26       1       1      27      26       1
       1      27      26       1       1      27      26       1       1      27
      26       1       1      27      26       1       1      27      26       1
       1      27      26       1       1      27      26       1       1      27
      26       1       1      27      26       1       1      27      26       1
       1      27      26       1       1      27      26       1       1      27
      26       1       1      27      26       1       1      27      26       1
       1      27      26       1       1      27      26       1       1      27
      26       1       1      27      26       1       1      27      26       1
       1      27      26       1       1      27      26       1       1      27
      26       1       1      27      26       1       1      27      26       1
       1      27      26       1       1      27      26       1       1      27
      26       1       1      27      26       1       1      27      26       1
       1      27      26       1       1      27      26       1       1      27
      26       1       1      27      26       1       1      27      26       1
       1      27      26       1       1      27      26       1       1      27
      26       1       1      27      26       1       1      27      26       1
       1      27      26       1       1      27      26       1       1      27
      26       1       1      27      26       1       1      27      26       1
       1      27      26       1       1      27      26       1       1      27
      26       1       1      27      26       1       1      27      26       1
       1      27      26       1       1      27      26       1       1      27
      26       1       1      27      26       1       1      27      26       1
       1      27      26       1       1      27      26       1       1      27
      26       1       1      27      26       1       1      27      26       1
       1      27      26       1       1      27      26       1       1      27
      26       1       1      27      26       1       1      27      26       1
       1      27      26       1       1      27      26       1       1      27
      26       1       1      27      26       1       1      27      26       1
       1      27      26       1       1      27      26       1       1      27
      26       1       1      27      26       1       1      27      26       1
       1      27      26       1       1      27      26       1       1      27
      26       1       1      27      26       1       1      27      26       1
       1      27      26       1       1      27      26       1       1      27
      26       1       1      27      26       1       1      27      26       1
       1      27      26       1       1      27      26       1       1      27
      26       1       1      27      26       1       1      27      26       1
       1      27      26       1       1      27      26       1       1      27
      26       1       1      27      26       1       1      27      26       1
       1      27      26       1       1      27      26       1       1      27
      26       1       1      27      26       1       1      27      26       1
       1      27      26       1       1      27      26       1       1      27
      26       1       1      27      26       1       1      27      26       1
       1      27      26       1       1      27      26       1       1      27
      26       1       1      27      26       1       1      27      26       1
       1      27      26       1       1      27      26       1       1      27
      26       1       1      27      26       1       1      27      26       1
       1      27      26       1       1      27      26       1       1      27
      26       1       1      27      26       1       1      27      26       1
       1      27      26       1       1      27      26       1       1      27
      26       1       1      27      26       1       1      27      26       1
       1      27      26       1       1      27      26       1       1      27
      26       1       1      27      26       1       1      27      26       1
       1      27      26       1       1      27      26       1       1      27
      26       1       1      27      26       1       1      27      26       1
       1      27      26       1       1      27      26       1       1      27
      26       1       1      27      26       1       1      27      26       1
       1      27      26       1       1      27      26       1       1      27
      26       1       1      27      26       1       1      27      26       1
       1      27      26       1       1      27      26       1       1      27
      26       1       1      27      26       1       1      27      26       1
       1      27      26       1       1      27      26       1       1      27
      26       1       1      27      26       1       1      27      26       1
       1      27      26       1       1      27      26       1       1      27
      26       1       1      27      26       1       1      27      26       1
       1      27      26       1       1      27      26       1       1      27
      26       1       1      27      26       1       1      27      26       1
       1      27      26       1       1      27      26       1       1      27
      26       1       1      27      26       1       1      27      26       1
       1      27      26       1       1      27      26       1       1      27
      26       1       1      27      26       1       1      27      26       1
       1      27      26       1       1      27      26       1       1      27
      26       1       1      27      26       1       1      27      26       1
       1      27      26       1       1      27      26       1       1      27
      26       1       1      27      26       1       1      27      26       1
       1      27      26       1       1      27      26       1       1      27
      26       1       1      27      26       1       1      27      26       1
       1      27      26       1       1      27      26       1       1      27
      26       1       1      27      26       1       1      27      26       1
       1      27      26       1       1      27      26       1       1      27
      26       1       1      27      26       1       1      27      26       1
       1      27      26       1       1      27      26       1       1      27
      26       1       1      27      26       1       1      27      26       1
       1      27      26       1       1      27      26       1       1      27
      26       1       1      27      26       1       1      27      26       1
       1      27      26       1       1      27      26       1       1      27
      26       1       1      27      26       1       1      27      26       1
       1      27      26       1       1      27      26       1       1      27
      26       1       1      27      26       1       1      27      26       1
       1      27      26       1       1      27      26       1       1      27
      26       1       1      27      26       1       1      27      26       1
       1      27      26       1       1      27      26       1       1      27
      26       1       1      27      26       1       1      27      26       1
       1      27      26       1       1      27      26       1       1      27
      26       1       1      27      26       1       1      27      26       1
       1      27      26       1       1      27      26       1       1      27
      26       1       1      27      26       1       1      27      26       1
       1      27      26       1       1      27      26       1       1      27
      26       1       1      27      26       1       1      27      26       1
       1      27      26       1       1      27      26       1       1      27
      26       1       1      27      26       1       1      27      26       1
       1      27      26       1       1      27      26       1       1      27
      26       1       1      27      26       1       1      27      26       1
       1      27      26       1       1      27      26       1       1      27
      26       1       1      27      26       1       1      27      26       1
       1      27      26       1       1      27      26       1       1      27
      26       1       1      27      26       1       1      27      26       1
       1      27      26       1       1      27      26       1       1      27
      26       1       1      27      26       1       1      27      26       1
       1      27      26       1       1      27      26       1       1      27
      26       1       1      27      26       1       1      27      26       1
       1      27      26       1       1      27      26       1       1      27
      26       1       1      27      26       1       1      27      26       1
       1      27      26       1       1      27      26       1       1      27
      26       1       1      27      26       1       1      27      26       1
       1      27      26       1       1      27      26       1       1      27
      26       1       1      27      26       1       1      27      26       1
       1      27      26       1       1      27      26       1       1      27
      26       1       1      27      26       1       1      27      26       1
       1      27      26       1       1      27      26       1       1      27
      26       1       1      27      26       1       1      27      26       1
       1      27      26       1       1      27      26       1       1      27
      26       1       1      27      26       1       1      27      26       1
       1      27      26       1       1      27      26       1       1      27
      26       1       1      27      26       1       1      27      26       1
       1      27      26       1       1      27      26       1       1      27
      26       1       1      27      26       1       1      27      26       1
       1      27      26       1       1      27      26       1       1      27
      26       1       1      27      26       1       1      27      26       1
       1      27      26       1       1      27      26       1       1      27
      26       1       1      27      26       1       1      27      26       1
       1      27      26       1       1      27      26       1       1      27
      26       1       1      27      26       1       1      27      26       1
       1      27      26       1       1      27      26       1       1      27
      26       1       1      27      26       1       1      27      26       1
       1      27      26       1       1      27      26       1       1      27
      26       1       1      27      26       1       1      27      26       1
       1      27      26       1       1      27      26       1       1      27
      26       1       1      27      26       1       1      27      26       1
       1      27      26       1       1      27      26       1       1      27
      26       1       1      27      26       1       1      27      26       1
       1      27      26       1       1      27      26       1       1      27
      26       1       1      27      26       1       1      27      26       1
       1      27      26       1       1      27      26       1       1      27
      26       1       1      27      26       1       1      27      26       1
       1      27      26       1       1      27      26       1       1      27
      26       1       1      27      26       1       1      27      26       1
       1      27      26       1       1      27      26       1       1      27
      26       1       1      27      26       1       1      27      26       1
       1      27      26       1       1      27      26       1       1      27
      26       1       1      27      26       1       1      27      26       1
       1      27      26       1       1      27      26       1       1      27
      26       1       1      27      26       1       1      27      26       1
       1      27      26       1       1      27      26       1       1      27
      26       1       1      27      26       1       1      27      26       1
       1      27      26       1       1      27      26       1       1      27
      26       1       1      27      26       1       1      27      26       1
       1      27      26       1       1      27      26       1       1      27
      26       1       1      27      26       1       1      27      26       1
       1      27      26       1       1      27      26       1       1      27
      26       1       1      27      26       1       1      27      26       1
       1      27      26       1       1      27      26       1       1      27
      26       1       1      27      26       1       1      27      26       1
       1      27      26       1       1      27      26       1       1      27
      26       1       1      27      26       1       1      27      26       1
       1      27      26       1       1      27      26       1       1      27
      26       1       1      27      26       1       1      27      26       1
       1      27      26       1       1      27      26       1       1      27
      26       1       1      27      26       1       1      27      26       1
       1      27      26       1       1      27      26       1       1      27
      26       1       1      27      26       1       1      27      26       1
       1      27      26       1       1      27      26       1       1      27
      26       1       1      27      26       1       1      27      26       1
       1      27      26       1       1      27      26       1       1      27
      26       1       1      27      26       1       1      27      26       1
       1      27      26       1       1      27      26       1       1      27
      26       1       1      27      26       1       1      27      26       1
       1      27      26       1       1      27      26       1       1      27
      26       1       1      27      26       1       1      27      26       1
       1      27      26       1       1      27      26       1       1      27
      26       1       1      27      26       1       1      27      26       1
       1      27      26       1       1      27      26       1       1      27
      26       1       1      27      26       1       1      27      26       1
       1      27      26       1       1      27      26       1       1      27
      26       1       1      27      26       1       1      27      26       1
       1      27      26       1       1      27      26       1       1      27
      26       1       1      27      26       1       1      27      26       1
       1      27      26       1       1      27      26       1       1      27
      26       1       1      27      26       1       1      27      26       1
       1      27      26       1       1      27      26       1       1      27
      26       1       1      27      26       1       1      27      26       1
       1      27      26       1       1      27      26       1       1      27
      26       1       1      27      26       1       1      27      26       1
       1      27      26       1       1      27      26       1       1      27
      26       1       1      27      26       1       1      27      26       1
       1      27      26       1       1      27      26       1       1      27
      26       1       1      27      26       1       1      27      26       1
       1      27      26       1       1      27      26       1       1      27
      26       1       1      27      26       1       1      27      26       1
       1      27      26       1       1      27      26       1       1      27
      26       1       1      27      26       1       1      27      26       1
       1      27      26       1       1      27      26       1       1      27
      26       1       1      27      26       1       1      27      26       1
       1      27      26       1       1      27      26       1       1      27
      26       1       1      27      26       1       1      27      26       1
       1      27      26       1       1      27      26       1       1      27
      26       1       1      27      26       1       1      27      26       1
       1      27      26       1       1      27      26       1       1      27
      26       1       1      27      26       1       1      27      26       1
       1      27      26       1       1      27      26       1       1      27
      26       1       1      27      26       1       1      27      26       1
       1      27      26       1       1      27      26       1       1      27
      26       1       1      27      26       1       1      27      26       1
       1      27      26       1       1      27      26       1       1      27
      26       1       1      27      26       1       1      27      26       1
       1      27      26       1       1      27      26       1       1      27
      26       1       1      27      26       1       1      27      26       1
       1      27      26       1       1      27      26       1       1      27
      26       1       1      27      26       1       1      27      26       1
       1      27      26       1       1      27      26       1       1      27
      26       1       1      27      26       1       1      27      26       1
       1      27      26       1       1      27      26       1       1      27
      26       1       1      27      26       1       1      27      26       1
       1      27      26       1       1      27      26       1       1      27
      26       1       1      27      26       1       1      27      26       1
       1      27      26       1       1      27      26       1       1      27
      26       1       1      27      26       1       1      27      26       1
       1      27      26       1       1      27      26       1       1      27
      26       1       1      27      26       1       1      27      26       1
       1      27      26       1       1      27      26       1       1      27
      26       1       1      27      26       1       1      27      26       1
       1      27      26       1       1      27      26       1       1      27
      26       1       1      27      26       1       1      27      26       1
       1      27      26       1       1      27      26       1       1      27
      26       1       1      27      26       1       1      27      26       1
       1      27      26       1       1      27      26       1       1      27
      26       1       1      27      26       1       1      27      26       1
       1      27      26       1       1      27      26       1       1      27
      26       1       1      27      26       1       1      27      26       1
       1      27      26       1       1      27      26       1       1      27
      26       1       1      27      26       1       1      27      26       1
       1      27      26       1       1      27      26       1       1      27
      26       1       1      27      26       1       1      27      26       1
       1      27      26       1       1      27      26       1       1      27
      26       1       1      27      26       1       1      27      26       1
       1      27      26       1       1      27      26       1       1      27
      26       1       1      27      26       1       1      27      26       1
       1      27      26       1       1      27      26       1       1      27
      26       1       1      27      26       1       1      27      26       1
       1      27      26       1       1      27      26       1       1      27
      26       1       1      27      26       1       1      27      26       1
       1      27      26       1       1      27      26       1       1      27
      26       1       1      27      26       1       1      27      26       1
       1      27      26       1       1      27      26       1       1      27
      26       1       1      27      26       1       1      27      26       1
       1      27      26       1       1      27      26       1       1      27
      26       1       1      27      26       1       1      27      26       1
       1      27      26       1       1      27      26       1       1      27
      26       1       1      27      26       1       1      27      26       1
       1      27      26       1       1      27      26       1       1      27
      26       1       1      27      26       1       1      27      26       1
       1      27      26       1       1      27      26       1       1      27
      26       1       1      27      26       1       1      27      26       1
       1      27      26       1       1      27      26       1       1      27
      26       1       1      27      26       1       1      27      26       1
       1      27      26       1       1      27      26       1       1      27
      26       1       1      27      26       1       1      27      26       1
       1      27      26       1       1      27      26       1       1      27
      26       1       1      27      26       1       1      27      26       1
       1      27      26       1       1      27      26       1       1      27
      26       1       1      27      26       1       1      27      26       1
       1      27      26       1       1      27      26       1       1      27
      26       1       1      27      26       1       1      27      26       1
       1      27      26       1       1      27      26       1       1      27
      26       1       1      27      26       1       1      27      26       1
       1      27      26       1       1      27      26       1       1      27
      26       1       1      27      26       1       1      27      26       1
       1      27      26       1       1      27      26       1       1      27
      26       1       1      27      26       1       1      27      26       1
       1      27      26       1       1      27      26       1       1      27
      26       1       1      27      26       1       1      27      26       1
       1      27      26       1       1      27      26       1       1      27
      26       1       1      27      26       1       1      27      26       1
       1      27      26       1       1      27      26       1       1      27
      26       1       1      27      26       1       1      27      26       1
       1      27      26       1       1      27      26       1       1      27
      26       1       1      27      26       1       1      27      26       1
       1      27      26       1       1      27      26       1       1      27
      26       1       1      27      26       1       1      27      26       1
       1      27      26       1       1      27      26       1       1      27
      26       1       1      27      26       1       1      27      26       1
       1      27      26       1       1      27      26       1       1      27
      26       1       1      27      26       1       1      27      26       1
       1      27      26       1       1      27      26       1       1      27
      26       1       1      27      26       1       1      27      26       1
       1      27      26       1       1      27      26       1       1      27
      26       1       1      27      26       1       1      27      26       1
       1      27      26       1       1      27      26       1       1      27
      26       1       1      27      26       1       1      27      26       1
       1      27      26       1       1      27      26       1       1      27
      26       1       1      27      26       1       1      27      26       1
       1      27      26       1       1      27      26       1       1      27
      26       1       1      27      26       1       1      27      26       1
       1      27      26       1       1      27      26       1       1      27
      26       1       1      27      26       1       1      27      26       1
       1      27      26       1       1      27      26       1       1      27
      26       1       1      27      26       1       1      27      26       1
       1      27      26       1       1      27      26       1       1      27
      26       1       1      27      26       1       1      27      26       1
       1      27      26       1       1      27      26       1       1      27
      26       1       1      27      26       1       1      27      26       1
       1      27      26       1       1      27      26       1       1      27
      26       1       1      27      26       1       1      27      26       1
       1      27      26       1       1      27      26       1       1      27
      26       1       1      27      26       1       1      27      26       1
       1      27      26       1       1      27      26       1       1      27
      26       1       1      27      26       1       1      27      26       1
       1      27      26       1       1      27      26       1       1      27
      26       1       1      27      26       1       1      27      26       1
       1      27      26       1       1      27      26       1       1      27
      26       1       1      27      26       1       1      27      26       1
       1      27      26       1       1      27      26       1       1      27
      26       1       1      27      26       1       1      27      26       1
       1      27      26       1       1      27      26       1       1      27
      26       1       1      27      26       1       1      27      26       1
       1      27      26       1       1      27      26       1       1      27
      26       1       1      27      26       1       1      27      26       1
       1      27      26       1       1      27      26       1       1      27
      26       1       1      27      26       1       1      27      26       1
       1      27      26       1       1      27      26       1       1      27
      26       1       1      27      26       1       1      27      26       1
       1      27      26       1       1      27      26       1       1      27
      26       1       1      27      26       1       1      27      26       1
       1      27      26       1       1      27      26       1       1      27
      26       1       1      27      26       1       1      27      26       1
       1      27      26       1       1      27      26       1       1      27
      26       1       1      27      26       1       1      27      26       1
       1      27      26       1       1      27      26       1       1      27
      26       1       1      27      26       1       1      27      26       1
       1      27      26       1       1      27      26       1       1      27
      26       1       1      27      26       1       1      27      26       1
       1      27      26       1       1      27      26       1       1      27
      26       1       1      27      26       1       1      27      26       1
       1      27      26       1       1      27      26       1       1      27
      26       1       1      27      26       1       1      27      26       1
       1      27      26       1       1      27      26       1       1      27
      26       1       1      27      26       1       1      27      26       1
       1      27      26       1       1      27      26       1       1      27
      26       1       1      27      26       1       1      27      26       1
       1      27      26       1       1      27      26       1       1      27
      26       1       1      27      26       1       1      27      26       1
       1      27      26       1       1      27      26       1       1      27
      26       1       1      27      26       1       1      27      26       1
       1      27      26       1       1      27      26       1       1      27
      26       1       1      27      26       1       1      27      26       1
       1      27      26       1       1      27      26       1       1      27
      26       1       1      27      26       1       1      27      26       1
       1      27      26       1       1      27      26       1       1      27
      26       1       1      27      26       1       1      27      26       1
       1      27      26       1       1      27      26       1       1      27
      26       1       1      27      26       1       1      27      26       1
       1      27      26       1       1      27      26       1       1      27
      26       1       1      27      26       1       1      27      26       1
       1      27      26       1       1      27      26       1       1      27
      26       1       1      27      26       1       1      27      26       1
       1      27      26       1       1      27      26       1       1      27
      26       1       1      27      26       1       1      27      26       1
       1      27      26       1       1      27      26       1       1      27
      26       1       1      27      26       1       1      27      26       1
       1      27      26       1       1      27      26       1       1      27
      26       1       1      27      26       1       1      27      26       1
       1      27      26       1       1      27      26       1       1      27
      26       1       1      27      26       1       1      27      26       1
       1      27      26       1       1      27      26       1       1      27
      26       1       1      27      26       1       1      27      26       1
       1      27      26       1       1      27      26       1       1      27
      26       1       1      27      26       1       1      27      26       1
       1      27      26       1       1      27      26       1       1      27
      26       1       1      27      26       1       1      27      26       1
       1      27      26       1       1      27      26       1       1      27
      26       1       1      27      26       1       1      27      26       1
       1      27      26       1       1      27      26       1       1      27
      26       1       1      27      26       1       1      27      26       1
       1      27      26       1       1      27      26       1       1      27
      26       1       1      27      26       1       1      27      26       1
       1      27      26       1       1      27      26       1       1      27
      26       1       1      27      26       1       1      27      26       1
       1      27      26       1       1      27      26       1       1      27
      26       1       1      27      26       1       1      27      26       1
       1      27      26       1       1      27      26       1       1      27
      26       1       1      27      26       1       1      27      26       1
       1      27      26       1       1      27      26       1       1      27
      26       1       1      27      26       1       1      27      26       1
       1      27      26       1       1      27      26       1       1      27
      26       1       1      27      26       1       1      27      26       1
       1      27      26       1       1      27      26       1       1      27
      26       1       1      27      26       1       1      27      26       1
       1      27      26       1       1      27      26       1       1      27
      26       1       1      27      26       1       1      27      26       1
       1      27      26       1       1      27      26       1       1      27
      26       1       1      27      26       1       1      27      26       1
       1      27      26       1       1      27      26       1       1      27
      26       1       1      27      26       1       1      27      26       1
       1      27      26       1       1      27      26       1       1      27
      26       1       1      27      26       1       1      27      26       1
       1      27      26       1       1      27      26       1       1      27
      26       1       1      27      26       1       1      27      26       1
       1      27      26       1       1      27      26       1       1      27
      26       1       1      27      26       1       1      27      26       1
       1      27      26       1       1      27      26       1       1      27
      26       1       1      27      26       1       1      27      26       1
       1      27      26       1       1      27      26       1       1      27
      26       1       1      27      26       1       1      27      26       1
       1      27      26       1       1      27      26       1       1      27
      26       1       1      27      26       1       1      27      26       1
       1      27      26       1       1      27      26       1       1      27
      26       1       1      27      26       1       1      27      26       1
       1      27      26       1       1      27      26       1       1      27
      26       1       1      27      26       1       1      27      26       1
       1      27      26       1       1      27      26       1       1      27
      26       1       1      27      26       1       1      27      26       1
       1      27      26       1       1      27      26       1       1      27
      26       1       1      27      26       1       1      27      26       1
       1      27      26       1       1      27      26       1       1      27
      26       1       1      27      26       1       1      27      26       1
       1      27      26       1       1      27      26       1       1      27
      26       1       1      27      26       1       1      27      26       1
       1      27      26       1       1      27      26       1       1      27
      26       1       1      27      26       1       1      27      26       1
       1      27      26       1       1      27      26       1       1      27
      26       1       1      27      26       1       1      27      26       1
       1      27      26       1       1      27      26       1       1      27
      26       1       1      27      26       1       1      27      26       1
       1      27      26       1       1      27      26       1       1      27
      26       1       1      27      26       1       1      27      26       1
       1      27      26       1       1      27      26       1       1      27
      26       1       1      27      26       1       1      27      26       1
       1      27      26       1       1      27      26       1       1      27
      26       1       1      27      26       1       1      27      26       1
       1      27      26       1       1      27      26       1       1      27
      26       1       1      27      26       1       1      27      26       1
       1      27      26       1       1      27      26       1       1      27
      26       1       1      27      26       1       1      27      26       1
       1      27      26       1       1      27      26       1       1      27
      26       1       1      27      26       1       1      27      26       1
       1      27      26       1       1      27      26       1       1      27
      26       1       1      27      26       1       1      27      26       1
       1      27      26       1       1      27      26       1       1      27
      26       1       1      27      26       1       1      27      26       1
       1      27      26       1       1      27      26       1       1      27
      26       1       1      27      26       1       1      27      26       1
       1      27      26       1       1      27      26       1       1      27
      26       1       1      27      26       1       1      27      26       1
       1      27      26       1       1      27      26       1       1      27
      26       1       1      27      26       1       1      27      26       1
       1      27      26       1       1      27      26       1       1      27
      26       1       1      27      26       1       1      27      26       1
       1      27      26       1       1      27      26       1       1      27
      26       1       1      27      26       1       1      27      26       1
       1      27      26       1       1      27      26       1       1      27
      26       1       1      27      26       1       1      27      26       1
       1      27      26       1       1      27      26       1       1      27
      26       1       1      27      26       1       1      27      26       1
       1      27      26       1       1      27      26       1       1      27
      26       1       1      27      26       1       1      27      26       1
       1      27      26       1       1      27      26       1       1      27
      26       1       1      27      26       1       1      27      26       1
       1      27      26       1       1      27      26       1       1      27
      26       1       1      27      26       1       1      27      26       1
       1      27      26       1       1      27      26       1       1      27
      26       1       1      27      26       1       1      27      26       1
       1      27      26       1       1      27      26       1       1      27
      26       1       1      27      26       1       1      27      26       1
       1      27      26       1       1      27      26       1       1      27
      26       1       1      27      26       1       1      27      26       1
       1      27      26       1       1      27      26       1       1      27
      26       1       1      27      26       1       1      27      26       1
       1      27      26       1       1      27      26       1       1      27
      26       1       1      27      26       1       1      27      26       1
       1      27      26       1       1      27      26       1       1      27
      26       1       1      27      26       1       1      27      26       1
       1      27      26       1       1      27      26       1       1      27
      26       1       1      27      26       1       1      27      26       1
       1      27      26       1       1      27      26       1       1      27
      26       1       1      27      26       1       1      27      26       1
       1      27      26       1       1      27      26       1       1      27
      26       1       1      27      26       1       1      27      26       1
       1      27      26       1       1      27      26       1       1      27
      26       1       1      27      26       1       1      27      26       1
       1      27      26       1       1      27      26       1       1      27
      26       1       1      27      26       1       1      27      26       1
       1      27      26       1       1      27      26       1       1      27
      26       1       1      27      26       1       1      27      26       1
       1      27      26       1       1      27      26       1       1      27
      26       1       1      27      26       1       1      27      26       1
       1      27      26       1       1      27      26       1       1      27
      26       1       1      27      26       1       1      27      26       1
       1      27      26       1       1      27      26       1       1      27
      26       1       1      27      26       1       1      27      26       1
       1      27      26       1       1      27      26       1       1      27
      26       1       1      27      26       1       1      27      26       1
       1      27      26       1       1      27      26       1       1      27
      26       1       1      27      26       1       1      27      26       1
       1      27      26       1       1      27      26       1       1      27
      26       1       1      27      26       1       1      27      26       1
       1      27      26       1       1      27      26       1       1      27
      26       1       1      27      26       1       1      27      26       1
       1      27      26       1       1      27      26       1       1      27
      26       1       1      27      26       1       1      27      26       1
       1      27      26       1       1      27      26       1       1      27
      26       1       1      27      26       1       1      27      26       1
       1      27      26       1       1      27      26       1       1      27
      26       1       1      27      26       1       1      27      26       1
       1      27      26       1       1      27      26       1       1      27
      26       1       1      27      26       1       1      27      26       1
       1      27      26       1       1      27      26       1       1      27
      26       1       1      27      26       1       1      27      26       1
       1      27      26       1       1      27      26       1       1      27
      26       1       1      27      26       1       1      27      26       1
       1      27      26       1       1      27      26       1       1      27
      26       1       1      27      26       1       1      27      26       1
       1      27      26       1       1      27      26       1       1      27
      26       1       1      27      26       1       1      27      26       1
       1      27      26       1       1      27      26       1       1      27
      26       1       1      27      26       1       1      27      26       1
       1      27      26       1       1      27      26       1       1      27
      26       1       1      27      26       1       1      27      26       1
       1      27      26       1       1      27      26       1       1      27
      26       1       1      27      26       1       1      27      26       1
       1      27      26       1       1      27      26       1       1      27
      26       1       1      27      26       1       1      27      26       1
       1      27      26       1       1      27      26       1       1      27
      26       1       1      27      26       1       1      27      26       1
       1      27      26       1       1      27      26       1       1      27
      26       1       1      27      26       1       1      27      26       1
       1      27      26       1       1      27      26       1       1      27
      26       1       1      27      26       1       1      27      26       1
       1      27      26       1       1      27      26       1       1      27
      26       1       1      27      26       1       1      27      26       1
       1      27      26       1       1      27      26       1       1      27
      26       1       1      27      26       1       1      27      26       1
       1      27      26       1       1      27      26       1       1      27
      26       1       1      27      26       1       1      27      26       1
       1      27      26       1       1      27      26       1       1      27
      26       1       1      27      26       1       1      27      26       1
       1      27      26       1       1      27      26       1       1      27
      26       1       1      27      26       1       1      27      26       1
       1      27      26       1       1      27      26       1       1      27
      26       1       1      27      26       1       1      27      26       1
       1      27      26       1       1      27      26       1       1      27
      26       1       1      27      26       1       1      27      26       1
       1      27      26       1       1      27      26       1       1      27
      26       1       1      27      26       1       1      27      26       1
       1      27      26       1       1      27      26       1       1      27
      26       1       1      27      26       1       1      27      26       1
       1      27      26       1       1      27      26       1       1      27
      26       1       1      27      26       1       1      27      26       1
       1      27      26       1       1      27      26       1       1      27
      26       1       1      27      26       1       1      27      26       1
       1      27      26       1       1      27      26       1       1      27
      26       1       1      27      26       1       1      27      26       1
       1      27      26       1       1      27      26       1       1      27
      26       1       1      27      26       1       1      27      26       1
       1      27      26       1       1      27      26       1       1      27
      26       1       1      27      26       1       1      27      26       1
       1      27      26       1       1      27      26       1       1      27
      26       1       1      27      26       1       1      27      26       1
       1      27      26       1       1      27      26       1       1      27
      26       1       1      27      26       1       1      27      26       1
       1      27      26       1       1      27      26       1       1      27
      26       1       1      27      26       1       1      27      26       1
       1      27      26       1       1      27      26       1       1      27
      26       1       1      27      26       1       1      27      26       1
       1      27      26       1       1      27      26       1       1      27
      26       1       1      27      26       1       1      27      26       1
       1      27      26       1       1      27      26       1       1      27
      26       1       1      27      26       1       1      27      26       1
       1      27      26       1       1      27      26       1       1      27
      26       1       1      27      26       1       1      27      26       1
       1      27      26       1       1      27      26       1       1      27
      26       1       1      27      26       1       1      27      26       1
       1      27      26       1       1      27      26       1       1      27
      26       1       1      27      26       1       1      27      26       1
       1      27      26       1       1      27      26       1       1      27
      26       1       1      27      26       1       1      27      26       1
       1      27      26       1       1      27      26       1       1      27
      26       1       1      27      26       1       1      27      26       1
       1      27      26       1       1      27      26       1       1      27
      26       1       1      27      26       1       1      27      26       1
       1      27      26       1       1      27      26       1       1      27
      26       1       1      27      26       1       1      27      26       1
       1      27      26       1       1      27      26       1       1      27
      26       1       1      27      26       1       1      27      26       1
       1      27      26       1       1      27      26       1       1      27
      26       1       1      27      26       1       1      27      26       1
       1      27      26       1       1      27      26       1       1      27
      26       1       1      27      26       1       1      27      26       1
       1      27      26       1       1      27      26       1       1      27
      26       1       1      27      26       1       1      27      26       1
       1      27      26       1       1      27      26       1       1      27
      26       1       1      27      26       1       1      27      26       1
       1      27      26       1       1      27      26       1       1      27
      26       1       1      27      26       1       1      27      26       1
       1      27      26       1       1      27      26       1       1      27
      26       1       1      27      26       1       1      27      26       1
       1      27      26       1       1      27      26       1       1      27
      26       1       1      27      26       1       1      27      26       1
       1      27      26       1       1      27      26       1       1      27
      26       1       1      27      26       1       1      27      26       1
       1      27      26       1       1      27      26       1       1      27
      26       1       1      27      26       1       1      27      26       1
       1      27      26       1       1      27      26       1       1      27
      26       1       1      27      26       1       1      27      26       1
       1      27      26       1       1      27      26       1       1      27
      26       1       1      27      26       1       1      27      26       1
       1      27      26       1       1      27      26       1       1      27
      26       1       1      27      26       1       1      27      26       1
       1      27      26       1       1      27      26       1       1      27
      26       1       1      27      26       1       1      27      26       1
       1      27      26       1       1      27      26       1       1      27
      26       1       1      27      26       1       1      27      26       1
       1      27      26       1       1      27      26       1       1      27
      26       1       1      27      26       1       1      27      26       1
       1      27      26       1       1      27      26       1       1      27
      26       1       1      27      26       1       1      27      26       1
       1      27      26       1       1      27      26       1       1      27
      26       1       1      27      26       1       1      27      26       1
       1      27      26       1       1      27      26       1       1      27
      26       1       1      27      26       1       1      27      26       1
       1      27      26       1       1      27      26       1       1      27
      26       1       1      27      26       1       1      27      26       1
       1      27      26       1       1      27      26       1       1      27
      26       1       1      27      26       1       1      27      26       1
       1      27      26       1       1      27      26       1       1      27
      26       1       1      27      26       1       1      27      26       1
       1      27      26       1       1      27      26       1       1      27
      26       1       1      27      26       1       1      27      26       1
       1      27      26       1       1      27      26       1       1      27
      26       1       1      27      26       1       1      27      26       1
       1      27      26       1       1      27      26       1       1      27
      26       1       1      27      26       1       1      27      26       1
       1      27      26       1       1      27      26       1       1      27
      26       1       1      27      26       1       1      27      26       1
       1      27      26       1       1      27      26       1       1      27
      26       1       1      27      26       1       1      27      26       1
       1      27      26       1       1      27      26       1       1      27
      26       1       1      27      26       1       1      27      26       1
       1      27      26       1       1      27      26       1       1      27
      26       1       1      27      26       1       1      27      26       1
       1      27      26       1       1      27      26       1       1      27
      26       1       1      27      26       1       1      27      26       1
       1      27      26       1       1      27      26       1       1      27
      26       1       1      27      26       1       1      27      26       1
       1      27      26       1       1      27      26       1       1      27
      26       1       1      27      26       1       1      27      26       1
       1      27      26       1       1      27      26       1       1      27
      26       1       1      27      26       1       1      27      26       1
       1      27      26       1       1      27      26       1       1      27
      26       1       1      27      26       1       1      27      26       1
       1      27      26       1       1      27      26       1       1      27
      26       1       1      27      26       1       1      27      26       1
       1      27      26       1       1      27      26       1       1      27
      26       1       1      27      26       1       1      27      26       1
       1      27      26       1       1      27      26       1       1      27
      26       1       1      27      26       1       1      27      26       1
       1      27      26       1       1      27      26       1       1      27
      26       1       1      27      26       1       1      27      26       1
       1      27      26       1       1      27      26       1       1      27
      26       1       1      27      26       1       1      27      26       1
       1      27      26       1       1      27      26       1       1      27
      26       1       1      27      26       1       1      27      26       1
       1      27      26       1       1      27      26       1       1      27
      26       1       1      27      26       1       1      27      26       1
       1      27      26       1       1      27      26       1       1      27
      26       1       1      27      26       1       1      27      26       1
       1      27      26       1       1      27      26       1       1      27
      26       1       1      27      26       1       1      27      26       1
       1      27      26       1       1      27      26       1       1      27
      26       1       1      27      26       1       1      27      26       1
       1      27      26       1       1      27      26       1       1      27
      26       1       1      27      26       1       1      27      26       1
       1      27      26       1       1      27      26       1       1      27
      26       1       1      27      26       1       1      27      26       1
       1      27      26       1       1      27      26       1       1      27
      26       1       1      27      26       1       1      27      26       1
       1      27      26       1       1      27      26       1       1      27
      26       1       1      27      26       1       1      27      26       1
       1      27      26       1       1      27      26       1       1      27
      26       1       1      27      26       1       1      27      26       1
       1      27      26       1       1      27      26       1       1      27
      26       1       1      27      26       1       1      27      26       1
       1      27      26       1       1      27      26       1       1      27
      26       1       1      27      26       1       1      27      26       1
       1      27      26       1       1      27      26       1       1      27
      26       1       1      27      26       1       1      27      26       1
       1      27      26       1       1      27      26       1       1      27
      26       1       1      27      26       1       1      27      26       1
       1      27      26       1       1      27      26       1       1      27
      26       1       1      27      26       1       1      27      26       1
       1      27      26       1       1      27      26       1       1      27
      26       1       1      27      26       1       1      27      26       1
       1      27      26       1       1      27      26       1       1      27
      26       1       1      27      26       1       1      27      26       1
       1      27      26       1       1      27      26       1       1      27
      26       1       1      27      26       1       1      27      26       1
       1      27      26       1       1      27      26       1       1      27
      26       1       1      27      26       1       1      27      26       1
       1      27      26       1       1      27      26       1       1      27
      26       1       1      27      26       1       1      27      26       1
       1      27      26       1       1      27      26       1       1      27
      26       1       1      27      26       1       1      27      26       1
       1      27      26       1       1      27      26       1       1      27
      26       1       1      27      26       1       1      27      26       1
       1      27      26       1       1      27      26       1       1      27
      26       1       1      27      26       1       1      27      26       1
       1      27      26       1       1      27      26       1       1      27
      26       1       1      27      26       1       1      27      26       1
       1      27      26       1       1      27      26       1       1      27
      26       1       1      27      26       1       1      27      26       1
       1      27      26       1       1      27      26       1       1      27
      26       1       1      27      26       1       1      27      26       1
       1      27      26       1       1      27      26       1       1      27
      26       1       1      27      26       1       1      27      26       1
       1      27      26       1       1      27      26       1       1      27
      26       1       1      27      26       1       1      27      26       1
       1      27      26       1       1      27      26       1       1      27
      26       1       1      27      26       1       1      27      26       1
       1      27      26       1       1      27      26       1       1      27
      26       1       1      27      26       1       1      27      26       1
       1      27      26       1       1      27      26       1       1      27
      26       1       1      27      26       1       1      27      26       1
       1      27      26       1       1      27      26       1       1      27
      26       1       1      27      26       1       1      27      26       1
       1      27      26       1       1      27      26       1       1      27
      26       1       1      27      26       1       1      27      26       1
       1      27      26       1       1      27      26       1       1      27
      26       1       1      27      26       1       1      27      26       1
       1      27      26       1       1      27      26       1       1      27
      26       1       1      27      26       1       1      27      26       1
       1      27      26       1       1      27      26       1       1      27
      26       1       1      27      26       1       1      27      26       1
       1      27      26       1       1      27      26       1       1      27
      26       1       1      27      26       1       1      27      26       1
       1      27      26       1       1      27      26       1       1      27
      26       1       1      27      26       1       1      27      26       1
       1      27      26       1       1      27      26       1       1      27
      26       1       1      27      26       1       1      27      26       1
       1      27      26       1       1      27      26       1       1      27
      26       1       1      27      26       1       1      27      26       1
       1      27      26       1       1      27      26       1       1      27
      26       1       1      27      26       1       1      27      26       1
       1      27      26       1       1      27      26       1       1      27
      26       1       1      27      26       1       1      27      26       1
       1      27      26       1       1      27      26       1       1      27
      26       1       1      27      26       1       1      27      26       1
       1      27      26       1       1      27      26       1       1      27
      26       1       1      27      26       1       1      27      26       1
       1      27      26       1       1      27      26       1       1      27
      26       1       1      27      26       1       1      27      26       1
       1      27      26       1       1      27      26       1       1      27
      26       1       1      27      26       1       1      27      26       1
       1      27      26       1       1      27      26       1       1      27
      26       1       1      27      26       1       1      27      26       1
       1      27      26       1       1      27      26       1       1      27
      26       1       1      27      26       1       1      27      26       1
       1      27      26       1       1      27      26       1       1      27
      26       1       1      27      26       1       1      27      26       1
       1      27      26       1       1      27      26       1       1      27
      26       1       1      27      26       1       1      27      26       1
       1      27      26       1       1      27      26       1       1      27
      26       1       1      27      26       1       1      27      26       1
       1      27      26       1       1      27      26       1       1      27
      26       1       1      27      26       1       1      27      26       1
       1      27      26       1       1      27      26       1       1      27
      26       1       1      27      26       1       1      27      26       1
       1      27      26       1       1      27      26       1       1      27
      26       1       1      27      26       1       1      27      26       1
       1      27      26       1       1      27      26       1       1      27
      26       1       1      27      26       1       1      27      26       1
       1      27      26       1       1      27      26       1       1      27
      26       1       1      27      26       1       1      27      26       1
       1      27      26       1       1      27      26       1       1      27
      26       1       1      27      26       1       1      27      26       1
       1      27      26       1       1      27      26       1       1      27
      26       1       1      27      26       1       1      27      26       1
       1      27      26       1       1      27      26       1       1      27
      26       1       1      27      26       1       1      27      26       1
       1      27      26       1       1      27      26       1       1      27
      26       1       1      27      26       1       1      27      26       1
       1      27      26       1       1      27      26       1       1      27
      26       1       1      27      26       1       1      27      26       1
       1      27      26       1       1      27      26       1       1      27
      26       1       1      27      26       1       1      27      26       1
       1      27      26       1       1      27      26       1       1      27
      26       1       1      27      26       1       1      27      26       1
       1      27      26       1       1      27      26       1       1      27
      26       1       1      27      26       1       1      27      26       1
       1      27      26       1       1      27      26       1       1      27
      26       1       1      27      26       1       1      27      26       1
       1      27      26       1       1      27      26       1       1      27
      26       1       1      27      26       1       1      27      26       1
       1      27      26       1       1      27      26       1       1      27
      26       1       1      27      26       1       1      27      26       1
       1      27      26       1       1      27      26       1       1      27
      26       1       1      27      26       1       1      27      26       1
       1      27      26       1       1      27      26       1       1      27
      26       1       1      27      26       1       1      27      26       1
       1      27      26       1       1      27      26       1       1      27
      26       1       1      27      26       1       1      27      26       1
       1      27      26       1       1      27      26       1       1      27
      26       1       1      27      26       1       1      27      26       1
       1      27      26       1       1      27      26       1       1      27
      26       1       1      27      26       1       1      27      26       1
       1      27      26       1       1      27      26       1       1      27
      26       1       1      27      26       1       1      27      26       1
       1      27      26       1       1      27      26       1       1      27
      26       1       1      27      26       1       1      27      26       1
       1      27      26       1       1      27      26       1       1      27
      26       1       1      27      26       1       1      27      26       1
       1      27      26       1       1      27      26       1       1      27
      26       1       1      27      26       1       1      27      26       1
       1      27      26       1       1      27      26       1       1      27
      26       1       1      27      26       1       1      27      26       1
       1      27      26       1       1      27      26       1       1      27
      26       1       1      27      26       1       1      27      26       1
       1      27      26       1       1      27      26       1       1      27
      26       1       1      27      26       1       1      27      26       1
       1      27      26       1       1      27      26       1       1      27
      26       1       1      27      26       1       1      27      26       1
       1      27      26       1       1      27      26       1       1      27
      26       1       1      27      26       1       1      27      26       1
       1      27      26       1       1      27      26       1       1      27
      26       1       1      27      26       1       1      27      26       1
       1      27      26       1       1      27      26       1       1      27
      26       1       1      27      26       1       1      27      26       1
       1      27      26       1       1      27      26       1       1      27
      26       1       1      27      26       1       1      27      26       1
       1      27      26       1       1      27      26       1       1      27
      26       1       1      27      26       1       1      27      26       1
       1      27      26       1       1      27      26       1       1      27
      26       1       1      27      26       1       1      27      26       1
       1      27      26       1       1      27      26       1       1      27
      26       1       1      27      26       1       1      27      26       1
       1      27      26       1       1      27      26       1       1      27
      26       1       1      27      26       1       1      27      26       1
       1      27      26       1       1      27      26       1       1      27
      26       1       1      27      26       1       1      27      26       1
       1      27      26       1       1      27      26       1       1      27
      26       1       1      27      26       1       1      27      26       1
       1      27      26       1       1      27      26       1       1      27
      26       1       1      27      26       1       1      27      26       1
       1      27      26       1       1      27      26       1       1      27
      26       1       1      27      26       1       1      27      26       1
       1      27      26       1       1      27      26       1       1      27
      26       1       1      27      26       1       1      27      26       1
       1      27      26       1       1      27      26       1       1      27
      26       1       1      27      26       1       1      27      26       1
       1      27      26       1       1      27      26       1       1      27
      26       1       1      27      26       1       1      27      26       1
       1      27      26       1       1      27      26       1       1      27
      26       1       1      27      26       1       1      27      26       1
       1      27      26       1       1      27      26       1       1      27
      26       1       1      27      26       1       1      27      26       1
       1      27      26       1       1      27      26       1       1      27
      26       1       1      27      26       1       1      27      26       1
       1      27      26       1       1      27      26       1       1      27
      26       1       1      27      26       1       1      27      26       1
       1      27      26       1       1      27      26       1       1      27
      26       1       1      27      26       1       1      27      26       1
       1      27      26       1       1      27      26       1       1      27
      26       1       1      27      26       1       1      27      26       1
       1      27      26       1       1      27      26       1       1      27
      26       1       1      27      26       1       1      27      26       1
       1      27      26       1       1      27      26       1       1      27
      26       1       1      27      26       1       1      27      26       1
       1      27      26       1       1      27      26       1       1      27
      26       1       1      27      26       1       1      27      26       1
       1      27      26       1       1      27      26       1       1      27
      26       1       1      27      26       1       1      27      26       1
       1      27      26       1       1      27      26       1       1      27
      26       1       1      27      26       1       1      27      26       1
       1      27      26       1       1      27      26       1       1      27
      26       1       1      27      26       1       1      27      26       1
       1      27      26       1       1      27      26       1       1      27
      26       1       1      27      26       1       1      27      26       1
       1      27      26       1       1      27      26       1       1      27
      26       1       1      27      26       1       1      27      26       1
       1      27      26       1       1      27      26       1       1      27
      26       1       1      27      26       1       1      27      26       1
       1      27      26       1       1      27      26       1       1      27
      26       1       1      27      26       1       1      27      26       1
       1      27      26       1       1      27      26       1       1      27
      26       1       1      27      26       1       1      27      26       1
       1      27      26       1       1      27      26       1       1      27
      26       1       1      27      26       1       1      27      26       1
       1      27      26       1       1      27      26       1       1      27
      26       1       1      27      26       1       1      27      26       1
       1      27      26       1       1      27      26       1       1      27
      26       1       1      27      26       1       1      27      26       1
       1      27      26       1       1      27      26       1       1      27
      26       1       1      27      26       1       1      27      26       1
       1      27      26       1       1      27      26       1       1      27
      26       1       1      27      26       1       1      27      26       1
       1      27      26       1       1      27      26       1       1      27
      26       1       1      27      26       1       1      27      26       1
       1      27      26       1       1      27      26       1       1      27
      26       1       1      27      26       1       1      27      26       1
       1      27      26       1       1      27      26       1       1      27
      26       1       1      27      26       1       1      27      26       1
       1      27      26       1       1      27      26       1       1      27
      26       1       1      27      26       1       1      27      26       1
       1      27      26       1       1      27      26       1       1      27
      26       1       1      27      26       1       1      27      26       1
       1      27      26       1       1      27      26       1       1      27
      26       1       1      27      26       1       1      27      26       1
       1      27      26       1       1      27      26       1       1      27
      26       1       1      27      26       1       1      27      26       1
       1      27      26       1       1      27      26       1       1      27
      26       1       1      27      26       1       1      27      26       1
       1      27      26       1       1      27      26       1       1      27
      26       1       1      27      26       1       1      27      26       1
       1      27      26       1       1      27      26       1       1      27
      26       1       1      27      26       1       1      27      26       1
       1      27      26       1       1      27      26       1       1      27
      26       1       1      27      26       1       1      27      26       1
       1      27      26       1       1      27      26       1       1      27
      26       1       1      27      26       1       1      27      26       1
       1      27      26       1       1      27      26       1       1      27
      26       1       1      27      26       1       1      27      26       1
       1      27      26       1       1      27      26       1       1      27
      26       1       1      27      26       1       1      27      26       1
       1      27      26       1       1      27      26       1       1      27
      26       1       1      27      26       1       1      27      26       1
       1      27      26       1       1      27      26       1       1      27
      26       1       1      27      26       1       1      27      26       1
       1      27      26       1       1      27      26       1       1      27
      26       1       1      27      26       1       1      27      26       1
       1      27      26       1       1      27      26       1       1      27
      26       1       1      27      26       1       1      27      26       1
       1      27      26       1       1      27      26       1       1      27
      26       1       1      27      26       1       1      27      26       1
       1      27      26       1       1      27      26       1       1      27
      26       1       1      27      26       1       1      27      26       1
       1      27      26       1       1      27      26       1       1      27
      26       1       1      27      26       1       1      27      26       1
       1      27      26       1       1      27      26       1       1      27
      26       1       1      27      26       1       1      27      26       1
       1      27      26       1       1      27      26       1       1      27
      26       1       1      27      26       1       1      27      26       1
       1      27      26       1       1      27      26       1       1      27
      26       1       1      27      26       1       1      27      26       1
       1      27      26       1       1      27      26       1       1      27
      26       1       1      27      26       1       1      27      26       1
       1      27      26       1       1      27      26       1       1      27
      26       1       1      27      26       1       1      27      26       1
       1      27      26       1       1      27      26       1       1      27
      26       1       1      27      26       1       1      27      26       1
       1      27      26       1       1      27      26       1       1      27
      26       1       1      27      26       1       1      27      26       1
       1      27      26       1       1      27      26       1       1      27
      26       1       1      27      26       1       1      27      26       1
       1      27      26       1       1      27      26       1       1      27
      26       1       1      27      26       1       1      27      26       1
       1      27      26       1       1      27      26       1       1      27
      26       1       1      27      26       1       1      27      26       1
       1      27      26       1       1      27      26       1       1      27
      26       1       1      27      26       1       1      27      26       1
       1      27      26       1       1      27      26       1       1      27
      26       1       1      27      26       1       1      27      26       1
       1      27      26       1       1      27      26       1       1      27
      26       1       1      27      26       1       1      27      26       1
       1      27      26       1       1      27      26       1       1      27
      26       1       1      27      26       1       1      27      26       1
       1      27      26       1       1      27      26       1       1      27
      26       1       1      27      26       1       1      27      26       1
       1      27      26       1       1      27      26       1       1      27
      26       1       1      27      26       1       1      27      26       1
       1      27      26       1       1      27      26       1       1      27
      26       1       1      27      26       1       1      27      26       1
       1      27      26       1       1      27      26       1       1      27
      26       1       1      27      26       1       1      27      26       1
       1      27      26       1       1      27      26       1       1      27
      26       1       1      27      26       1       1      27      26       1
       1      27      26       1       1      27      26       1       1      27
      26       1       1      27      26       1       1      27      26       1
       1      27      26       1       1      27      26       1       1      27
      26       1       1      27      26       1       1      27      26       1
       1      27      26       1       1      27      26       1       1      27
      26       1       1      27      26       1       1      27      26       1
       1      27      26       1       1      27      26       1       1      27
      26       1       1      27      26       1       1      27      26       1
       1      27      26       1       1      27      26       1       1      27
      26       1       1      27      26       1       1      27      26       1
       1      27      26       1       1      27      26       1       1      27
      26       1       1      27      26       1       1      27      26       1
       1      27      26       1       1      27      26       1       1      27
      26       1       1      27      26       1       1      27      26       1
       1      27      26       1       1      27      26       1       1      27
      26       1       1      27      26       1       1      27      26       1
       1      27      26       1       1      27      26       1       1      27
      26       1       1      27      26       1       1      27      26       1
       1      27      26       1       1      27      26       1       1      27
      26       1       1      27      26       1       1      27      26       1
       1      27      26       1       1      27      26       1       1      27
      26       1       1      27      26       1       1      27      26       1
       1      27      26       1       1      27      26       1       1      27
      26       1       1      27      26       1       1      27      26       1
       1      27      26       1       1      27      26       1       1      27
      26       1       1      27      26       1       1      27      26       1
       1      27      26       1       1      27      26       1       1      27
      26       1       1      27      26       1       1      27      26       1
       1      27      26       1       1      27      26       1       1      27
      26       1       1      27      26       1       1      27      26       1
       1      27      26       1       1      27      26       1       1      27
      26       1       1      27      26       1       1      27      26       1
       1      27      26       1       1      27      26       1       1      27
      26       1       1      27      26       1       1      27      26       1
       1      27      26       1       1      27      26       1       1      27
      26       1       1      27      26       1       1      27      26       1
       1      27      26       1       1      27      26       1       1      27
      26       1       1      27      26       1       1      27      26       1
       1      27      26       1       1      27      26       1       1      27
      26       1       1      27      26       1       1      27      26       1
       1      27      26       1       1      27      26       1       1      27
      26       1       1      27      26       1       1      27      26       1
       1      27      26       1       1      27      26       1       1      27
      26       1       1      27      26       1       1      27      26       1
       1      27      26       1       1      27      26       1       1      27
      26       1       1      27      26       1       1      27      26       1
       1      27      26       1       1      27      26       1       1      27
      26       1       1      27      26       1       1      27      26       1
       1      27      26       1       1      27      26       1       1      27
      26       1       1      27      26       1       1      27      26       1
       1      27      26       1       1      27      26       1       1      27
      26       1       1      27      26       1       1      27      26       1
       1      27      26       1       1      27      26       1       1      27
      26       1       1      27      26       1       1      27      26       1
       1      27      26       1       1      27      26       1       1      27
      26       1       1      27      26       1       1      27      26       1
       1      27      26       1       1      27      26       1       1      27
      26       1       1      27      26       1       1      27      26       1
       1      27      26       1       1      27      26       1       1      27
      26       1       1      27      26       1       1      27      26       1
       1      27      26       1       1      27      26       1       1      27
      26       1       1      27      26       1       1      27      26       1
       1      27      26       1       1      27      26       1       1      27
      26       1       1      27      26       1       1      27      26       1
       1      27      26       1       1      27      26       1       1      27
      26       1       1      27      26       1       1      27      26       1
       1      27      26       1       1      27      26       1       1      27
      26       1       1      27      26       1       1      27      26       1
       1      27      26       1       1      27      26       1       1      27
      26       1       1      27      26       1       1      27      26       1
       1      27      26       1       1      27      26       1       1      27
      26       1       1      27      26       1       1      27      26       1
       1      27      26       1       1      27      26       1       1      27
      26       1       1      27      26       1       1      27      26       1
       1      27      26       1       1      27      26       1       1      27
      26       1       1      27      26       1       1      27      26       1
       1      27      26       1       1      27      26       1       1      27
      26       1       1      27      26       1       1      27      26       1
       1      27      26       1       1      27      26       1       1      27
      26       1       1      27      26       1       1      27      26       1
       1      27      26       1       1      27      26       1       1      27
      26       1       1      27      26       1       1      27      26       1
       1      27      26       1       1      27      26       1       1      27
      26       1       1      27      26       1       1      27      26       1
       1      27      26       1       1      27      26       1       1      27
      26       1       1      27      26       1       1      27      26       1
       1      27      26       1       1      27      26       1       1      27
      26       1       1      27      26       1       1      27      26       1
       1      27      26       1       1      27      26       1       1      27
      26       1       1      27      26       1       1      27      26       1
       1      27      26       1       1      27      26       1       1      27
      26       1       1      27      26       1       1      27      26       1
       1      27      26       1       1      27      26       1       1      27
      26       1       1      27      26       1       1      27      26       1
       1      27      26       1       1      27      26       1       1      27
      26       1       1      27      26       1       1      27      26       1
       1      27      26       1       1      27      26       1       1      27
      26       1       1      27      26       1       1      27      26       1
       1      27      26       1       1      27      26       1       1      27
      26       1       1      27      26       1       1      27      26       1
       1      27      26       1       1      27      26       1       1      27
      26       1       1      27      26       1       1      27      26       1
       1      27      26       1       1      27      26       1       1      27
      26       1       1      27      26       1       1      27      26       1
       1      27      26       1       1      27      26       1       1      27
      26       1       1      27      26       1       1      27      26       1
       1      27      26       1       1      27      26       1       1      27
      26       1       1      27      26       1       1      27      26       1
       1      27      26       1       1      27      26       1       1      27
      26       1       1      27      26       1       1      27      26       1
       1      27      26       1       1      27      26       1       1      27
      26       1       1      27      26       1       1      27      26       1
       1      27      26       1       1      27      26       1       1      27
      26       1       1      27      26       1       1      27      26       1
       1      27      26       1       1      27      26       1       1      27
      26       1       1      27      26       1       1      27      26       1
       1      27      26       1       1      27      26       1       1      27
      26       1       1      27      26       1       1      27      26       1
       1      27      26       1       1      27      26       1       1      27
      26       1       1      27      26       1       1      27      26       1
       1      27      26       1       1      27      26       1       1      27
      26       1       1      27      26       1       1      27      26       1
       1      27      26       1       1      27      26       1       1      27
      26       1       1      27      26       1       1      27      26       1
       1      27      26       1       1      27      26       1       1      27
      26       1       1      27      26       1       1      27      26       1
       1      27      26       1       1      27      26       1       1      27
      26       1       1      27      26       1       1      27      26       1
       1      27      26       1       1      27      26       1       1      27
      26       1       1      27      26       1       1      27      26       1
       1      27      26       1       1      27      26       1       1      27
      26       1       1      27      26       1       1      27      26       1
       1      27      26       1       1      27      26       1       1      27
      26       1       1      27      26       1       1      27      26       1
       1      27      26       1       1      27      26       1       1      27
      26       1       1      27      26       1       1      27      26       1
       1      27      26       1       1      27      26       1       1      27
      26       1       1      27      26       1       1      27      26       1
       1      27      26       1       1      27      26       1       1      27
      26       1       1      27      26       1       1      27      26       1
       1      27      26       1       1      27      26       1       1      27
      26       1       1      27      26       1       1      27      26       1
       1      27      26       1       1      27      26       1       1      27
      26       1       1      27      26       1       1      27      26       1
       1      27      26       1       1      27      26       1       1      27
      26       1       1      27      26       1       1      27      26       1
       1      27      26       1       1      27      26       1       1      27
      26       1       1      27      26       1       1      27      26       1
       1      27      26       1       1      27      26       1       1      27
      26       1       1      27      26       1       1      27      26       1
       1      27      26       1       1      27      26       1       1      27
      26       1       1      27      26       1       1      27      26       1
       1      27      26       1       1      27      26       1       1      27
      26       1       1      27      26       1       1      27      26       1
       1      27      26       1       1      27      26       1       1      27
      26       1       1      27      26       1       1      27      26       1
       1      27      26       1       1      27      26       1       1      27
      26       1       1      27      26       1       1      27      26       1
       1      27      26       1       1      27      26       1       1      27
      26       1       1      27      26       1       1      27      26       1
       1      27      26       1       1      27      26       1       1      27
      26       1       1      27      26       1       1      27      26       1
       1      27      26       1       1      27      26       1       1      27
      26       1       1      27      26       1       1      27      26       1
       1      27      26       1       1      27      26       1       1      27
      26       1       1      27      26       1       1      27      26       1
       1      27      26       1       1      27      26       1       1      27
      26       1       1      27      26       1       1      27      26       1
       1      27      26       1       1      27      26       1       1      27
      26       1       1      27      26       1       1      27      26       1
       1      27      26       1       1      27      26       1       1      27
      26       1       1      27      26       1       1      27      26       1
       1      27      26       1       1      27      26       1       1      27
      26       1       1      27      26       1       1      27      26       1
       1      27      26       1       1      27      26       1       1      27
      26       1       1      27      26       1       1      27      26       1
       1      27      26       1       1      27      26       1       1      27
      26       1       1      27      26       1       1      27      26       1
       1      27      26       1       1      27      26       1       1      27
      26       1       1      27      26       1       1      27      26       1
       1      27      26       1       1      27      26       1       1      27
      26       1       1      27      26       1       1      27      26       1
       1      27      26       1       1      27      26       1       1      27
      26       1       1      27      26       1       1      27      26       1
       1      27      26       1       1      27      26       1       1      27
      26       1       1      27      26       1       1      27      26       1
       1      27      26       1       1      27      26       1       1      27
      26       1       1      27      26       1       1      27      26       1
       1      27      26       1       1      27      26       1       1      27
      26       1       1      27      26       1       1      27      26       1
       1      27      26       1       1      27      26       1       1      27
      26       1       1      27      26       1       1      27      26       1
       1      27      26       1       1      27      26       1       1      27
      26       1       1      27      26       1       1      27      26       1
       1      27      26       1       1      27      26       1       1      27
      26       1       1      27      26       1       1      27      26       1
       1      27      26       1       1      27      26       1       1      27
      26       1       1      27      26       1       1      27      26       1
       1      27      26       1       1      27      26       1       1      27
      26       1       1      27      26       1       1      27      26       1
       1      27      26       1       1      27      26       1       1      27
      26       1       1      27      26       1       1      27      26       1
       1      27      26       1       1      27      26       1       1      27
      26       1       1      27      26       1       1      27      26       1
       1      27      26       1       1      27      26       1       1      27
      26       1       1      27      26       1       1      27      26       1
       1      27      26       1       1      27      26       1       1      27
      26       1       1      27      26       1       1      27      26       1
       1      27      26       1       1      27      26       1       1      27
      26       1       1      27      26       1       1      27      26       1
       1      27      26       1       1      27      26       1       1      27
      26       1       1      27      26       1       1      27      26       1
       1      27      26       1       1      27      26       1       1      27
      26       1       1      27      26       1       1      27      26       1
       1      27      26       1       1      27      26       1       1      27
      26       1       1      27      26       1       1      27      26       1
       1      27      26       1       1      27      26       1       1      27
      26       1       1      27      26       1       1      27      26       1
       1      27      26       1       1      27      26       1       1      27
      26       1       1      27      26       1       1      27      26       1
       1      27      26       1       1      27      26       1       1      27
      26       1       1      27      26       1       1      27      26       1
       1      27      26       1       1      27      26       1       1      27
      26       1       1      27      26       1       1      27      26       1
       1      27      26       1       1      27      26       1       1      27
      26       1       1      27      26       1       1      27      26       1
       1      27      26       1       1      27      26       1       1      27
      26       1       1      27      26       1       1      27      26       1
       1      27      26       1       1      27      26       1       1      27
      26       1       1      27      26       1       1      27      26       1
       1      27      26       1       1      27      26       1       1      27
      26       1       1      27      26       1       1      27      26       1
       1      27      26       1       1      27      26       1       1      27
      26       1       1      27      26       1       1      27      26       1
       1      27      26       1       1      27      26       1       1      27
      26       1       1      27      26       1       1      27      26       1
       1      27      26       1       1      27      26       1       1      27
      26       1       1      27      26       1       1      27      26       1
       1      27      26       1       1      27      26       1       1      27
      26       1       1      27      26       1       1      27      26       1
       1      27      26       1       1      27      26       1       1      27
      26       1       1      27      26       1       1      27      26       1
       1      27      26       1       1      27      26       1       1      27
      26       1       1      27      26       1       1      27      26       1
       1      27      26       1       1      27      26       1       1      27
      26       1       1      27      26       1       1      27      26       1
       1      27      26       1       1      27      26       1       1      27
      26       1       1      27      26       1       1      27      26       1
       1      27      26       1       1      27      26       1       1      27
      26       1       1      27      26       1       1      27      26       1
       1      27      26       1       1      27      26       1       1      27
      26       1       1      27      26       1       1      27      26       1
       1      27      26       1       1      27      26       1       1      27
      26       1       1      27      26       1       1      27      26       1
       1      27      26       1       1      27      26       1       1      27
      26       1       1      27      26       1       1      27      26       1
       1      27      26       1       1      27      26       1       1      27
      26       1       1      27      26       1       1      27      26       1
       1      27      26       1       1      27      26       1       1      27
      26       1       1      27      26       1       1      27      26       1
       1      27      26       1       1      27      26       1       1      27
      26       1       1      27      26       1       1      27      26       1
       1      27      26       1       1      27      26       1       1      27
      26       1       1      27      26       1       1      27      26       1
       1      27      26       1       1      27      26       1       1      27
      26       1       1      27      26       1       1      27      26       1
       1      27      26       1       1      27      26       1       1      27
      26       1       1      27      26       1       1      27      26       1
       1      27      26       1       1      27      26       1       1      27
      26       1       1      27      26       1       1      27      26       1
       1      27      26       1       1      27      26       1       1      27
      26       1       1      27      26       1       1      27      26       1
       1      27      26       1       1      27      26       1       1      27
      26       1       1      27      26       1       1      27      26       1
       1      27      26       1       1      27      26       1       1      27
      26       1       1      27      26       1       1      27      26       1
       1      27      26       1       1      27      26       1       1      27
      26       1       1      27      26       1       1      27      26       1
       1      27      26       1       1      27      26       1       1      27
      26       1       1      27      26       1       1      27      26       1
       1      27      26       1       1      27      26       1       1      27
      26       1       1      27      26       1       1      27      26       1
       1      27      26       1       1      27      26       1       1      27
      26       1       1      27      26       1       1      27      26       1
       1      27      26       1       1      27      26       1       1      27
      26       1       1      27      26       1       1      27      26       1
       1      27      26       1       1      27      26       1       1      27
      26       1       1      27      26       1       1      27      26       1
       1      27      26       1       1      27      26       1       1      27
      26       1       1      27      26       1       1      27      26       1
       1      27      26       1       1      27      26       1       1      27
      26       1       1      27      26       1       1      27      26       1
       1      27      26       1       1      27      26       1       1      27
      26       1       1      27      26       1       1      27      26       1
       1      27      26       1       1      27      26       1       1      27
      26       1       1      27      26       1       1      27      26       1
       1      27      26       1       1      27      26       1       1      27
      26       1       1      27      26       1       1      27      26       1
       1      27      26       1       1      27      26       1       1      27
      26       1       1      27      26       1       1      27      26       1
       1      27      26       1       1      27      26       1       1      27
      26       1       1      27      26       1       1      27      26       1
       1      27      26       1       1      27      26       1       1      27
      26       1       1      27      26       1       1      27      26       1
       1      27      26       1       1      27      26       1       1      27
      26       1       1      27      26       1       1      27      26       1
       1      27      26       1       1      27      26       1       1      27
      26       1       1      27      26       1       1      27      26       1
       1      27      26       1       1      27      26       1       1      27
      26       1       1      27      26       1       1      27      26       1
       1      27      26       1       1      27      26       1       1      27
      26       1       1      27      26       1       1      27      26       1
       1      27      26       1       1      27      26       1       1      27
      26       1       1      27      26       1       1      27      26       1
       1      27      26       1       1      27      26       1       1      27
      26       1       1      27      26       1       1      27      26       1
       1      27      26       1       1      27      26       1       1      27
      26       1       1      27      26       1       1      27      26       1
       1      27      26       1       1      27      26       1       1      27
      26       1       1      27      26       1       1      27      26       1
       1      27      26       1       1      27      26       1       1      27
      26       1       1      27      26       1       1      27      26       1
       1      27      26       1       1      27      26       1       1      27
      26       1       1      27      26       1       1      27      26       1
       1      27      26       1       1      27      26       1       1      27
      26       1       1      27      26       1       1      27      26       1
       1      27      26       1       1      27      26       1       1      27
      26       1       1      27      26       1       1      27      26       1
       1      27      26       1       1      27      26       1       1      27
      26       1       1      27      26       1       1      27      26       1
       1      27      26       1       1      27      26       1       1      27
      26       1       1      27      26       1       1      27      26       1
       1      27      26       1       1      27      26       1       1      27
      26       1       1      27      26       1       1      27      26       1
       1      27      26       1       1      27      26       1       1      27
      26       1       1      27      26       1       1      27      26       1
       1      27      26       1       1      27      26       1       1      27
      26       1       1      27      26       1       1      27      26       1
       1      27      26       1       1      27      26       1       1      27
      26       1       1      27      26       1       1      27      26       1
       1      27      26       1       1      27      26       1       1      27
      26       1       1      27      26       1       1      27      26       1
       1      27      26       1       1      27      26       1       1      27
      26       1       1      27      26       1       1      27      26       1
       1      27      26       1       1      27      26       1       1      27
      26       1       1      27      26       1       1      27      26       1
       1      27      26       1       1      27      26       1       1      27
      26       1       1      27      26       1       1      27      26       1
       1      27      26       1       1      27      26       1       1      27
      26       1       1      27      26       1       1      27      26       1
       1      27      26       1       1      27      26       1       1      27
      26       1       1      27      26       1       1      27      26       1
       1      27      26       1       1      27      26       1       1      27
      26       1       1      27      26       1       1      27      26       1
       1      27      26       1       1      27      26       1       1      27
      26       1       1      27      26       1       1      27      26       1
       1      27      26       1       1      27      26       1       1      27
      26       1       1      27      26       1       1      27      26       1
       1      27      26       1       1      27      26       1       1      27
      26       1       1      27      26       1       1      27      26       1
       1      27      26       1       1      27      26       1       1      27
      26       1       1      27      26       1       1      27      26       1
       1      27      26       1       1      27      26       1       1      27
      26       1       1      27      26       1       1      27      26       1
       1      27      26       1       1      27      26       1       1      27
      26       1       1      27      26       1       1      27      26       1
       1      27      26       1       1      27      26       1       1      27
      26       1       1      27      26       1       1      27      26       1
       1      27      26       1       1      27      26       1       1      27
      26       1       1      27      26       1       1      27      26       1
       1      27      26       1       1      27      26       1       1      27
      26       1       1      27      26       1       1      27      26       1
       1      27      26       1       1      27      26       1       1      27
      26       1       1      27      26       1       1      27      26       1
       1      27      26       1       1      27      26       1       1      27
      26       1       1      27      26       1       1      27      26       1
       1      27      26       1       1      27      26       1       1      27
      26       1       1      27      26       1       1      27      26       1
       1      27      26       1       1      27      26       1       1      27
      26       1       1      27      26       1       1      27      26       1
       1      27      26       1       1      27      26       1       1      27
      26       1       1      27      26       1       1      27      26       1
       1      27      26       1       1      27      26       1       1      27
      26       1       1      27      26       1       1      27      26       1
       1      27      26       1       1      27      26       1       1      27
      26       1       1      27      26       1       1      27      26       1
       1      27      26       1       1      27      26       1       1      27
      26       1       1      27      26       1       1      27      26       1
       1      27      26       1       1      27      26       1       1      27
      26       1       1      27      26       1       1      27      26       1
       1      27      26       1       1      27      26       1       1      27
      26       1       1      27      26       1       1      27      26       1
       1      27      26       1       1      27      26       1       1      27
      26       1       1      27      26       1       1      27      26       1
       1      27      26       1       1      27      26       1       1      27
      26       1       1      27      26       1       1      27      26       1
       1      27      26       1       1      27      26       1       1      27
      26       1       1      27      26       1       1      27      26       1
       1      27      26       1       1      27      26       1       1      27
      26       1       1      27      26       1       1      27      26       1
       1      27      26       1       1      27      26       1       1      27
      26       1       1      27      26       1       1      27      26       1
       1      27      26       1       1      27      26       1       1      27
      26       1       1      27      26       1       1      27      26       1
       1      27      26       1       1      27      26       1       1      27
      26       1       1      27      26       1       1      27      26       1
       1      27      26       1       1      27      26       1       1      27
      26       1       1      27      26       1       1      27      26       1
       1      27      26       1       1      27      26       1       1      27
      26       1       1      27      26       1       1      27      26       1
       1      27      26       1       1      27      26       1       1      27
      26       1       1      27      26       1       1      27      26       1
       1      27      26       1       1      27      26       1       1      27
      26       1       1      27      26       1       1      27      26       1
       1      27      26       1       1      27      26       1       1      27
      26       1       1      27      26       1       1      27      26       1
       1      27      26       1       1      27      26       1       1      27
      26       1       1      27      26       1       1      27      26       1
       1      27      26       1       1      27      26       1       1      27
      26       1       1      27      26       1       1      27      26       1
       1      27      26       1       1      27      26       1       1      27
      26       1       1      27      26       1       1      27      26       1
       1      27      26       1       1      27      26       1       1      27
      26       1       1      27      26       1       1      27      26       1
       1      27      26       1       1      27      26       1       1      27
      26       1       1      27      26       1       1      27      26       1
       1      27      26       1       1      27      26       1       1      27
      26       1       1      27      26       1       1      27      26       1
       1      27      26       1       1      27      26       1       1      27
      26       1       1      27      26       1       1      27      26       1
       1      27      26       1       1      27      26       1       1      27
      26       1       1      27      26       1       1      27      26       1
       1      27      26       1       1      27      26       1       1      27
      26       1       1      27      26       1       1      27      26       1
       1      27      26       1       1      27      26       1       1      27
      26       1       1      27      26       1       1      27      26       1
       1      27      26       1       1      27      26       1       1      27
      26       1       1      27      26       1       1      27      26       1
       1      27      26       1       1      27      26       1       1      27
      26       1       1      27      26       1       1      27      26       1
       1      27      26       1       1      27      26       1       1      27
      26       1       1      27      26       1       1      27      26       1
       1      27      26       1       1      27      26       1       1      27
      26       1       1      27      26       1       1      27      26       1
       1      27      26       1       1      27      26       1       1      27
      26       1       1      27      26       1       1      27      26       1
       1      27      26       1       1      27      26       1       1      27
      26       1       1      27      26       1       1      27      26       1
       1      27      26       1       1      27      26       1       1      27
      26       1       1      27      26       1       1      27      26       1
       1      27      26       1       1      27      26       1       1      27
      26       1       1      27      26       1       1      27      26       1
       1      27      26       1       1      27      26       1       1      27
      26       1       1      27      26       1       1      27      26       1
       1      27      26       1       1      27      26       1       1      27
      26       1       1      27      26       1       1      27      26       1
       1      27      26       1       1      27      26       1       1      27
      26       1       1      27      26       1       1      27      26       1
       1      27      26       1       1      27      26       1       1      27
      26       1       1      27      26       1       1      27      26       1
       1      27      26       1       1      27      26       1       1      27
      26       1       1      27      26       1       1      27      26       1
       1      27      26       1       1      27      26       1       1      27
      26       1       1      27      26       1       1      27      26       1
       1      27      26       1       1      27      26       1       1      27
      26       1       1      27      26       1       1      27      26       1
       1      27      26       1       1      27      26       1       1      27
      26       1       1      27      26       1       1      27      26       1
       1      27      26       1       1      27      26       1       1      27
      26       1       1      27      26       1       1      27      26       1
       1      27      26       1       1      27      26       1       1      27
      26       1       1      27      26       1       1      27      26       1
       1      27      26       1       1      27      26       1       1      27
      26       1       1      27      26       1       1      27      26       1
       1      27      26       1       1      27      26       1       1      27
      26       1       1      27      26       1       1      27      26       1
       1      27      26       1       1      27      26       1       1      27
      26       1       1      27      26       1       1      27      26       1
       1      27      26       1       1      27      26       1       1      27
      26       1       1      27      26       1       1      27      26       1
       1      27      26       1       1      27      26       1       1      27
      26       1       1      27      26       1       1      27      26       1
       1      27      26       1       1      27      26       1       1      27
      26       1       1      27      26       1       1      27      26       1
       1      27      26       1       1      27      26       1       1      27
      26       1       1      27      26       1       1      27      26       1
       1      27      26       1       1      27      26       1       1      27
      26       1       1      27      26       1       1      27      26       1
       1      27      26       1       1      27      26       1       1      27
      26       1       1      27      26       1       1      27      26       1
       1      27      26       1       1      27      26       1       1      27
      26       1       1      27      26       1       1      27      26       1
       1      27      26       1       1      27      26       1       1      27
      26       1       1      27      26       1       1      27      26       1
       1      27      26       1       1      27      26       1       1      27
      26       1       1      27      26       1       1      27      26       1
       1      27      26       1       1      27      26       1       1      27
      26       1       1      27      26       1       1      27      26       1
       1      27      26       1       1      27      26       1       1      27
      26       1       1      27      26       1       1      27      26       1
       1      27      26       1       1      27      26       1       1      27
      26       1       1      27      26       1       1      27      26       1
       1      27      26       1       1      27      26       1       1      27
      26       1       1      27      26       1       1      27      26       1
       1      27      26       1       1      27      26       1       1      27
      26       1       1      27      26       1       1      27      26       1
       1      27      26       1       1      27      26       1       1      27
      26       1       1      27      26       1       1      27      26       1
       1      27      26       1       1      27      26       1       1      27
      26       1       1      27      26       1       1      27      26       1
       1      27      26       1       1      27      26       1       1      27
      26       1       1      27      26       1       1      27      26       1
       1      27      26       1       1      27      26       1       1      27
      26       1       1      27      26       1       1      27      26       1
       1      27      26       1       1      27      26       1       1      27
      26       1       1      27      26       1       1      27      26       1
       1      27      26       1       1      27      26       1       1      27
      26       1       1      27      26       1       1      27      26       1
       1      27      26       1       1      27      26       1       1      27
      26       1       1      27      26       1       1      27      26       1
       1      27      26       1       1      27      26       1       1      27
      26       1       1      27      26       1       1      27      26       1
       1      27      26       1       1      27      26       1       1      27
      26       1       1      27      26       1       1      27      26       1
       1      27      26       1       1      27      26       1       1      27
      26       1       1      27      26       1       1      27      26       1
       1      27      26       1       1      27      26       1       1      27
      26       1       1      27      26       1       1      27      26       1
       1      27      26       1       1      27      26       1       1      27
      26       1       1      27      26       1       1      27      26       1
       1      27      26       1       1      27      26       1       1      27
      26       1       1      27      26       1       1      27      26       1
       1      27      26       1       1      27      26       1       1      27
      26       1       1      27      26       1       1      27      26       1
       1      27      26       1       1      27      26       1       1      27
      26       1       1      27      26       1       1      27      26       1
       1      27      26       1       1      27      26       1       1      27
      26       1       1      27      26       1       1      27      26       1
       1      27      26       1       1      27      26       1       1      27
      26       1       1      27      26       1       1      27      26       1
       1      27      26       1       1      27      26       1       1      27
      26       1       1      27      26       1       1      27      26       1
       1      27      26       1       1      27      26       1       1      27
      26       1       1      27      26       1       1      27      26       1
       1      27      26       1       1      27      26       1       1      27
      26       1       1      27      26       1       1      27      26       1
       1      27      26       1       1      27      26       1       1      27
      26       1       1      27      26       1       1      27      26       1
       1      27      26       1       1      27      26       1       1      27
      26       1       1      27      26       1       1      27      26       1
       1      27      26       1       1      27      26       1       1      27
      26       1       1      27      26       1       1      27      26       1
       1      27      26       1       1      27      26       1       1      27
      26       1       1      27      26       1       1      27      26       1
       1      27      26       1       1      27      26       1       1      27
      26       1       1      27      26       1       1      27      26       1
       1      27      26       1       1      27      26       1       1      27
      26       1       1      27      26       1       1      27      26       1
       1      27      26       1       1      27      26       1       1      27
      26       1       1      27      26       1       1      27      26       1
       1      27      26       1       1      27      26       1       1      27
      26       1       1      27      26       1       1      27      26       1
       1      27      26       1       1      27      26       1       1      27
      26       1       1      27      26       1       1      27      26       1
       1      27      26       1       1      27      26       1       1      27
      26       1       1      27      26       1       1      27      26       1
       1      27      26       1       1      27      26       1       1      27
      26       1       1      27      26       1       1      27      26       1
       1      27      26       1       1      27      26       1       1      27
      26       1       1      27      26       1       1      27      26       1
       1      27      26       1       1      27      26       1       1      27
      26       1       1      27      26       1       1      27      26       1
       1      27      26       1       1      27      26       1       1      27
      26       1       1      27      26       1       1      27      26       1
       1      27      26       1       1      27      26       1       1      27
      26       1       1      27      26       1       1      27      26       1
       1      27      26       1       1      27      26       1       1      27
      26       1       1      27      26       1       1      27      26       1
       1      27      26       1       1      27      26       1       1      27
      26       1       1      27      26       1       1      27      26       1
       1      27      26       1       1      27      26       1       1      27
      26       1       1      27      26       1       1      27      26       1
       1      27      26       1       1      27      26       1       1      27
      26       1       1      27      26       1       1      27      26       1
       1      27      26       1       1      27      26       1       1      27
      26       1       1      27      26       1       1      27      26       1
       1      27      26       1       1      27      26       1       1      27
      26       1       1      27      26       1       1      27      26       1
       1      27      26       1       1      27      26       1       1      27
      26       1       1      27      26       1       1      27      26       1
       1      27      26       1       1      27      26       1       1      27
      26       1       1      27      26       1       1      27      26       1
       1      27      26       1       1      27      26       1       1      27
      26       1       1      27      26       1       1      27      26       1
       1      27      26       1       1      27      26       1       1      27
      26       1       1      27      26       1       1      27      26       1
       1      27      26       1       1      27      26       1       1      27
      26       1       1      27      26       1       1      27      26       1
       1      27      26       1       1      27      26       1       1      27
      26       1       1      27      26       1       1      27      26       1
       1      27      26       1       1      27      26       1       1      27
      26       1       1      27      26       1       1      27      26       1
       1      27      26       1       1      27      26       1       1      27
      26       1       1      27      26       1       1      27      26       1
       1      27      26       1       1      27      26       1       1      27
      26       1       1      27      26       1       1      27      26       1
       1      27      26       1       1      27      26       1       1      27
      26       1       1      27      26       1       1      27      26       1
       1      27      26       1       1      27      26       1       1      27
      26       1       1      27      26       1       1      27      26       1
       1      27      26       1       1      27      26       1       1      27
      26       1       1      27      26       1       1      27      26       1
       1      27      26       1       1      27      26       1       1      27
      26       1       1      27      26       1       1      27      26       1
       1      27      26       1       1      27      26       1       1      27
      26       1       1      27      26       1       1      27      26       1
       1      27      26       1       1      27      26       1       1      27
      26       1       1      27      26       1       1      27      26       1
       1      27      26       1       1      27      26       1       1      27
      26       1       1      27      26       1       1      27      26       1
       1      27      26       1       1      27      26       1       1      27
      26       1       1      27      26       1       1      27      26       1
       1      27      26       1       1      27      26       1       1      27
      26       1       1      27      26       1       1      27      26       1
       1      27      26       1       1      27      26       1       1      27
      26       1       1      27      26       1       1      27      26       1
       1      27      26       1       1      27      26       1       1      27
      26       1       1      27      26       1       1      27      26       1
       1      27      26       1       1      27      26       1       1      27
      26       1       1      27      26       1       1      27      26       1
       1      27      26       1       1      27      26       1       1      27
      26       1       1      27      26       1       1      27      26       1
       1      27      26       1       1      27      26       1       1      27
      26       1       1      27      26       1       1      27      26       1
       1      27      26       1       1      27      26       1       1      27
      26       1       1      27      26       1       1      27      26       1
       1      27      26       1       1      27      26       1       1      27
      26       1       1      27      26       1       1      27      26       1
       1      27      26       1       1      27      26       1       1      27
      26       1       1      27      26       1       1      27      26       1
       1      27      26       1       1      27      26       1       1      27
      26       1       1      27      26       1       1      27      26       1
       1      27      26       1       1      27      26       1       1      27
      26       1       1      27      26       1       1      27      26       1
       1      27      26       1       1      27      26       1       1      27
      26       1       1      27      26       1       1      27      26       1
       1      27      26       1       1      27      26       1       1      27
      26       1       1      27      26       1       1      27      26       1
       1      27      26       1       1      27      26       1       1      27
      26       1       1      27      26       1       1      27      26       1
       1      27      26       1       1      27      26       1       1      27
      26       1       1      27      26       1       1      27      26       1
       1      27      26       1       1      27      26       1       1      27
      26       1       1      27      26       1       1      27      26       1
       1      27      26       1       1      27      26       1       1      27
      26       1       1      27      26       1       1      27      26       1
       1      27      26       1       1      27      26       1       1      27
      26       1       1      27      26       1       1      27      26       1
       1      27      26       1       1      27      26       1       1      27
      26       1       1      27      26       1       1      27      26       1
       1      27      26       1       1      27      26       1       1      27
      26       1       1      27      26       1       1      27      26       1
       1      27      26       1       1      27      26       1       1      27
      26       1       1      27      26       1       1      27      26       1
       1      27      26       1       1      27      26       1       1      27
      26       1       1      27      26       1       1      27      26       1
       1      27      26       1       1      27      26       1       1      27
      26       1       1      27      26       1       1      27      26       1
       1      27      26       1       1      27      26       1       1      27
      26       1       1      27      26       1       1      27      26       1
       1      27      26       1       1      27      26       1       1      27
      26       1       1      27      26       1       1      27      26       1
       1      27      26       1       1      27      26       1       1      27
      26       1       1      27      26       1       1      27      26       1
       1      27      26       1       1      27      26       1       1      27
      26       1       1      27      26       1       1      27      26       1
       1      27      26       1       1      27      26       1       1      27
      26       1       1      27      26       1       1      27      26       1
       1      27      26       1       1      27      26       1       1      27
      26       1       1      27      26       1       1      27      26       1
       1      27      26       1       1      27      26       1       1      27
      26       1       1      27      26       1       1      27      26       1
       1      27      26       1       1      27      26       1       1      27
      26       1       1      27      26       1       1      27      26       1
       1      27      26       1       1      27      26       1       1      27
      26       1       1      27      26       1       1      27      26       1
       1      27      26       1       1      27      26       1       1      27
      26       1       1      27      26       1       1      27      26       1
       1      27      26       1       1      27      26       1       1      27
      26       1       1      27      26       1       1      27      26       1
       1      27      26       1       1      27      26       1       1      27
      26       1       1      27      26       1       1      27      26       1
       1      27      26       1       1      27      26       1       1      27
      26       1       1      27      26       1       1      27      26       1
       1      27      26       1       1      27      26       1       1      27
      26       1       1      27      26       1       1      27      26       1
       1      27      26       1       1      27      26       1       1      27
      26       1       1      27      26       1       1      27      26       1
       1      27      26       1       1      27      26       1       1      27
      26       1       1      27      26       1       1      27      26       1
       1      27      26       1       1      27      26       1       1      27
      26       1       1      27      26       1       1      27      26       1
       1      27      26       1       1      27      26       1       1      27
      26       1       1      27      26       1       1      27      26       1
       1      27      26       1       1      27      26       1       1      27
      26       1       1      27      26       1       1      27      26       1
       1      27      26       1       1      27      26       1       1      27
      26       1       1      27      26       1       1      27      26       1
       1      27      26       1       1      27      26       1       1      27
      26       1       1      27      26       1       1      27      26       1
       1      27      26       1       1      27      26       1       1      27
      26       1       1      27      26       1       1      27      26       1
       1      27      26       1       1      27      26       1       1      27
      26       1       1      27      26       1       1      27      26       1
       1      27      26       1       1      27      26       1       1      27
      26       1       1      27      26       1       1      27      26       1
       1      27      26       1       1      27      26       1       1      27
      26       1       1      27      26       1       1      27      26       1
       1      27      26       1       1      27      26       1       1      27
      26       1       1      27      26       1       1      27      26       1
       1      27      26       1       1      27      26       1       1      27
      26       1       1      27      26       1       1      27      26       1
       1      27      26       1       1      27      26       1       1      27
      26       1       1      27      26       1       1      27      26       1
       1      27      26       1       1      27      26       1       1      27
      26       1       1      27      26       1       1      27      26       1
       1      27      26       1       1      27      26       1       1      27
      26       1       1      27      26       1       1      27      26       1
       1      27      26       1       1      27      26       1       1      27
      26       1       1      27      26       1       1      27      26       1
       1      27      26       1       1      27      26       1       1      27
      26       1       1      27      26       1       1      27      26       1
       1      27      26       1       1      27      26       1       1      27
      26       1       1      27      26       1       1      27      26       1
       1      27      26       1       1      27      26       1       1      27
      26       1       1      27      26       1       1      27      26       1
       1      27      26       1       1      27      26       1       1      27
      26       1       1      27      26       1       1      27      26       1
       1      27      26       1       1      27      26       1       1      27
      26       1       1      27      26       1       1      27      26       1
       1      27      26       1       1      27      26       1       1      27
      26       1       1      27      26       1       1      27      26       1
       1      27      26       1       1      27      26       1       1      27
      26       1       1      27      26       1       1      27      26       1
       1      27      26       1       1      27      26       1       1      27
      26       1       1      27      26       1       1      27      26       1
       1      27      26       1       1      27      26       1       1      27
      26       1       1      27      26       1       1      27      26       1
       1      27      26       1       1      27      26       1       1      27
      26       1       1      27      26       1       1      27      26       1
       1      27      26       1       1      27      26       1       1      27
      26       1       1      27      26       1       1      27      26       1
       1      27      26       1       1      27      26       1       1      27
      26       1       1      27      26       1       1      27      26       1
       1      27      26       1       1      27      26       1       1      27
      26       1       1      27      26       1       1      27      26       1
       1      27      26       1       1      27      26       1       1      27
      26       1       1      27      26       1       1      27      26       1
       1      27      26       1       1      27      26       1       1      27
      26       1       1      27      26       1       1      27      26       1
       1      27      26       1       1      27      26       1       1      27
      26       1       1      27      26       1       1      27      26       1
       1      27      26       1       1      27      26       1       1      27
      26       1       1      27      26       1       1      27      26       1
       1      27      26       1       1      27      26       1       1      27
      26       1       1      27      26       1       1      27      26       1
       1      27      26       1       1      27      26       1       1      27
      26       1       1      27      26       1       1      27      26       1
       1      27      26       1       1      27      26       1       1      27
      26       1       1      27      26       1       1      27      26       1
       1      27      26       1       1      27      26       1       1      27
      26       1       1      27      26       1       1      27      26       1
       1      27      26       1       1      27      26       1       1      27
      26       1       1      27      26       1       1      27      26       1
       1      27      26       1       1      27      26       1       1      27
      26       1       1      27      26       1       1      27      26       1
       1      27      26       1       1      27      26       1       1      27
      26       1       1      27      26       1       1      27      26       1
       1      27      26       1       1      27      26       1       1      27
      26       1       1      27      26       1       1      27      26       1
       1      27      26       1       1      27      26       1       1      27
      26       1       1      27      26       1       1      27      26       1
       1      27      26       1       1      27      26       1       1      27
      26       1       1      27      26       1       1      27      26       1
       1      27      26       1       1      27      26       1       1      27
      26       1       1      27      26       1       1      27      26       1
       1      27      26       1       1      27      26       1       1      27
      26       1       1      27      26       1       1      27      26       1
       1      27      26       1       1      27      26       1       1      27
      26       1       1      27      26       1       1      27      26       1
       1      27      26       1       1      27      26       1       1      27
      26       1       1      27      26       1       1      27      26       1
       1      27      26       1       1      27      26       1       1      27
      26       1       1      27      26       1       1      27      26       1
       1      27      26       1       1      27      26       1       1      27
      26       1       1      27      26       1       1      27      26       1
       1      27      26       1       1      27      26       1       1      27
      26       1       1      27      26       1       1      27      26       1
       1      27      26       1       1      27      26       1       1      27
      26       1       1      27      26       1       1      27      26       1
       1      27      26       1       1      27      26       1       1      27
      26       1       1      27      26       1       1      27      26       1
       1      27      26       1       1      27      26       1       1      27
      26       1       1      27      26       1       1      27      26       1
       1      27      26       1       1      27      26       1       1      27
      26       1       1      27      26       1       1      27      26       1
       1      27      26       1       1      27      26       1       1      27
      26       1       1      27      26       1       1      27      26       1
       1      27      26       1       1      27      26       1       1      27
      26       1       1      27      26       1       1      27      26       1
       1      27      26       1       1      27      26       1       1      27
      26       1       1      27      26       1       1      27      26       1
       1      27      26       1       1      27      26       1       1      27
      26       1       1      27      26       1       1      27      26       1
       1      27      26       1       1      27      26       1       1      27
      26       1       1      27      26       1       1      27      26       1
       1      27      26       1       1      27      26       1       1      27
      26       1       1      27      26       1       1      27      26       1
       1      27      26       1       1      27      26       1       1      27
      26       1       1      27      26       1       1      27      26       1
       1      27      26       1       1      27      26       1       1      27
      26       1       1      27      26       1       1      27      26       1
       1      27      26       1       1      27      26       1       1      27
      26       1       1      27      26       1       1      27      26       1
       1      27      26       1       1      27      26       1       1      27
      26       1       1      27      26       1       1      27      26       1
       1      27      26       1       1      27      26       1       1      27
      26       1       1      27      26       1       1      27      26       1
       1      27      26       1       1      27      26       1       1      27
      26       1       1      27      26       1       1      27      26       1
       1      27      26       1       1      27      26       1       1      27
      26       1       1      27      26       1       1      27      26       1
       1      27      26       1       1      27      26       1       1      27
      26       1       1      27      26       1       1      27      26       1
       1      27      26       1       1      27      26       1       1      27
      26       1       1      27      26       1       1      27      26       1
       1      27      26       1       1      27      26       1       1      27
      26       1       1      27      26       1       1      27      26       1
       1      27      26       1       1      27      26       1       1      27
      26       1       1      27      26       1       1      27      26       1
       1      27      26       1       1      27      26       1       1      27
      26       1       1      27      26       1       1      27      26       1
       1      27      26       1       1      27      26       1       1      27
      26       1       1      27      26       1       1      27      26       1
       1      27      26       1       1      27      26       1       1      27
      26       1       1      27      26       1       1      27      26       1
       1      27      26       1       1      27      26       1       1      27
      26       1       1      27      26       1       1      27      26       1
       1      27      26       1       1      27      26       1       1      27
      26       1       1      27      26       1       1      27      26       1
       1      27      26       1       1      27      26       1       1      27
      26       1       1      27      26       1       1      27      26       1
       1      27      26       1       1      27      26       1       1      27
      26       1       1      27      26       1       1      27      26       1
       1      27      26       1       1      27      26       1       1      27
      26       1       1      27      26       1       1      27      26       1
       1      27      26       1       1      27      26       1       1      27
      26       1       1      27      26       1       1      27      26       1
       1      27      26       1       1      27      26       1       1      27
      26       1       1      27      26       1       1      27      26       1
       1      27      26       1       1      27      26       1       1      27
      26       1       1      27      26       1       1      27      26       1
       1      27      26       1       1      27      26       1       1      27
      26       1       1      27      26       1       1      27      26       1
       1      27      26       1       1      27      26       1       1      27
      26       1       1      27      26       1       1      27      26       1
       1      27      26       1       1      27      26       1       1      27
      26       1       1      27      26       1       1      27      26       1
       1      27      26       1       1      27      26       1       1      27
      26       1       1      27      26       1       1      27      26       1
       1      27      26       1       1      27      26       1       1      27
      26       1       1      27      26       1       1      27      26       1
       1      27      26       1       1      27      26       1       1      27
      26       1       1      27      26       1       1      27      26       1
       1      27      26       1       1      27      26       1       1      27
      26       1       1      27      26       1       1      27      26       1
       1      27      26       1       1      27      26       1       1      27
      26       1       1      27      26       1       1      27      26       1
       1      27      26       1       1      27      26       1       1      27
      26       1       1      27      26       1       1      27      26       1
       1      27      26       1       1      27      26       1       1      27
      26       1       1      27      26       1       1      27      26       1
       1      27      26       1       1      27      26       1       1      27
      26       1       1      27      26       1       1      27      26       1
       1      27      26       1       1      27      26       1       1      27
      26       1       1      27      26       1       1      27      26       1
       1      27      26       1       1      27      26       1       1      27
      26       1       1      27      26       1       1      27      26       1
       1      27      26       1       1      27      26       1       1      27
      26       1       1      27      26       1       1      27      26       1
       1      27      26       1       1      27      26       1       1      27
      26       1       1      27      26       1       1      27      26       1
       1      27      26       1       1      27      26       1       1      27
      26       1       1      27      26       1       1      27      26       1
       1      27      26       1       1      27      26       1       1      27
      26       1       1      27      26       1       1      27      26       1
       1      27      26       1       1      27      26       1       1      27
      26       1       1      27      26       1       1      27      26       1
       1      27      26       1       1      27      26       1       1      27
      26       1       1      27      26       1       1      27      26       1
       1      27      26       1       1      27      26       1       1      27
      26       1       1      27      26       1       1      27      26       1
       1      27      26       1       1      27      26       1       1      27
      26       1       1      27      26       1       1      27      26       1
       1      27      26       1       1      27      26       1       1      27
      26       1       1      27      26       1       1      27      26       1
       1      27      26       1       1      27      26       1       1      27
      26       1       1      27      26       1       1      27      26       1
       1      27      26       1       1      27      26       1       1      27
      26       1       1      27      26       1       1      27      26       1
       1      27      26       1       1      27      26       1       1      27
      26       1       1      27      26       1       1      27      26       1
       1      27      26       1       1      27      26       1       1      27
      26       1       1      27      26       1       1      27      26       1
       1      27      26       1       1      27      26       1       1      27
      26       1       1      27      26       1       1      27      26       1
       1      27      26       1       1      27      26       1       1      27
      26       1       1      27      26       1       1      27      26       1
       1      27      26       1       1      27      26       1       1      27
      26       1       1      27      26       1       1      27      26       1
       1      27      26       1       1      27      26       1       1      27
      26       1       1      27      26       1       1      27      26       1
       1      27      26       1       1      27      26       1       1      27
      26       1       1      27      26       1       1      27      26       1
       1      27      26       1       1      27      26       1       1      27
      26       1       1      27      26       1       1      27      26       1
       1      27      26       1       1      27      26       1       1      27
      26       1       1      27      26       1       1      27      26       1
       1      27      26       1       1      27      26       1       1      27
      26       1       1      27      26       1       1      27      26       1
       1      27      26       1       1      27      26       1       1      27
      26       1       1      27      26       1       1      27      26       1
       1      27      26       1       1      27      26       1       1      27
      26       1       1      27      26       1       1      27      26       1
       1      27      26       1       1      27      26       1       1      27
      26       1       1      27      26       1       1      27      26       1
       1      27      26       1       1      27      26       1       1      27
      26       1       1      27      26       1       1      27      26       1
       1      27      26       1       1      27      26       1       1      27
      26       1       1      27      26       1       1      27      26       1
       1      27      26       1       1      27      26       1       1      27
      26       1       1      27      26       1       1      27      26       1
       1      27      26       1       1      27      26       1       1      27
      26       1       1      27      26       1       1      27      26       1
       1      27      26       1       1      27      26       1       1      27
      26       1       1      27      26       1       1      27      26       1
       1      27      26       1       1      27      26       1       1      27
      26       1       1      27      26       1       1      27      26       1
       1      27      26       1       1      27      26       1       1      27
      26       1       1      27      26       1       1      27      26       1
       1      27      26       1       1      27      26       1       1      27
      26       1       1      27      26       1       1      27      26       1
       1      27      26       1       1      27      26       1       1      27
      26       1       1      27      26       1       1      27      26       1
       1      27      26       1       1      27      26       1       1      27
      26       1       1      27      26       1       1      27      26       1
       1      27      26       1       1      27      26       1       1      27
      26       1       1      27      26       1       1      27      26       1
       1      27      26       1       1      27      26       1       1      27
      26       1       1      27      26       1       1      27      26       1
       1      27      26       1       1      27      26       1       1      27
      26       1       1      27      26       1       1      27      26       1
       1      27      26       1       1      27      26       1       1      27
      26       1       1      27      26       1       1      27      26       1
       1      27      26       1       1      27      26       1       1      27
      26       1       1      27      26       1       1      27      26       1
       1      27      26       1       1      27      26       1       1      27
      26       1       1      27      26       1       1      27      26       1
       1      27      26       1       1      27      26       1       1      27
      26       1       1      27      26       1       1      27      26       1
       1      27      26       1       1      27      26       1       1      27
      26       1       1      27      26       1       1      27      26       1
       1      27      26       1       1      27      26       1       1      27
      26       1       1      27      26       1       1      27      26       1
       1      27      26       1       1      27      26       1       1      27
      26       1       1      27      26       1       1      27      26       1
       1      27      26       1       1      27      26       1       1      27
      26       1       1      27      26       1       1      27      26       1
       1      27      26       1       1      27      26       1       1      27
      26       1       1      27      26       1       1      27      26       1
       1      27      26       1       1      27      26       1       1      27
      26       1       1      27      26       1       1      27      26       1
       1      27      26       1       1      27      26       1       1      27
      26       1       1      27      26       1       1      27      26       1
       1      27      26       1       1      27      26       1       1      27
      26       1       1      27      26       1       1      27      26       1
       1      27      26       1       1      27      26       1       1      27
      26       1       1      27      26       1       1      27      26       1
       1      27      26       1       1      27      26       1       1      27
      26       1       1      27      26       1       1      27      26       1
       1      27      26       1       1      27      26       1       1      27
      26       1       1      27      26       1       1      27      26       1
       1      27      26       1       1      27      26       1       1      27
      26       1       1      27      26       1       1      27      26       1
       1      27      26       1       1      27      26       1       1      27
      26       1       1      27      26       1       1      27      26       1
       1      27      26       1       1      27      26       1       1      27
      26       1       1      27      26       1       1      27      26       1
       1      27      26       1       1      27      26       1       1      27
      26       1       1      27      26       1       1      27      26       1
       1      27      26       1       1      27      26       1       1      27
      26       1       1      27      26       1       1      27      26       1
       1      27      26       1       1      27      26       1       1      27
      26       1       1      27      26       1       1      27      26       1
       1      27      26       1       1      27      26       1       1      27
      26       1       1      27      26       1       1      27      26       1
       1      27      26       1       1      27      26       1       1      27
      26       1       1      27      26       1       1      27      26       1
       1      27      26       1       1      27      26       1       1      27
      26       1       1      27      26       1       1      27      26       1
       1      27      26       1       1      27      26       1       1      27
      26       1       1      27      26       1       1      27      26       1
       1      27      26       1       1      27      26       1       1      27
      26       1       1      27      26       1       1      27      26       1
       1      27      26       1       1      27      26       1       1      27
      26       1       1      27      26       1       1      27      26       1
       1      27      26       1       1      27      26       1       1      27
      26       1       1      27      26       1       1      27      26       1
       1      27      26       1       1      27      26       1       1      27
      26       1       1      27      26       1       1      27      26       1
       1      27      26       1       1      27      26       1       1      27
      26       1       1      27      26       1       1      27      26       1
       1      27      26       1       1      27      26       1       1      27
      26       1       1      27      26       1       1      27      26       1
       1      27      26       1       1      27      26       1       1      27
      26       1       1      27      26       1       1      27      26       1
       1      27      26       1       1      27      26       1       1      27
      26       1       1      27      26       1       1      27      26       1
       1      27      26       1       1      27      26       1       1      27
      26       1       1      27      26       1       1      27      26       1
       1      27      26       1       1      27      26       1       1      27
      26       1       1      27      26       1       1      27      26       1
       1      27      26       1       1      27      26       1       1      27
      26       1       1      27      26       1       1      27      26       1
       1      27      26       1       1      27      26       1       1      27
      26       1       1      27      26       1       1      27      26       1
       1      27      26       1       1      27      26       1       1      27
      26       1       1      27      26       1       1      27      26       1
       1      27      26       1       1      27      26       1       1      27
      26       1       1      27      26       1       1      27      26       1
       1      27      26       1       1      27      26       1       1      27
      26       1       1      27      26       1       1      27      26       1
       1      27      26       1       1      27      26       1       1      27
      26       1       1      27      26       1       1      27      26       1
       1      27      26       1       1      27      26       1       1      27
      26       1       1      27      26       1       1      27      26       1
       1      27      26       1       1      27      26       1       1      27
      26       1       1      27      26       1       1      27      26       1
       1      27      26       1       1      27      26       1       1      27
      26       1       1      27      26       1       1      27      26       1
       1      27      26       1       1      27      26       1       1      27
      26       1       1      27      26       1       1      27      26       1
       1      27      26       1       1      27      26       1       1      27
      26       1       1      27      26       1       1      27      26       1
       1      27      26       1       1      27      26       1       1      27
      26       1       1      27      26       1       1      27      26       1
       1      27      26       1       1      27      26       1       1      27
      26       1       1      27      26       1       1      27      26       1
       1      27      26       1       1      27      26       1       1      27
      26       1       1      27      26       1       1      27      26       1
       1      27      26       1       1      27      26       1       1      27
      26       1       1      27      26       1       1      27      26       1
       1      27      26       1       1      27      26       1       1      27
      26       1       1      27      26       1       1      27      26       1
       1      27      26       1       1      27      26       1       1      27
      26       1       1      27      26       1       1      27      26       1
       1      27      26       1       1      27      26       1       1      27
      26       1       1      27      26       1       1      27      26       1
       1      27      26       1       1      27      26       1       1      27
      26       1       1      27      26       1       1      27      26       1
       1      27      26       1       1      27      26       1       1      27
      26       1       1      27      26       1       1      27      26       1
       1      27      26       1       1      27      26       1       1      27
      26       1       1      27      26       1       1      27      26       1
       1      27      26       1       1      27      26       1       1      27
      26       1       1      27      26       1       1      27      26       1
       1      27      26       1       1      27      26       1       1      27
      26       1       1      27      26       1       1      27      26       1
       1      27      26       1       1      27      26       1       1      27
      26       1       1      27      26       1       1      27      26       1
       1      27      26       1       1      27      26       1       1      27
      26       1       1      27      26       1       1      27      26       1
       1      27      26       1       1      27      26       1       1      27
      26       1       1      27      26       1       1      27      26       1
       1      27      26       1       1      27      26       1       1      27
      26       1       1      27      26       1       1      27      26       1
       1      27      26       1       1      27      26       1       1      27
      26       1       1      27      26       1       1      27      26       1
       1      27      26       1       1      27      26       1       1      27
      26       1       1      27      26       1       1      27      26       1
       1      27      26       1       1      27      26       1       1      27
      26       1       1      27      26       1       1      27      26       1
       1      27      26       1       1      27      26       1       1      27
      26       1       1      27      26       1       1      27      26       1
       1      27      26       1       1      27      26       1       1      27
      26       1       1      27      26       1       1      27      26       1
       1      27      26       1       1      27      26       1       1      27
      26       1       1      27      26       1       1      27      26       1
       1      27      26       1       1      27      26       1       1      27
      26       1       1      27      26       1       1      27      26       1
       1      27      26       1       1      27      26       1       1      27
      26       1       1      27      26       1       1      27      26       1
       1      27      26       1       1      27      26       1       1      27
      26       1       1      27      26       1       1      27      26       1
       1      27      26       1       1      27      26       1       1      27
      26       1       1      27      26       1       1      27      26       1
       1      27      26       1       1      27      26       1       1      27
      26       1       1      27      26       1       1      27      26       1
       1      27      26       1       1      27      26       1       1      27
      26       1       1      27      26       1       1      27      26       1
       1      27      26       1       1      27      26       1       1      27
      26       1       1      27      26       1       1      27      26       1
       1      27      26       1       1      27      26       1       1      27
      26       1       1      27      26       1       1      27      26       1
       1      27      26       1       1      27      26       1       1      27
      26       1       1      27      26       1       1      27      26       1
       1      27      26       1       1      27      26       1       1      27
      26       1       1      27      26       1       1      27      26       1
       1      27      26       1       1      27      26       1       1      27
      26       1       1      27      26       1       1      27      26       1
       1      27      26       1       1      27      26       1       1      27
      26       1       1      27      26       1       1      27      26       1
       1      27      26       1       1      27      26       1       1      27
      26       1       1      27      26       1       1      27      26       1
       1      27      26       1       1      27      26       1       1      27
      26       1       1      27      26       1       1      27      26       1
       1      27      26       1       1      27      26       1       1      27
      26       1       1      27      26       1       1      27      26       1
       1      27      26       1       1      27      26       1       1      27
      26       1       1      27      26       1       1      27      26       1
       1      27      26       1       1      27      26       1       1      27
      26       1       1      27      26       1       1      27      26       1
       1      27      26       1       1      27      26       1       1      27
      26       1       1      27      26       1       1      27      26       1
       1      27      26       1       1      27      26       1       1      27
      26       1       1      27      26       1       1      27      26       1
       1      27      26       1       1      27      26       1       1      27
      26       1       1      27      26       1       1      27      26       1
       1      27      26       1       1      27      26       1       1      27
      26       1       1      27      26       1       1      27      26       1
       1      27      26       1       1      27      26       1       1      27
      26       1       1      27      26       1       1      27      26       1
       1      27      26       1       1      27      26       1       1      27
      26       1       1      27      26       1       1      27      26       1
       1      27      26       1       1      27      26       1       1      27
      26       1       1      27      26       1       1      27      26       1
       1      27      26       1       1      27      26       1       1      27
      26       1       1      27      26       1       1      27      26       1
       1      27      26       1       1      27      26       1       1      27
      26       1       1      27      26       1       1      27      26       1
       1      27      26       1       1      27      26       1       1      27
      26       1       1      27      26       1       1      27      26       1
       1      27      26       1       1      27      26       1       1      27
      26       1       1      27      26       1       1      27      26       1
       1      27      26       1       1      27      26       1       1      27
      26       1       1      27      26       1       1      27      26       1
       1      27      26       1       1      27      26       1       1      27
      26       1       1      27      26       1       1      27      26       1
       1      27      26       1       1      27      26       1       1      27
      26       1       1      27      26       1       1      27      26       1
       1      27      26       1       1      27      26       1       1      27
      26       1       1      27      26       1       1      27      26       1
       1      27      26       1       1      27      26       1       1      27
      26       1       1      27      26       1       1      27      26       1
       1      27      26       1       1      27      26       1       1      27
      26       1       1      27      26       1       1      27      26       1
       1      27      26       1       1      27      26       1       1      27
      26       1       1      27      26       1       1      27      26       1
       1      27      26       1       1      27      26       1       1      27
      26       1       1      27      26       1       1      27      26       1
       1      27      26       1       1      27      26       1       1      27
      26       1       1      27      26       1       1      27      26       1
       1      27      26       1       1      27      26       1       1      27
      26       1       1      27      26       1       1      27      26       1
       1      27      26       1       1      27      26       1       1      27
      26       1       1      27      26       1       1      27      26       1
       1      27      26       1       1      27      26       1       1      27
      26       1       1      27      26       1       1      27      26       1
       1      27      26       1       1      27      26       1       1      27
      26       1       1      27      26       1       1      27      26       1
       1      27      26       1       1      27      26       1       1      27
      26       1       1      27      26       1       1      27      26       1
       1      27      26       1       1      27      26       1       1      27
      26       1       1      27      26       1       1      27      26       1
       1      27      26       1       1      27      26       1       1      27
      26       1       1      27      26       1       1      27      26       1
       1      27      26       1       1      27      26       1       1      27
      26       1       1      27      26       1       1      27      26       1
       1      27      26       1       1      27      26       1       1      27
      26       1       1      27      26       1       1      27      26       1
       1      27      26       1       1      27      26       1       1      27
      26       1       1      27      26       1       1      27      26       1
       1      27      26       1       1      27      26       1       1      27
      26       1       1      27      26       1       1      27      26       1
       1      27      26       1       1      27      26       1       1      27
      26       1       1      27      26       1       1      27      26       1
       1      27      26       1       1      27      26       1       1      27
      26       1       1      27      26       1       1      27      26       1
       1      27      26       1       1      27      26       1       1      27
      26       1       1      27      26       1       1      27      26       1
       1      27      26       1       1      27      26       1       1      27
      26       1       1      27      26       1       1      27      26       1
       1      27      26       1       1      27      26       1       1      27
      26       1       1      27      26       1       1      27      26       1
       1      27      26       1       1      27      26       1       1      27
      26       1       1      27      26       1       1      27      26       1
       1      27      26       1       1      27      26       1       1      27
      26       1       1      27      26       1       1      27      26       1
       1      27      26       1       1      27      26       1       1      27
      26       1       1      27      26       1       1      27      26       1
       1      27      26       1       1      27      26       1       1      27
      26       1       1      27      26       1       1      27      26       1
       1      27      26       1       1      27      26       1       1      27
      26       1       1      27      26       1       1      27      26       1
       1      27      26       1       1      27      26       1       1      27
      26       1       1      27      26       1       1      27      26       1
       1      27      26       1       1      27      26       1       1      27
      26       1       1      27      26       1       1      27      26       1
       1      27      26       1       1      27      26       1       1      27
      26       1       1      27      26       1       1      27      26       1
       1      27      26       1       1      27      26       1       1      27
      26       1       1      27      26       1       1      27      26       1
       1      27      26       1       1      27      26       1       1      27
      26       1       1      27      26       1       1      27      26       1
       1      27      26       1       1      27      26       1       1      27
      26       1       1      27      26       1       1      27      26       1
       1      27      26       1       1      27      26       1       1      27
      26       1       1      27      26       1       1      27      26       1
       1      27      26       1       1      27      26       1       1      27
      26       1       1      27      26       1       1      27      26       1
       1      27      26       1       1      27      26       1       1      27
      26       1       1      27      26       1       1      27      26       1
       1      27      26       1       1      27      26       1       1      27
      26       1       1      27      26       1       1      27      26       1
       1      27      26       1       1      27      26       1       1      27
      26       1       1      27      26       1       1      27      26       1
       1      27      26       1       1      27      26       1       1      27
      26       1       1      27      26       1       1      27      26       1
       1      27      26       1       1      27      26       1       1      27
      26       1       1      27      26       1       1      27      26       1
       1      27      26       1       1      27      26       1       1      27
      26       1       1      27      26       1       1      27      26       1
       1      27      26       1       1      27      26       1       1      27
      26       1       1      27      26       1       1      27      26       1
       1      27      26       1       1      27      26       1       1      27
      26       1       1      27      26       1       1      27      26       1
       1      27      26       1       1      27      26       1       1      27
      26       1       1      27      26       1       1      27      26       1
       1      27      26       1       1      27      26       1       1      27
      26       1       1      27      26       1       1      27      26       1
       1      27      26       1       1      27      26       1       1      27
      26       1       1      27      26       1       1      27      26       1
       1      27      26       1       1      27      26       1       1      27
      26       1       1      27      26       1       1      27      26       1
       1      27      26       1       1      27      26       1       1      27
      26       1       1      27      26       1       1      27      26       1
       1      27      26       1       1      27      26       1       1      27
      26       1       1      27      26       1       1      27      26       1
       1      27      26       1       1      27      26       1       1      27
      26       1       1      27      26       1       1      27      26       1
       1      27      26       1       1      27      26       1       1      27
      26       1       1      27      26       1       1      27      26       1
       1      27      26       1       1      27      26       1       1      27
      26       1       1      27      26       1       1      27      26       1
       1      27      26       1       1      27      26       1       1      27
      26       1       1      27      26       1       1      27      26       1
       1      27      26       1       1      27      26       1       1      27
      26       1       1      27      26       1       1      27      26       1
       1      27      26       1       1      27      26       1       1      27
      26       1       1      27      26       1       1      27      26       1
       1      27      26       1       1      27      26       1       1      27
      26       1       1      27      26       1       1      27      26       1
       1      27      26       1       1      27      26       1       1      27
      26       1       1      27      26       1       1      27      26       1
       1      27      26       1       1      27      26       1       1      27
      26       1       1      27      26       1       1      27      26       1
       1      27      26       1       1      27      26       1       1      27
      26       1       1      27      26       1       1      27      26       1
       1      27      26       1       1      27      26       1       1      27
      26       1       1      27      26       1       1      27      26       1
       1      27      26       1       1      27      26       1       1      27
      26       1       1      27      26       1       1      27      26       1
       1      27      26       1       1      27      26       1       1      27
      26       1       1      27      26       1       1      27      26       1
       1      27      26       1       1      27      26       1       1      27
      26       1       1      27      26       1       1      27      26       1
       1      27      26       1       1      27      26       1       1      27
      26       1       1      27      26       1       1      27      26       1
       1      27      26       1       1      27      26       1       1      27
      26       1       1      27      26       1       1      27      26       1
       1      27      26       1       1      27      26       1       1      27
      26       1       1      27      26       1       1      27      26       1
       1      27      26       1       1      27      26       1       1      27
      26       1       1      27      26       1       1      27      26       1
       1      27      26       1       1      27      26       1       1      27
      26       1       1      27      26       1       1      27      26       1
       1      27      26       1       1      27      26       1       1      27
      26       1       1      27      26       1       1      27      26       1
       1      27      26       1       1      27      26       1       1      27
      26       1       1      27      26       1       1      27      26       1
       1      27      26       1       1      27      26       1       1      27
      26       1       1      27      26       1       1      27      26       1
       1      27      26       1       1      27      26       1       1      27
      26       1       1      27      26       1       1      27      26       1
       1      27      26       1       1      27      26       1       1      27
      26       1       1      27      26       1       1      27      26       1
       1      27      26       1       1      27      26       1       1      27
      26       1       1      27      26       1       1      27      26       1
       1      27      26       1       1      27      26       1       1      27
      26       1       1      27      26       1       1      27      26       1
       1      27      26       1       1      27      26       1       1      27
      26       1       1      27      26       1       1      27      26       1
       1      27      26       1       1      27      26       1       1      27
      26       1       1      27      26       1       1      27      26       1
       1      27      26       1       1      27      26       1       1      27
      26       1       1      27      26       1       1      27      26       1
       1      27      26       1       1      27      26       1       1      27
      26       1       1      27      26       1       1      27      26       1
       1      27      26       1       1      27      26       1       1      27
      26       1       1      27      26       1       1      27      26       1
       1      27      26       1       1      27      26       1       1      27
      26       1       1      27      26       1       1      27      26       1
       1      27      26       1       1      27      26       1       1      27
      26       1       1      27      26       1       1      27      26       1
       1      27      26       1       1      27      26       1       1      27
      26       1       1      27      26       1       1      27      26       1
       1      27      26       1       1      27      26       1       1      27
      26       1       1      27      26       1       1      27      26       1
       1      27      26       1       1      27      26       1       1      27
      26       1       1      27      26       1       1      27      26       1
       1      27      26       1       1      27      26       1       1      27
      26       1       1      27      26       1       1      27      26       1
       1      27      26       1       1      27      26       1       1      27
      26       1       1      27      26       1       1      27      26       1
       1      27      26       1       1      27      26       1       1      27
      26       1       1      27      26       1       1      27      26       1
       1      27      26       1       1      27      26       1       1      27
      26       1       1      27      26       1       1      27      26       1
       1      27      26       1       1      27      26       1       1      27
      26       1       1      27      26       1       1      27      26       1
       1      27      26       1       1      27      26       1       1      27
      26       1       1      27      26       1       1      27      26       1
       1      27      26       1       1      27      26       1       1      27
      26       1       1      27      26       1       1      27      26       1
       1      27      26       1       1      27      26       1       1      27
      26       1       1      27      26       1       1      27      26       1
       1      27      26       1       1      27      26       1       1      27
      26       1       1      27      26       1       1      27      26       1
       1      27      26       1       1      27      26       1       1      27
      26       1       1      27      26       1       1      27      26       1
       1      27      26       1       1      27      26       1       1      27
      26       1       1      27      26       1       1      27      26       1
       1      27      26       1       1      27      26       1       1      27
      26       1       1      27      26       1       1      27      26       1
       1      27      26       1       1      27      26       1       1      27
      26       1       1      27      26       1       1      27      26       1
       1      27      26       1       1      27      26       1       1      27
      26       1       1      27      26       1       1      27      26       1
       1      27      26       1       1      27      26       1       1      27
      26       1       1      27      26       1       1      27      26       1
       1      27      26       1       1      27      26       1       1      27
      26       1       1      27      26       1       1      27      26       1
       1      27      26       1       1      27      26       1       1      27
      26       1       1      27      26       1       1      27      26       1
       1      27      26       1       1      27      26       1       1      27
      26       1       1      27      26       1       1      27      26       1
       1      27      26       1       1      27      26       1       1      27
      26       1       1      27      26       1       1      27      26       1
       1      27      26       1       1      27      26       1       1      27
      26       1       1      27      26       1       1      27      26       1
       1      27      26       1       1      27      26       1       1      27
      26       1       1      27      26       1       1      27      26       1
       1      27      26       1       1      27      26       1       1      27
      26       1       1      27      26       1       1      27      26       1
       1      27      26       1       1      27      26       1       1      27
      26       1       1      27      26       1       1      27      26       1
       1      27      26       1       1      27      26       1       1      27
      26       1       1      27      26       1       1      27      26       1
       1      27      26       1       1      27      26       1       1      27
      26       1       1      27      26       1       1      27      26       1
       1      27      26       1       1      27      26       1       1      27
      26       1       1      27      26       1       1      27      26       1
       1      27      26       1       1      27      26       1       1      27
      26       1       1      27      26       1       1      27      26       1
       1      27      26       1       1      27      26       1       1      27
      26       1       1      27      26       1       1      27      26       1
       1      27      26       1       1      27      26       1       1      27
      26       1       1      27      26       1       1      27      26       1
       1      27      26       1       1      27      26       1       1      27
      26       1       1      27      26       1       1      27      26       1
       1      27      26       1       1      27      26       1       1      27
      26       1       1      27      26       1       1      27      26       1
       1      27      26       1       1      27      26       1       1      27
      26       1       1      27      26       1       1      27      26       1
       1      27      26       1       1      27      26       1       1      27
      26       1       1      27      26       1       1      27      26       1
       1      27      26       1       1      27      26       1       1      27
      26       1       1      27      26       1       1      27      26       1
       1      27      26       1       1      27      26       1       1      27
      26       1       1      27      26       1       1      27      26       1
       1      27      26       1       1      27      26       1       1      27
      26       1       1      27      26       1       1      27      26       1
       1      27      26       1       1      27      26       1       1      27
      26       1       1      27      26       1       1      27      26       1
       1      27      26       1       1      27      26       1       1      27
      26       1       1      27      26       1       1      27      26       1
       1      27      26       1       1      27      26       1       1      27
      26       1       1      27      26       1       1      27      26       1
       1      27      26       1       1      27      26       1       1      27
      26       1       1      27      26       1       1      27      26       1
       1      27      26       1       1      27      26       1       1      27
      26       1       1      27      26       1       1      27      26       1
       1      27      26       1       1      27      26       1       1      27
      26       1       1      27      26       1       1      27      26       1
       1      27      26       1       1      27      26       1       1      27
      26       1       1      27      26       1       1      27      26       1
       1      27      26       1       1      27      26       1       1      27
      26       1       1      27      26       1       1      27      26       1
       1      27      26       1       1      27      26       1       1      27
      26       1       1      27      26       1       1      27      26       1
       1      27      26       1       1      27      26       1       1      27
      26       1       1      27      26       1       1      27      26       1
       1      27      26       1       1      27      26       1       1      27
      26       1       1      27      26       1       1      27      26       1
       1      27      26       1       1      27      26       1       1      27
      26       1       1      27      26       1       1      27      26       1
       1      27      26       1       1      27      26       1       1      27
      26       1       1      27      26       1       1      27      26       1
       1      27      26       1       1      27      26       1       1      27
      26       1       1      27      26       1       1      27      26       1
       1      27      26       1       1      27      26       1       1      27
      26       1       1      27      26       1       1      27      26       1
       1      27      26       1       1      27      26       1       1      27
      26       1       1      27      26       1       1      27      26       1
       1      27      26       1       1      27      26       1       1      27
      26       1       1      27      26       1       1      27      26       1
       1      27      26       1       1      27      26       1       1      27
      26       1       1      27      26       1       1      27      26       1
       1      27      26       1       1      27      26       1       1      27
      26       1       1      27      26       1       1      27      26       1
       1      27      26       1       1      27      26       1       1      27
      26       1       1      27      26       1       1      27      26       1
       1      27      26       1       1      27      26       1       1      27
      26       1       1      27      26       1       1      27      26       1
       1      27      26       1       1      27      26       1       1      27
      26       1       1      27      26       1       1      27      26       1
       1      27      26       1       1      27      26       1       1      27
      26       1       1      27      26       1       1      27      26       1
       1      27      26       1       1      27      26       1       1      27
      26       1       1      27      26       1       1      27      26       1
       1      27      26       1       1      27      26       1       1      27
      26       1       1      27      26       1       1      27      26       1
       1      27      26       1       1      27      26       1       1      27
      26       1       1      27      26       1       1      27      26       1
       1      27      26       1       1      27      26       1       1      27
      26       1       1      27      26       1       1      27      26       1
       1      27      26       1       1      27      26       1       1      27
      26       1       1      27      26       1       1      27      26       1
       1      27      26       1       1      27      26       1       1      27
      26       1       1      27      26       1       1      27      26       1
       1      27      26       1       1      27      26       1       1      27
      26       1       1      27      26       1       1      27      26       1
       1      27      26       1       1      27      26       1       1      27
      26       1       1      27      26       1       1      27      26       1
       1      27      26       1       1      27      26       1       1      27
      26       1       1      27      26       1       1      27      26       1
       1      27      26       1       1      27      26       1       1      27
      26       1       1      27      26       1       1      27      26       1
       1      27      26       1       1      27      26       1       1      27
      26       1       1      27      26       1       1      27      26       1
       1      27      26       1       1      27      26       1       1      27
      26       1       1      27      26       1       1      27      26       1
       1      27      26       1       1      27      26       1       1      27
      26       1       1      27      26       1       1      27      26       1
       1      27      26       1       1      27      26       1       1      27
      26       1       1      27      26       1       1      27      26       1
       1      27      26       1       1      27      26       1       1      27
      26       1       1      27      26       1       1      27      26       1
       1      27      26       1       1      27      26       1       1      27
      26       1       1      27      26       1       1      27      26       1
       1      27      26       1       1      27      26       1       1      27
      26       1       1      27      26       1       1      27      26       1
       1      27      26       1       1      27      26       1       1      27
      26       1       1      27      26       1       1      27      26       1
       1      27      26       1       1      27      26       1       1      27
      26       1       1      27      26       1       1      27      26       1
       1      27      26       1       1      27      26       1       1      27
      26       1       1      27      26       1       1      27      26       1
       1      27      26       1       1      27      26       1       1      27
      26       1       1      27      26       1       1      27      26       1
       1      27      26       1       1      27      26       1       1      27
      26       1       1      27      26       1       1      27      26       1
       1      27      26       1       1      27      26       1       1      27
      26       1       1      27      26       1       1      27      26       1
       1      27      26       1       1      27      26       1       1      27
      26       1       1      27      26       1       1      27      26       1
       1      27      26       1       1      27      26       1       1      27
      26       1       1      27      26       1       1      27      26       1
       1      27      26       1       1      27      26       1       1      27
      26       1       1      27      26       1       1      27      26       1
       1      27      26       1       1      27      26       1       1      27
      26       1       1      27      26       1       1      27      26       1
       1      27      26       1       1      27      26       1       1      27
      26       1       1      27      26       1       1      27      26       1
       1      27      26       1       1      27      26       1       1      27
      26       1       1      27      26       1       1      27      26       1
       1      27      26       1       1      27      26       1       1      27
      26       1       1      27      26       1       1      27      26       1
       1      27      26       1       1      27      26       1       1      27
      26       1       1      27      26       1       1      27      26       1
       1      27      26       1       1      27      26       1       1      27
      26       1       1      27      26       1       1      27      26       1
       1      27      26       1       1      27      26       1       1      27
      26       1       1      27      26       1       1      27      26       1
       1      27      26       1       1      27      26       1       1      27
      26       1       1      27      26       1       1      27      26       1
       1      27      26       1       1      27      26       1       1      27
      26       1       1      27      26       1       1      27      26       1
       1      27      26       1       1      27      26       1       1      27
      26       1       1      27      26       1       1      27      26       1
       1      27      26       1       1      27      26       1       1      27
      26       1       1      27      26       1       1      27      26       1
       1      27      26       1       1      27      26       1       1      27
      26       1       1      27      26       1       1      27      26       1
       1      27      26       1       1      27      26       1       1      27
      26       1       1      27      26       1       1      27      26       1
       1      27      26       1       1      27      26       1       1      27
      26       1       1      27      26       1       1      27      26       1
       1      27      26       1       1      27      26       1       1      27
      26       1       1      27      26       1       1      27      26       1
       1      27      26       1       1      27      26       1       1      27
      26       1       1      27      26       1       1      27      26       1
       1      27      26       1       1      27      26       1       1      27
      26       1       1      27      26       1       1      27      26       1
       1      27      26       1       1      27      26       1       1      27
      26       1       1      27      26       1       1      27      26       1
       1      27      26       1       1      27      26       1       1      27
      26       1       1      27      26       1       1      27      26       1
       1      27      26       1       1      27      26       1       1      27
      26       1       1      27      26       1       1      27      26       1
       1      27      26       1       1      27      26       1       1      27
      26       1       1      27      26       1       1      27      26       1
       1      27      26       1       1      27      26       1       1      27
      26       1       1      27      26       1       1      27      26       1
       1      27      26       1       1      27      26       1       1      27
      26       1       1      27      26       1       1      27      26       1
       1      27      26       1       1      27      26       1       1      27
      26       1       1      27      26       1       1      27      26       1
       1      27      26       1       1      27      26       1       1      27
      26       1       1      27      26       1       1      27      26       1
       1      27      26       1       1      27      26       1       1      27
      26       1       1      27      26       1       1      27      26       1
       1      27      26       1       1      27      26       1       1      27
      26       1       1      27      26       1       1      27      26       1
       1      27      26       1       1      27      26       1       1      27
      26       1       1      27      26       1       1      27      26       1
       1      27      26       1       1      27      26       1       1      27
      26       1       1      27      26       1       1      27      26       1
       1      27      26       1       1      27      26       1       1      27
      26       1       1      27      26       1       1      27      26       1
       1      27      26       1       1      27      26       1       1      27
      26       1       1      27      26       1       1      27      26       1
       1      27      26       1       1      27      26       1       1      27
      26       1       1      27      26       1       1      27      26       1
       1      27      26       1       1      27      26       1       1      27
      26       1       1      27      26       1       1      27      26       1
       1      27      26       1       1      27      26       1       1      27
      26       1       1      27      26       1       1      27      26       1
       1      27      26       1       1      27      26       1       1      27
      26       1       1      27      26       1       1      27      26       1
       1      27      26       1       1      27      26       1       1      27
      26       1       1      27      26       1       1      27      26       1
       1      27      26       1       1      27      26       1       1      27
      26       1       1      27      26       1       1      27      26       1
       1      27      26       1       1      27      26       1       1      27
      26       1       1      27      26       1       1      27      26       1
       1      27      26       1       1      27      26       1       1      27
      26       1       1      27      26       1       1      27      26       1
       1      27      26       1       1      27      26       1       1      27
      26       1       1      27      26       1       1      27      26       1
       1      27      26       1       1      27      26       1       1      27
      26       1       1      27      26       1       1      27      26       1
       1      27      26       1       1      27      26       1       1      27
      26       1       1      27      26       1       1      27      26       1
       1      27      26       1       1      27      26       1       1      27
      26       1       1      27      26       1       1      27      26       1
       1      27      26       1       1      27      26       1       1      27
      26       1       1      27      26       1       1      27      26       1
       1      27      26       1       1      27      26       1       1      27
      26       1       1      27      26       1       1      27      26       1
       1      27      26       1       1      27      26       1       1      27
      26       1       1      27      26       1       1      27      26       1
       1      27      26       1       1      27      26       1       1      27
      26       1       1      27      26       1       1      27      26       1
       1      27      26       1       1      27      26       1       1      27
      26       1       1      27      26       1       1      27      26       1
       1      27      26       1       1      27      26       1       1      27
      26       1       1      27      26       1       1      27      26       1
       1      27      26       1       1      27      26       1       1      27
      26       1       1      27      26       1       1      27      26       1
       1      27      26       1       1      27      26       1       1      27
      26       1       1      27      26       1       1      27      26       1
       1      27      26       1       1      27      26       1       1      27
      26       1       1      27      26       1       1      27      26       1
       1      27      26       1       1      27      26       1       1      27
      26       1       1      27      26       1       1      27      26       1
       1      27      26       1       1      27      26       1       1      27
      26       1       1      27      26       1       1      27      26       1
       1      27      26       1       1      27      26       1       1      27
      26       1       1      27      26       1       1      27      26       1
       1      27      26       1       1      27      26       1       1      27
      26       1       1      27      26       1       1      27      26       1
       1      27      26       1       1      27      26       1       1      27
      26       1       1      27      26       1       1      27      26       1
       1      27      26       1       1      27      26       1       1      27
      26       1       1      27      26       1       1      27      26       1
       1      27      26       1       1      27      26       1       1      27
      26       1       1      27      26       1       1      27      26       1
       1      27      26       1       1      27      26       1       1      27
      26       1       1      27      26       1       1      27      26       1
       1      27      26       1       1      27      26       1       1      27
      26       1       1      27      26       1       1      27      26       1
       1      27      26       1       1      27      26       1       1      27
      26       1       1      27      26       1       1      27      26       1
       1      27      26       1       1      27      26       1       1      27
      26       1       1      27      26       1       1      27      26       1
       1      27      26       1       1      27      26       1       1      27
      26       1       1      27      26       1       1      27      26       1
       1      27      26       1       1      27      26       1       1      27
      26       1       1      27      26       1       1      27      26       1
       1      27      26       1       1      27      26       1       1      27
      26       1       1      27      26       1       1      27      26       1
       1      27      26       1       1      27      26       1       1      27
      26       1       1      27      26       1       1      27      26       1
       1      27      26       1       1      27      26       1       1      27
      26       1       1      27      26       1       1      27      26       1
       1      27      26       1       1      27      26       1       1      27
      26       1       1      27      26       1       1      27      26       1
       1      27      26       1       1      27      26       1       1      27
      26       1       1      27      26       1       1      27      26       1
       1      27      26       1       1      27      26       1       1      27
      26       1       1      27      26       1       1      27      26       1
       1      27      26       1       1      27      26       1       1      27
      26       1       1      27      26       1       1      27      26       1
       1      27      26       1       1      27      26       1       1      27
      26       1       1      27      26       1       1      27      26       1
       1      27      26       1       1      27      26       1       1      27
      26       1       1      27      26       1       1      27      26       1
       1      27      26       1       1      27      26       1       1      27
      26       1       1      27      26       1       1      27      26       1
       1      27      26       1       1      27      26       1       1      27
      26       1       1      27      26       1       1      27      26       1
       1      27      26       1       1      27      26       1       1      27
      26       1       1      27      26       1       1      27      26       1
       1      27      26       1       1      27      26       1       1      27
      26       1       1      27      26       1       1      27      26       1
       1      27      26       1       1      27      26       1       1      27
      26       1       1      27      26       1       1      27      26       1
       1      27      26       1       1      27      26       1       1      27
      26       1       1      27      26       1       1      27      26       1
       1      27      26       1       1      27      26       1       1      27
      26       1       1      27      26       1       1      27      26       1
       1      27      26       1       1      27      26       1       1      27
      26       1       1      27      26       1       1      27      26       1
       1      27      26       1       1      27      26       1       1      27
      26       1       1      27      26       1       1      27      26       1
       1      27      26       1       1      27      26       1       1      27
      26       1       1      27      26       1       1      27      26       1
       1      27      26       1       1      27      26       1       1      27
      26       1       1      27      26       1       1      27      26       1
       1      27      26       1       1      27      26       1       1      27
      26       1       1      27      26       1       1      27      26       1
       1      27      26       1       1      27      26       1       1      27
      26       1       1      27      26       1       1      27      26       1
       1      27      26       1       1      27      26       1       1      27
      26       1       1      27      26       1       1      27      26       1
       1      27      26       1       1      27      26       1       1      27
      26       1       1      27      26       1       1      27      26       1
       1      27      26       1       1      27      26       1       1      27
      26       1       1      27      26       1       1      27      26       1
       1      27      26       1       1      27      26       1       1      27
      26       1       1      27      26       1       1      27      26       1
       1      27      26       1       1      27      26       1       1      27
      26       1       1      27      26       1       1      27      26       1
       1      27      26       1       1      27      26       1       1      27
      26       1       1      27      26       1       1      27      26       1
       1      27      26       1       1      27      26       1       1      27
      26       1       1      27      26       1       1      27      26       1
       1      27      26       1       1      27      26       1       1      27
      26       1       1      27      26       1       1      27      26       1
       1      27      26       1       1      27      26       1       1      27
      26       1       1      27      26       1       1      27      26       1
       1      27      26       1       1      27      26       1       1      27
      26       1       1      27      26       1       1      27      26       1
       1      27      26       1       1      27      26       1       1      27
      26       1       1      27      26       1       1      27      26       1
       1      27      26       1       1      27      26       1       1      27
      26       1       1      27      26       1       1      27      26       1
       1      27      26       1       1      27      26       1       1      27
      26       1       1      27      26       1       1      27      26       1
       1      27      26       1       1      27      26       1       1      27
      26       1       1      27      26       1       1      27      26       1
       1      27      26       1       1      27      26       1       1      27
      26       1       1      27      26       1       1      27      26       1
       1      27      26       1       1      27      26       1       1      27
      26       1       1      27      26       1       1      27      26       1
       1      27      26       1       1      27      26       1       1      27
      26       1       1      27      26       1       1      27      26       1
       1      27      26       1       1      27      26       1       1      27
      26       1       1      27      26       1       1      27      26       1
       1      27      26       1       1      27      26       1       1      27
      26       1       1      27      26       1       1      27      26       1
       1      27      26       1       1      27      26       1       1      27
      26       1       1      27      26       1       1      27      26       1
       1      27      26       1       1      27      26       1       1      27
      26       1       1      27      26       1       1      27      26       1
       1      27      26       1       1      27      26       1       1      27
      26       1       1      27      26       1       1      27      26       1
       1      27      26       1       1      27      26       1       1      27
      26       1       1      27      26       1       1      27      26       1
       1      27      26       1       1      27      26       1       1      27
      26       1       1      27      26       1       1      27      26       1
       1      27      26       1       1      27      26       1       1      27
      26       1       1      27      26       1       1      27      26       1
       1      27      26       1       1      27      26       1       1      27
      26       1       1      27      26       1       1      27      26       1
       1      27      26       1       1      27      26       1       1      27
      26       1       1      27      26       1       1      27      26       1
       1      27      26       1       1      27      26       1       1      27
      26       1       1      27      26       1       1      27      26       1
       1      27      26       1       1      27      26       1       1      27
      26       1       1      27      26       1       1      27      26       1
       1      27      26       1       1      27      26       1       1      27
      26       1       1      27      26       1       1      27      26       1
       1      27      26       1       1      27      26       1       1      27
      26       1       1      27      26       1       1      27      26       1
       1      27      26       1       1      27      26       1       1      27
      26       1       1      27      26       1       1      27      26       1
       1      27      26       1       1      27      26       1       1      27
      26       1       1      27      26       1       1      27      26       1
       1      27      26       1       1      27      26       1       1      27
      26       1       1      27      26       1       1      27      26       1
       1      27      26       1       1      27      26       1       1      27
      26       1       1      27      26       1       1      27      26       1
       1      27      26       1       1      27      26       1       1      27
      26       1       1      27      26       1       1      27      26       1
       1      27      26       1       1      27      26       1       1      27
      26       1       1      27      26       1       1      27      26       1
       1      27      26       1       1      27      26       1       1      27
      26       1       1      27      26       1       1      27      26       1
       1      27      26       1       1      27      26       1       1      27
      26       1       1      27      26       1       1      27      26       1
       1      27      26       1       1      27      26       1       1      27
      26       1       1      27      26       1       1      27      26       1
       1      27      26       1       1      27      26       1       1      27
      26       1       1      27      26       1       1      27      26       1
       1      27      26       1       1      27      26       1       1      27
      26       1       1      27      26       1       1      27      26       1
       1      27      26       1       1      27      26       1       1      27
      26       1       1      27      26       1       1      27      26       1
       1      27      26       1       1      27      26       1       1      27
      26       1       1      27      26       1       1      27      26       1
       1      27      26       1       1      27      26       1       1      27
      26       1       1      27      26       1       1      27      26       1
       1      27      26       1       1      27      26       1       1      27
      26       1       1      27      26       1       1      27      26       1
       1      27      26       1       1      27      26       1       1      27
      26       1       1      27      26       1       1      27      26       1
       1      27      26       1       1      27      26       1       1      27
      26       1       1      27      26       1       1      27      26       1
       1      27      26       1       1      27      26       1       1      27
      26       1       1      27      26       1       1      27      26       1
       1      27      26       1       1      27      26       1       1      27
      26       1       1      27      26       1       1      27      26       1
       1      27      26       1       1      27      26       1       1      27
      26       1       1      27      26       1       1      27      26       1
       1      27      26       1       1      27      26       1       1      27
      26       1       1      27      26       1       1      27      26       1
       1      27      26       1       1      27      26       1       1      27
      26       1       1      27      26       1       1      27      26       1
       1      27      26       1       1      27      26       1       1      27
      26       1       1      27      26       1       1      27      26       1
       1      27      26       1       1      27      26       1       1      27
      26       1       1      27      26       1       1      27      26       1
       1      27      26       1       1      27      26       1       1      27
      26       1       1      27      26       1       1      27      26       1
       1      27      26       1       1      27      26       1       1      27
      26       1       1      27      26       1       1      27      26       1
       1      27      26       1       1      27      26       1       1      27
      26       1       1      27      26       1       1      27      26       1
       1      27      26       1       1      27      26       1       1      27
      26       1       1      27      26       1       1      27      26       1
       1      27      26       1       1      27      26       1       1      27
      26       1       1      27      26       1       1      27      26       1
       1      27      26       1       1      27      26       1       1      27
      26       1       1      27      26       1       1      27      26       1
       1      27      26       1       1      27      26       1       1      27
      26       1       1      27      26       1       1      27      26       1
       1      27      26       1       1      27      26       1       1      27
      26       1       1      27      26       1       1      27      26       1
       1      27      26       1       1      27      26       1       1      27
      26       1       1      27      26       1       1      27      26       1
       1      27      26       1       1      27      26       1       1      27
      26       1       1      27      26       1       1      27      26       1
       1      27      26       1       1      27      26       1       1      27
      26       1       1      27      26       1       1      27      26       1
       1      27      26       1       1      27      26       1       1      27
      26       1       1      27      26       1       1      27      26       1
       1      27      26       1       1      27      26       1       1      27
      26       1       1      27      26       1       1      27      26       1
       1      27      26       1       1      27      26       1       1      27
      26       1       1      27      26       1       1      27      26       1
       1      27      26       1       1      27      26       1       1      27
      26       1       1      27      26       1       1      27      26       1
       1      27      26       1       1      27      26       1       1      27
      26       1       1      27      26       1       1      27      26       1
       1      27      26       1       1      27      26       1       1      27
      26       1       1      27      26       1       1      27      26       1
       1      27      26       1       1      27      26       1       1      27
      26       1       1      27      26       1       1      27      26       1
       1      27      26       1       1      27      26       1       1      27
      26       1       1      27      26       1       1      27      26       1
       1      27      26       1       1      27      26       1       1      27
      26       1       1      27      26       1       1      27      26       1
       1      27      26       1       1      27      26       1       1      27
      26       1       1      27      26       1       1      27      26       1
       1      27      26       1       1      27      26       1       1      27
      26       1       1      27      26       1       1      27      26       1
       1      27      26       1       1      27      26       1       1      27
      26       1       1      27      26       1       1      27      26       1
       1      27      26       1       1      27      26       1       1      27
      26       1       1      27      26       1       1      27      26       1
       1      27      26       1       1      27      26       1       1      27
      26       1       1      27      26       1       1      27      26       1
       1      27      26       1       1      27      26       1       1      27
      26       1       1      27      26       1       1      27      26       1
       1      27      26       1       1      27      26       1       1      27
      26       1       1      27      26       1       1      27      26       1
       1      27      26       1       1      27      26       1       1      27
      26       1       1      27      26       1       1      27      26       1
       1      27      26       1       1      27      26       1       1      27
      26       1       1      27      26       1       1      27      26       1
       1      27      26       1       1      27      26       1       1      27
      26       1       1      27      26       1       1      27      26       1
       1      27      26       1       1      27      26       1       1      27
      26       1       1      27      26       1       1      27      26       1
       1      27      26       1       1      27      26       1       1      27
      26       1       1      27      26       1       1      27      26       1
       1      27      26       1       1      27      26       1       1      27
      26       1       1      27      26       1       1      27      26       1
       1      27      26       1       1      27      26       1       1      27
      26       1       1      27      26       1       1      27      26       1
       1      27      26       1       1      27      26       1       1      27
      26       1       1      27      26       1       1      27      26       1
       1      27      26       1       1      27      26       1       1      27
      26       1       1      27      26       1       1      27      26       1
       1      27      26       1       1      27      26       1       1      27
      26       1       1      27      26       1       1      27      26       1
       1      27      26       1       1      27      26       1       1      27
      26       1       1      27      26       1       1      27      26       1
       1      27      26       1       1      27      26       1       1      27
      26       1       1      27      26       1       1      27      26       1
       1      27      26       1       1      27      26       1       1      27
      26       1       1      27      26       1       1      27      26       1
       1      27      26       1       1      27      26       1       1      27
      26       1       1      27      26       1       1      27      26       1
       1      27      26       1       1      27      26       1       1      27
      26       1       1      27      26       1       1      27      26       1
       1      27      26       1       1      27      26       1       1      27
      26       1       1      27      26       1       1      27      26       1
       1      27      26       1       1      27      26       1       1      27
      26       1       1      27      26       1       1      27      26       1
       1      27      26       1       1      27      26       1       1      27
      26       1       1      27      26       1       1      27      26       1
       1      27      26       1       1      27      26       1       1      27
      26       1       1      27      26       1       1      27      26       1
       1      27      26       1       1      27      26       1       1      27
      26       1       1      27      26       1       1      27      26       1
       1      27      26       1       1      27      26       1       1      27
      26       1       1      27      26       1       1      27      26       1
       1      27      26       1       1      27      26       1       1      27
      26       1       1      27      26       1       1      27      26       1
       1      27      26       1       1      27      26       1       1      27
      26       1       1      27      26       1       1      27      26       1
       1      27      26       1       1      27      26       1       1      27
      26       1       1      27      26       1       1      27      26       1
       1      27      26       1       1      27      26       1       1      27
      26       1       1      27      26       1       1      27      26       1
       1      27      26       1       1      27      26       1       1      27
      26       1       1      27      26       1       1      27      26       1
       1      27      26       1       1      27      26       1       1      27
      26       1       1      27      26       1       1      27      26       1
       1      27      26       1       1      27      26       1       1      27
      26       1       1      27      26       1       1      27      26       1
       1      27      26       1       1      27      26       1       1      27
      26       1       1      27      26       1       1      27      26       1
       1      27      26       1       1      27      26       1       1      27
      26       1       1      27      26       1       1      27      26       1
       1      27      26       1       1      27      26       1       1      27
      26       1       1      27      26       1       1      27      26       1
       1      27      26       1       1      27      26       1       1      27
      26       1       1      27      26       1       1      27      26       1
       1      27      26       1       1      27      26       1       1      27
      26       1       1      27      26       1       1      27      26       1
       1      27      26       1       1      27      26       1       1      27
      26       1       1      27      26       1       1      27      26       1
       1      27      26       1       1      27      26       1       1      27
      26       1       1      27      26       1       1      27      26       1
       1      27      26       1       1      27      26       1       1      27
      26       1       1      27      26       1       1      27      26       1
       1      27      26       1       1      27      26       1       1      27
      26       1       1      27      26       1       1      27      26       1
       1      27      26       1       1      27      26       1       1      27
      26       1       1      27      26       1       1      27      26       1
       1      27      26       1       1      27      26       1       1      27
      26       1       1      27      26       1       1      27      26       1
       1      27      26       1       1      27      26       1       1      27
      26       1       1      27      26       1       1      27      26       1
       1      27      26       1       1      27      26       1       1      27
      26       1       1      27      26       1       1      27      26       1
       1      27      26       1       1      27      26       1       1      27
      26       1       1      27      26       1       1      27      26       1
       1      27      26       1       1      27      26       1       1      27
      26       1       1      27      26       1       1      27      26       1
       1      27      26       1       1      27      26       1       1      27
      26       1       1      27      26       1       1      27      26       1
       1      27      26       1       1      27      26       1       1      27
      26       1       1      27      26       1       1      27      26       1
       1      27      26       1       1      27      26       1       1      27
      26       1       1      27      26       1       1      27      26       1
       1      27      26       1       1      27      26       1       1      27
      26       1       1      27      26       1       1      27      26       1
       1      27      26       1       1      27      26       1       1      27
      26       1       1      27      26       1       1      27      26       1
       1      27      26       1       1      27      26       1       1      27
      26       1       1      27      26       1       1      27      26       1
       1      27      26       1       1      27      26       1       1      27
      26       1       1      27      26       1       1      27      26       1
       1      27      26       1       1      27      26       1       1      27
      26       1       1      27      26       1       1      27      26       1
       1      27      26       1       1      27      26       1       1      27
      26       1       1      27      26       1       1      27      26       1
       1      27      26       1       1      27      26       1       1      27
      26       1       1      27      26       1       1      27      26       1
       1      27      26       1       1      27      26       1       1      27
      26       1       1      27      26       1       1      27      26       1
       1      27      26       1       1      27      26       1       1      27
      26       1       1      27      26       1       1      27      26       1
       1      27      26       1       1      27      26       1       1      27
      26       1       1      27      26       1       1      27      26       1
       1      27      26       1       1      27      26       1       1      27
      26       1       1      27      26       1       1      27      26       1
       1      27      26       1       1      27      26       1       1      27
      26       1       1      27      26       1       1      27      26       1
       1      27      26       1       1      27      26       1       1      27
      26       1       1      27      26       1       1      27      26       1
       1      27      26       1       1      27      26       1       1      27
      26       1       1      27      26       1       1      27      26       1
       1      27      26       1       1      27      26       1       1      27
      26       1       1      27      26       1       1      27      26       1
       1      27      26       1       1      27      26       1       1      27
      26       1       1      27      26       1       1      27      26       1
       1      27      26       1       1      27      26       1       1      27
      26       1       1      27      26       1       1      27      26       1
       1      27      26       1       1      27      26       1       1      27
      26       1       1      27      26       1       1      27      26       1
       1      27      26       1       1      27      26       1       1      27
      26       1       1      27      26       1       1      27      26       1
       1      27      26       1       1      27      26       1       1      27
      26       1       1      27      26       1       1      27      26       1
       1      27      26       1       1      27      26       1       1      27
      26       1       1      27      26       1       1      27      26       1
       1      27      26       1       1      27      26       1       1      27
      26       1       1      27      26       1       1      27      26       1
       1      27      26       1       1      27      26       1       1      27
      26       1       1      27      26       1       1      27      26       1
       1      27      26       1       1      27      26       1       1      27
      26       1       1      27      26       1       1      27      26       1
       1      27      26       1       1      27      26       1       1      27
      26       1       1      27      26       1       1      27      26       1
       1      27      26       1       1      27      26       1       1      27
      26       1       1      27      26       1       1      27      26       1
       1      27      26       1       1      27      26       1       1      27
      26       1       1      27      26       1       1      27      26       1
       1      27      26       1       1      27      26       1       1      27
      26       1       1      27      26       1       1      27      26       1
       1      27      26       1       1      27      26       1       1      27
      26       1       1      27      26       1       1      27      26       1
       1      27      26       1       1      27      26       1       1      27
      26       1       1      27      26       1       1      27      26       1
       1      27      26       1       1      27      26       1       1      27
      26       1       1      27      26       1       1      27      26       1
       1      27      26       1       1      27      26       1       1      27
      26       1       1      27      26       1       1      27      26       1
       1      27      26       1       1      27      26       1       1      27
      26       1       1      27      26       1       1      27      26       1
       1      27      26       1       1      27      26       1       1      27
      26       1       1      27      26       1       1      27      26       1
       1      27      26       1       1      27      26       1       1      27
      26       1       1      27      26       1       1      27      26       1
       1      27      26       1       1      27      26       1       1      27
      26       1       1      27      26       1       1      27      26       1
       1      27      26       1       1      27      26       1       1      27
      26       1       1      27      26       1       1      27      26       1
       1      27      26       1       1      27      26       1       1      27
      26       1       1      27      26       1       1      27      26       1
       1      27      26       1       1      27      26       1       1      27
      26       1       1      27      26       1       1      27      26       1
       1      27      26       1       1      27      26       1       1      27
      26       1       1      27      26       1       1      27      26       1
       1      27      26       1       1      27      26       1       1      27
      26       1       1      27      26       1       1      27      26       1
       1      27      26       1       1      27      26       1       1      27
      26       1       1      27      26       1       1      27      26       1
       1      27      26       1       1      27      26       1       1      27
      26       1       1      27      26       1       1      27      26       1
       1      27      26       1       1      27      26       1       1      27
      26       1       1      27      26       1       1      27      26       1
       1      27      26       1       1      27      26       1       1      27
      26       1       1      27      26       1       1      27      26       1
       1      27      26       1       1      27      26       1       1      27
      26       1       1      27      26       1       1      27      26       1
       1      27      26       1       1      27      26       1       1      27
      26       1       1      27      26       1       1      27      26       1
       1      27      26       1       1      27      26       1       1      27
      26       1       1      27      26       1       1      27      26       1
       1      27      26       1       1      27      26       1       1      27
      26       1       1      27      26       1       1      27      26       1
       1      27      26       1       1      27      26       1       1      27
      26       1       1      27      26       1       1      27      26       1
       1      27      26       1       1      27      26       1       1      27
      26       1       1      27      26       1       1      27      26       1
       1      27      26       1       1      27      26       1       1      27
      26       1       1      27      26       1       1      27      26       1
       1      27      26       1       1      27      26       1       1      27
      26       1       1      27      26       1       1      27      26       1
       1      27      26       1       1      27      26       1       1      27
      26       1       1      27      26       1       1      27      26       1
       1      27      26       1       1      27      26       1       1      27
      26       1       1      27      26       1       1      27      26       1
       1      27      26       1       1      27      26       1       1      27
      26       1       1      27      26       1       1      27      26       1
       1      27      26       1       1      27      26       1       1      27
      26       1       1      27      26       1       1      27      26       1
       1      27      26       1       1      27      26       1       1      27
      26       1       1      27      26       1       1      27      26       1
       1      27      26       1       1      27      26       1       1      27
      26       1       1      27      26       1       1      27      26       1
       1      27      26       1       1      27      26       1       1      27
      26       1       1      27      26       1       1      27      26       1
       1      27      26       1       1      27      26       1       1      27
      26       1       1      27      26       1       1      27      26       1
       1      27      26       1       1      27      26       1       1      27
      26       1       1      27      26       1       1      27      26       1
       1      27      26       1       1      27      26       1       1      27
      26       1       1      27      26       1       1      27      26       1
       1      27      26       1       1      27      26       1       1      27
      26       1       1      27      26       1       1      27      26       1
       1      27      26       1       1      27      26       1       1      27
      26       1       1      27      26       1       1      27      26       1
       1      27      26       1       1      27      26       1       1      27
      26       1       1      27      26       1       1      27      26       1
       1      27      26       1       1      27      26       1       1      27
      26       1       1      27      26       1       1      27      26       1
       1      27      26       1       1      27      26       1       1      27
      26       1       1      27      26       1       1      27      26       1
       1      27      26       1       1      27      26       1       1      27
      26       1       1      27      26       1       1      27      26       1
       1      27      26       1       1      27      26       1       1      27
      26       1       1      27      26       1       1      27      26       1
       1      27      26       1       1      27      26       1       1      27
      26       1       1      27      26       1       1      27      26       1
       1      27      26       1       1      27      26       1       1      27
      26       1       1      27      26       1       1      27      26       1
       1      27      26       1       1      27      26       1       1      27
      26       1       1      27      26       1       1      27      26       1
       1      27      26       1       1      27      26       1       1      27
      26       1       1      27      26       1       1      27      26       1
       1      27      26       1       1      27      26       1       1      27
      26       1       1      27      26       1       1      27      26       1
       1      27      26       1       1      27      26       1       1      27
      26       1       1      27      26       1       1      27      26       1
       1      27      26       1       1      27      26       1       1      27
      26       1       1      27      26       1       1      27      26       1
       1      27      26       1       1      27      26       1       1      27
      26       1       1      27      26       1       1      27      26       1
       1      27      26       1       1      27      26       1       1      27
      26       1       1      27      26       1       1      27      26       1
       1      27      26       1       1      27      26       1       1      27
      26       1       1      27      26       1       1      27      26       1
       1      27      26       1       1      27      26       1       1      27
      26       1       1      27      26       1       1      27      26       1
       1      27      26       1       1      27      26       1       1      27
      26       1       1      27      26       1       1      27      26       1
       1      27      26       1       1      27      26       1       1      27
      26       1       1      27      26       1       1      27      26       1
       1      27      26       1       1      27      26       1       1      27
      26       1       1      27      26       1       1      27      26       1
       1      27      26       1       1      27      26       1       1      27
      26       1       1      27      26       1       1      27      26       1
       1      27      26       1       1      27      26       1       1      27
      26       1       1      27      26       1       1      27      26       1
       1      27      26       1       1      27      26       1       1      27
      26       1       1      27      26       1       1      27      26       1
       1      27      26       1       1      27      26       1       1      27
      26       1       1      27      26       1       1      27      26       1
       1      27      26       1       1      27      26       1       1      27
      26       1       1      27      26       1       1      27      26       1
       1      27      26       1       1      27      26       1       1      27
      26       1       1      27      26       1       1      27      26       1
       1      27      26       1       1      27      26       1       1      27
      26       1       1      27      26       1       1      27      26       1
       1      27      26       1       1      27      26       1       1      27
      26       1       1      27      26       1       1      27      26       1
       1      27      26       1       1      27      26       1       1      27
      26       1       1      27      26       1       1      27      26       1
       1      27      26       1       1      27      26       1       1      27
      26       1       1      27      26       1       1      27      26       1
       1      27      26       1       1      27      26       1       1      27
      26       1       1      27      26       1       1      27      26       1
       1      27      26       1       1      27      26       1       1      27
      26       1       1      27      26       1       1      27      26       1
       1      27      26       1       1      27      26       1       1      27
      26       1       1      27      26       1       1      27      26       1
       1      27      26       1       1      27      26       1       1      27
      26       1       1      27      26       1       1      27      26       1
       1      27      26       1       1      27      26       1       1      27
      26       1       1      27      26       1       1      27      26       1
       1      27      26       1       1      27      26       1       1      27
      26       1       1      27      26       1       1      27      26       1
       1      27      26       1       1      27      26       1       1      27
      26       1       1      27      26       1       1      27      26       1
       1      27      26       1       1      27      26       1       1      27
      26       1       1      27      26       1       1      27      26       1
       1      27      26       1       1      27      26       1       1      27
      26       1       1      27      26       1       1      27      26       1
       1      27      26       1       1      27      26       1       1      27
      26       1       1      27      26       1       1      27      26       1
       1      27      26       1       1      27      26       1       1      27
      26       1       1      27      26       1       1      27      26       1
       1      27      26       1       1      27      26       1       1      27
      26       1       1      27      26       1       1      27      26       1
       1      27      26       1       1      27      26       1       1      27
      26       1       1      27      26       1       1      27      26       1
       1      27      26       1       1      27      26       1       1      27
      26       1       1      27      26       1       1      27      26       1
       1      27      26       1       1      27      26       1       1      27
      26       1       1      27      26       1       1      27      26       1
       1      27      26       1       1      27      26       1       1      27
      26       1       1      27      26       1       1      27      26       1
       1      27      26       1       1      27      26       1       1      27
      26       1       1      27      26       1       1      27      26       1
       1      27      26       1       1      27      26       1       1      27
      26       1       1      27      26       1       1      27      26       1
       1      27      26       1       1      27      26       1       1      27
      26       1       1      27      26       1       1      27      26       1
       1      27      26       1       1      27      26       1       1      27
      26       1       1      27      26       1       1      27      26       1
       1      27      26       1       1      27      26       1       1      27
      26       1       1      27      26       1       1      27      26       1
       1      27      26       1       1      27      26       1       1      27
      26       1       1      27      26       1       1      27      26       1
       1      27      26       1       1      27      26       1       1      27
      26       1       1      27      26       1       1      27      26       1
       1      27      26       1       1      27      26       1       1      27
      26       1       1      27      26       1       1      27      26       1
       1      27      26       1       1      27      26       1       1      27
      26       1       1      27      26       1       1      27      26       1
       1      27      26       1       1      27      26       1       1      27
      26       1       1      27      26       1       1      27      26       1
       1      27      26       1       1      27      26       1       1      27
      26       1       1      27      26       1       1      27      26       1
       1      27      26       1       1      27      26       1       1      27
      26       1       1      27      26       1       1      27      26       1
       1      27      26       1       1      27      26       1       1      27
      26       1       1      27      26       1       1      27      26       1
       1      27      26       1       1      27      26       1       1      27
      26       1       1      27      26       1       1      27      26       1
       1      27      26       1       1      27      26       1       1      27
      26       1       1      27      26       1       1      27      26       1
       1      27      26       1       1      27      26       1       1      27
      26       1       1      27      26       1       1      27      26       1
       1      27      26       1       1      27      26       1       1      27
      26       1       1      27      26       1       1      27      26       1
       1      27      26       1       1      27      26       1       1      27
      26       1       1      27      26       1       1      27      26       1
       1      27      26       1       1      27      26       1       1      27
      26       1       1      27      26       1       1      27      26       1
       1      27      26       1       1      27      26       1       1      27
      26       1       1      27      26       1       1      27      26       1
       1      27      26       1       1      27      26       1       1      27
      26       1       1      27      26       1       1      27      26       1
       1      27      26       1       1      27      26       1       1      27
      26       1       1      27      26       1       1      27      26       1
       1      27      26       1       1      27      26       1       1      27
      26       1       1      27      26       1       1      27      26       1
       1      27      26       1       1      27      26       1       1      27
      26       1       1      27      26       1       1      27      26       1
       1      27      26       1       1      27      26       1       1      27
      26       1       1      27      26       1       1      27      26       1
       1      27      26       1       1      27      26       1       1      27
      26       1       1      27      26       1       1      27      26       1
       1      27      26       1       1      27      26       1       1      27
      26       1       1      27      26       1       1      27      26       1
       1      27      26       1       1      27      26       1       1      27
      26       1       1      27      26       1       1      27      26       1
       1      27      26       1       1      27      26       1       1      27
      26       1       1      27      26       1       1      27      26       1
       1      27      26       1       1      27      26       1       1      27
      26       1       1      27      26       1       1      27      26       1
       1      27      26       1       1      27      26       1       1      27
      26       1       1      27      26       1       1      27      26       1
       1      27      26       1       1      27      26       1       1      27
      26       1       1      27      26       1       1      27      26       1
       1      27      26       1       1      27      26       1       1      27
      26       1       1      27      26       1       1      27      26       1
       1      27      26       1       1      27      26       1       1      27
      26       1       1      27      26       1       1      27      26       1
       1      27      26       1       1      27      26       1       1      27
      26       1       1      27      26       1       1      27      26       1
       1      27      26       1       1      27      26       1       1      27
      26       1       1      27      26       1       1      27      26       1
       1      27      26       1       1      27      26       1       1      27
      26       1       1      27      26       1       1      27      26       1
       1      27      26       1       1      27      26       1       1      27
      26       1       1      27      26       1       1      27      26       1
       1      27      26       1       1      27      26       1       1      27
      26       1       1      27      26       1       1      27      26       1
       1      27      26       1       1      27      26       1       1      27
      26       1       1      27      26       1       1      27      26       1
       1      27      26       1       1      27      26       1       1      27
      26       1       1      27      26       1       1      27      26       1
       1      27      26       1       1      27      26       1       1      27
      26       1       1      27      26       1       1      27      26       1
       1      27      26       1       1      27      26       1       1      27
      26       1       1      27      26       1       1      27      26       1
       1      27      26       1       1      27      26       1       1      27
      26       1       1      27      26       1       1      27      26       1
       1      27      26       1       1      27      26       1       1      27
      26       1       1      27      26       1       1      27      26       1
       1      27      26       1       1      27      26       1       1      27
      26       1       1      27      26       1       1      27      26       1
       1      27      26       1       1      27      26       1       1      27
      26       1       1      27      26       1       1      27      26       1
       1      27      26       1       1      27      26       1       1      27
      26       1       1      27      26       1       1      27      26       1
       1      27      26       1       1      27      26       1       1      27
      26       1       1      27      26       1       1      27      26       1
       1      27      26       1       1      27      26       1       1      27
      26       1       1      27      26       1       1      27      26       1
       1      27      26       1       1      27      26       1       1      27
      26       1       1      27      26       1       1      27      26       1
       1      27      26       1       1      27      26       1       1      27
      26       1       1      27      26       1       1      27      26       1
       1      27      26       1       1      27      26       1       1      27
      26       1       1      27      26       1       1      27      26       1
       1      27      26       1       1      27      26       1       1      27
      26       1       1      27      26       1       1      27      26       1
       1      27      26       1       1      27      26       1       1      27
      26       1       1      27      26       1       1      27      26       1
       1      27      26       1       1      27      26       1       1      27
      26       1       1      27      26       1       1      27      26       1
       1      27      26       1       1      27      26       1       1      27
      26       1       1      27      26       1       1      27      26       1
       1      27      26       1       1      27      26       1       1      27
      26       1       1      27      26       1       1      27      26       1
       1      27      26       1       1      27      26       1       1      27
      26       1       1      27      26       1       1      27      26       1
       1      27      26       1       1      27      26       1       1      27
      26       1       1      27      26       1       1      27      26       1
       1      27      26       1       1      27      26       1       1      27
      26       1       1      27      26       1       1      27      26       1
       1      27      26       1       1      27      26       1       1      27
      26       1       1      27      26       1       1      27      26       1
       1      27      26       1       1      27      26       1       1      27
      26       1       1      27      26       1       1      27      26       1
       1      27      26       1       1      27      26       1       1      27
      26       1       1      27      26       1       1      27      26       1
       1      27      26       1       1      27      26       1       1      27
      26       1       1      27      26       1       1      27      26       1
       1      27      26       1       1      27      26       1       1      27
      26       1       1      27      26       1       1      27      26       1
       1      27      26       1       1      27      26       1       1      27
      26       1       1      27      26       1       1      27      26       1
       1      27      26       1       1      27      26       1       1      27
      26       1       1      27      26       1       1      27      26       1
       1      27      26       1       1      27      26       1       1      27
      26       1       1      27      26       1       1      27      26       1
       1      27      26       1       1      27      26       1       1      27
      26       1       1      27      26       1       1      27      26       1
       1      27      26       1       1      27      26       1       1      27
      26       1       1      27      26       1       1      27      26       1
       1      27      26       1       1      27      26       1       1      27
      26       1       1      27      26       1       1      27      26       1
       1      27      26       1       1      27      26       1       1      27
      26       1       1      27      26       1       1      27      26       1
       1      27      26       1       1      27      26       1       1      27
      26       1       1      27      26       1       1      27      26       1
       1      27      26       1       1      27      26       1       1      27
      26       1       1      27      26       1       1      27      26       1
       1      27      26       1       1      27      26       1       1      27
      26       1       1      27      26       1       1      27      26       1
       1      27      26       1       1      27      26       1       1      27
      26       1       1      27      26       1       1      27      26       1
       1      27      26       1       1      27      26       1       1      27
      26       1       1      27      26       1       1      27      26       1
       1      27      26       1       1      27      26       1       1      27
      26       1       1      27      26       1       1      27      26       1
       1      27      26       1       1      27      26       1       1      27
      26       1       1      27      26       1       1      27      26       1
       1      27      26       1       1      27      26       1       1      27
      26       1       1      27      26       1       1      27      26       1
       1      27      26       1       1      27      26       1       1      27
      26       1       1      27      26       1       1      27      26       1
       1      27      26       1       1      27      26       1       1      27
      26       1       1      27      26       1       1      27      26       1
       1      27      26       1       1      27      26       1       1      27
      26       1       1      27      26       1       1      27      26       1
       1      27      26       1       1      27      26       1       1      27
      26       1       1      27      26       1       1      27      26       1
       1      27      26       1       1      27      26       1       1      27
      26       1       1      27      26       1       1      27      26       1
       1      27      26       1       1      27      26       1       1      27
      26       1       1      27      26       1       1      27      26       1
       1      27      26       1       1      27      26       1       1      27
      26       1       1      27      26       1       1      27      26       1
       1      27      26       1       1      27      26       1       1      27
      26       1       1      27      26       1       1      27      26       1
       1      27      26       1       1      27      26       1       1      27
      26       1       1      27      26       1       1      27      26       1
       1      27      26       1       1      27      26       1       1      27
      26       1       1      27      26       1       1      27      26       1
       1      27      26       1       1      27      26       1       1      27
      26       1       1      27      26       1       1      27      26       1
       1      27      26       1       1      27      26       1       1      27
      26       1       1      27      26       1       1      27      26       1
       1      27      26       1       1      27      26       1       1      27
      26       1       1      27      26       1       1      27      26       1
       1      27      26       1       1      27      26       1       1      27
      26       1       1      27      26       1       1      27      26       1
       1      27      26       1       1      27      26       1       1      27
      26       1       1      27      26       1       1      27      26       1
       1      27      26       1       1      27      26       1       1      27
      26       1       1      27      26       1       1      27      26       1
       1      27      26       1       1      27      26       1       1      27
      26       1       1      27      26       1       1      27      26       1
       1      27      26       1       1      27      26       1       1      27
      26       1       1      27      26       1       1      27      26       1
       1      27      26       1       1      27      26       1       1      27
      26       1       1      27      26       1       1      27      26       1
       1      27      26       1       1      27      26       1       1      27
      26       1       1      27      26       1       1      27      26       1
       1      27      26       1       1      27      26       1       1      27
      26       1       1      27      26       1       1      27      26       1
       1      27      26       1       1      27      26       1       1      27
      26       1       1      27      26       1       1      27      26       1
       1      27      26       1       1      27      26       1       1      27
      26       1       1      27      26       1       1      27      26       1
       1      27      26       1       1      27      26       1       1      27
      26       1       1      27      26       1       1      27      26       1
       1      27      26       1       1      27      26       1       1      27
      26       1       1      27      26       1       1      27      26       1
       1      27      26       1       1      27      26       1       1      27
      26       1       1      27      26       1       1      27      26       1
       1      27      26       1       1      27      26       1       1      27
      26       1       1      27      26       1       1      27      26       1
       1      27      26       1       1      27      26       1       1      27
      26       1       1      27      26       1       1      27      26       1
       1      27      26       1       1      27      26       1       1      27
      26       1       1      27      26       1       1      27      26       1
       1      27      26       1       1      27      26       1       1      27
      26       1       1      27      26       1       1      27      26       1
       1      27      26       1       1      27      26       1       1      27
      26       1       1      27      26       1       1      27      26       1
       1      27      26       1       1      27      26       1       1      27
      26       1       1      27      26       1       1      27      26       1
       1      27      26       1       1      27      26       1       1      27
      26       1       1      27      26       1       1      27      26       1
       1      27      26       1       1      27      26       1       1      27
      26       1       1      27      26       1       1      27      26       1
       1      27      26       1       1      27      26       1       1      27
      26       1       1      27      26       1       1      27      26       1
       1      27      26       1       1      27      26       1       1      27
      26       1       1      27      26       1       1      27      26       1
       1      27      26       1       1      27      26       1       1      27
      26       1       1      27      26       1       1      27      26       1
       1      27      26       1       1      27      26       1       1      27
      26       1       1      27      26       1       1      27      26       1
       1      27      26       1       1      27      26       1       1      27
      26       1       1      27      26       1       1      27      26       1
       1      27      26       1       1      27      26       1       1      27
      26       1       1      27      26       1       1      27      26       1
       1      27      26       1       1      27      26       1       1      27
      26       1       1      27      26       1       1      27      26       1
       1      27      26       1       1      27      26       1       1      27
      26       1       1      27      26       1       1      27      26       1
       1      27      26       1       1      27      26       1       1      27
      26       1       1      27      26       1       1      27      26       1
       1      27      26       1       1      27      26       1       1      27
      26       1       1      27      26       1       1      27      26       1
       1      27      26       1       1      27      26       1       1      27
      26       1       1      27      26       1       1      27      26       1
       1      27      26       1       1      27      26       1       1      27
      26       1       1      27      26       1       1      27      26       1
       1      27      26       1       1      27      26       1       1      27
      26       1       1      27      26       1       1      27      26       1
       1      27      26       1       1      27      26       1       1      27
      26       1       1      27      26       1       1      27      26       1
       1      27      26       1       1      27      26       1       1      27
      26       1       1      27      26       1       1      27      26       1
       1      27      26       1       1      27      26       1       1      27
      26       1       1      27      26       1       1      27      26       1
       1      27      26       1       1      27      26       1       1      27
      26       1       1      27      26       1       1      27      26       1
       1      27      26       1       1      27      26       1       1      27
      26       1       1      27      26       1       1      27      26       1
       1      27      26       1       1      27      26       1       1      27
      26       1       1      27      26       1       1      27      26       1
       1      27      26       1       1      27      26       1       1      27
      26       1       1      27      26       1       1      27      26       1
       1      27      26       1       1      27      26       1       1      27
      26       1       1      27      26       1       1      27      26       1
       1      27      26       1       1      27      26       1       1      27
      26       1       1      27      26       1       1      27      26       1
       1      27      26       1       1      27      26       1       1      27
      26       1       1      27      26       1       1      27      26       1
       1      27      26       1       1      27      26       1       1      27
      26       1       1      27      26       1       1      27      26       1
       1      27      26       1       1      27      26       1       1      27
      26       1       1      27      26       1       1      27      26       1
       1      27      26       1       1      27      26       1       1      27
      26       1       1      27      26       1       1      27      26       1
       1      27      26       1       1      27      26       1       1      27
      26       1       1      27      26       1       1      27      26       1
       1      27      26       1       1      27      26       1       1      27
      26       1       1      27      26       1       1      27      26       1
       1      27      26       1       1      27      26       1       1      27
      26       1       1      27      26       1       1      27      26       1
       1      27      26       1       1      27      26       1       1      27
      26       1       1      27      26       1       1      27      26       1
       1      27      26       1       1      27      26       1       1      27
      26       1       1      27      26       1       1      27      26       1
       1      27      26       1       1      27      26       1       1      27
      26       1       1      27      26       1       1      27      26       1
       1      27      26       1       1      27      26       1       1      27
      26       1       1      27      26       1       1      27      26       1
       1      27      26       1       1      27      26       1       1      27
      26       1       1      27      26       1       1      27      26       1
       1      27      26       1       1      27      26       1       1      27
      26       1       1      27      26       1       1      27      26       1
       1      27      26       1       1      27      26       1       1      27
      26       1       1      27      26       1       1      27      26       1
       1      27      26       1       1      27      26       1       1      27
      26       1       1      27      26       1       1      27      26       1
       1      27      26       1       1      27      26       1       1      27
      26       1       1      27      26       1       1      27      26       1
       1      27      26       1       1      27      26       1       1      27
      26       1       1      27      26       1       1      27      26       1
       1      27      26       1       1      27      26       1       1      27
      26       1       1      27      26       1       1      27      26       1
       1      27      26       1       1      27      26       1       1      27
      26       1       1      27      26       1       1      27      26       1
       1      27      26       1       1      27      26       1       1      27
      26       1       1      27      26       1       1      27      26       1
       1      27      26       1       1      27      26       1       1      27
      26       1       1      27      26       1       1      27      26       1
       1      27      26       1       1      27      26       1       1      27
      26       1       1      27      26       1       1      27      26       1
       1      27      26       1       1      27      26       1       1      27
      26       1       1      27      26       1       1      27      26       1
       1      27      26       1       1      27      26       1       1      27
      26       1       1      27      26       1       1      27      26       1
       1      27      26       1       1      27      26       1       1      27
      26       1       1      27      26       1       1      27      26       1
       1      27      26       1       1      27      26       1       1      27
      26       1       1      27      26       1       1      27      26       1
       1      27      26       1       1      27      26       1       1      27
      26       1       1      27      26       1       1      27      26       1
       1      27      26       1       1      27      26       1       1      27
      26       1       1      27      26       1       1      27      26       1
       1      27      26       1       1      27      26       1       1      27
      26       1       1      27      26       1       1      27      26       1
       1      27      26       1       1      27      26       1       1      27
      26       1       1      27      26       1       1      27      26       1
       1      27      26       1       1      27      26       1       1      27
      26       1       1      27      26       1       1      27      26       1
       1      27      26       1       1      27      26       1       1      27
      26       1       1      27      26       1       1      27      26       1
       1      27      26       1       1      27      26       1       1      27
      26       1       1      27      26       1       1      27      26       1
       1      27      26       1       1      27      26       1       1      27
      26       1       1      27      26       1       1      27      26       1
       1      27      26       1       1      27      26       1       1      27
      26       1       1      27      26       1       1      27      26       1
       1      27      26       1       1      27      26       1       1      27
      26       1       1      27      26       1       1      27      26       1
       1      27      26       1       1      27      26       1       1      27
      26       1       1      27      26       1       1      27      26       1
       1      27      26       1       1      27      26       1       1      27
      26       1       1      27      26       1       1      27      26       1
       1      27      26       1       1      27      26       1       1      27
      26       1       1      27      26       1       1      27      26       1
       1      27      26       1       1      27      26       1       1      27
      26       1       1      27      26       1       1      27      26       1
       1      27      26       1       1      27      26       1       1      27
      26       1       1      27      26       1       1      27      26       1
       1      27      26       1       1      27      26       1       1      27
      26       1       1      27      26       1       1      27      26       1
       1      27      26       1       1      27      26       1       1      27
      26       1       1      27      26       1       1      27      26       1
       1      27      26       1       1      27      26       1       1      27
      26       1       1      27      26       1       1      27      26       1
       1      27      26       1       1      27      26       1       1      27
      26       1       1      27      26       1       1      27      26       1
       1      27      26       1       1      27      26       1       1      27
      26       1       1      27      26       1       1      27      26       1
       1      27      26       1       1      27      26       1       1      27
      26       1       1      27      26       1       1      27      26       1
       1      27      26       1       1      27      26       1       1      27
      26       1       1      27      26       1       1      27      26       1
       1      27      26       1       1      27      26       1       1      27
      26       1       1      27      26       1       1      27      26       1
       1      27      26       1       1      27      26       1       1      27
      26       1       1      27      26       1       1      27      26       1
       1      27      26       1       1      27      26       1       1      27
      26       1       1      27      26       1       1      27      26       1
       1      27      26       1       1      27      26       1       1      27
      26       1       1      27      26       1       1      27      26       1
       1      27      26       1       1      27      26       1       1      27
      26       1       1      27      26       1       1      27      26       1
       1      27      26       1       1      27      26       1       1      27
      26       1       1      27      26       1       1      27      26       1
       1      27      26       1       1      27      26       1       1      27
      26       1       1      27      26       1       1      27      26       1
       1      27      26       1       1      27      26       1       1      27
      26       1       1      27      26       1       1      27      26       1
       1      27      26       1       1      27      26       1       1      27
      26       1       1      27      26       1       1      27      26       1
       1      27      26       1       1      27      26       1       1      27
      26       1       1      27      26       1       1      27      26       1
       1      27      26       1       1      27      26       1       1      27
      26       1       1      27      26       1       1      27      26       1
       1      27      26       1       1      27      26       1       1      27
      26       1       1      27      26       1       1      27      26       1
       1      27      26       1       1      27      26       1       1      27
      26       1       1      27      26       1       1      27      26       1
       1      27      26       1       1      27      26       1       1      27
      26       1       1      27      26       1       1      27      26       1
       1      27      26       1       1      27      26       1       1      27
      26       1       1      27      26       1       1      27      26       1
       1      27      26       1       1      27      26       1       1      27
      26       1       1      27      26       1       1      27      26       1
       1      27      26       1       1      27      26       1       1      27
      26       1       1      27      26       1       1      27      26       1
       1      27      26       1       1      27      26       1       1      27
      26       1       1      27      26       1       1      27      26       1
       1      27      26       1       1      27      26       1       1      27
      26       1       1      27      26       1       1      27      26       1
       1      27      26       1       1      27      26       1       1      27
      26       1       1      27      26       1       1      27      26       1
       1      27      26       1       1      27      26       1       1      27
      26       1       1      27      26       1       1      27      26       1
       1      27      26       1       1      27      26       1       1      27
      26       1       1      27      26       1       1      27      26       1
       1      27      26       1       1      27      26       1       1      27
      26       1       1      27      26       1       1      27      26       1
       1      27      26       1       1      27      26       1       1      27
      26       1       1      27      26       1       1      27      26       1
       1      27      26       1       1      27      26       1       1      27
      26       1       1      27      26       1       1      27      26       1
       1      27      26       1       1      27      26       1       1      27
      26       1       1      27      26       1       1      27      26       1
       1      27      26       1       1      27      26       1       1      27
      26       1       1      27      26       1       1      27      26       1
       1      27      26       1       1      27      26       1       1      27
      26       1       1      27      26       1       1      27      26       1
       1      27      26       1       1      27      26       1       1      27
      26       1       1      27      26       1       1      27      26       1
       1      27      26       1       1      27      26       1       1      27
      26       1       1      27      26       1       1      27      26       1
       1      27      26       1       1      27      26       1       1      27
      26       1       1      27      26       1       1      27      26       1
       1      27      26       1       1      27      26       1       1      27
      26       1       1      27      26       1       1      27      26       1
       1      27      26       1       1      27      26       1       1      27
      26       1       1      27      26       1       1      27      26       1
       1      27      26       1       1      27      26       1       1      27
      26       1       1      27      26       1       1      27      26       1
       1      27      26       1       1      27      26       1       1      27
      26       1       1      27      26       1       1      27      26       1
       1      27      26       1       1      27      26       1       1      27
      26       1       1      27      26       1       1      27      26       1
       1      27      26       1       1      27      26       1       1      27
      26       1       1      27      26       1       1      27      26       1
       1      27      26       1       1      27      26       1       1      27
      26       1       1      27      26       1       1      27      26       1
       1      27      26       1       1      27      26       1       1      27
      26       1       1      27      26       1       1      27      26       1
       1      27      26       1       1      27      26       1       1      27
      26       1       1      27      26       1       1      27      26       1
       1      27      26       1       1      27      26       1       1      27
      26       1       1      27      26       1       1      27      26       1
       1      27      26       1       1      27      26       1       1      27
      26       1       1      27      26       1       1      27      26       1
       1      27      26       1       1      27      26       1       1      27
      26       1       1      27      26       1       1      27      26       1
       1      27      26       1       1      27      26       1       1      27
      26       1       1      27      26       1       1      27      26       1
       1      27      26       1       1      27      26       1       1      27
      26       1       1      27      26       1       1      27      26       1
       1      27      26       1       1      27      26       1       1      27
      26       1       1      27      26       1       1      27      26       1
       1      27      26       1       1      27      26       1       1      27
      26       1       1      27      26       1       1      27      26       1
       1      27      26       1       1      27      26       1       1      27
      26       1       1      27      26       1       1      27      26       1
       1      27      26       1       1      27      26       1       1      27
      26       1       1      27      26       1       1      27      26       1
       1      27      26       1       1      27      26       1       1      27
      26       1       1      27      26       1       1      27      26       1
       1      27      26       1       1      27      26       1       1      27
      26       1       1      27      26       1       1      27      26       1
       1      27      26       1       1      27      26       1       1      27
      26       1       1      27      26       1       1      27      26       1
       1      27      26       1       1      27      26       1       1      27
      26       1       1      27      26       1       1      27      26       1
       1      27      26       1       1      27      26       1       1      27
      26       1       1      27      26       1       1      27      26       1
       1      27      26       1       1      27      26       1       1      27
      26       1       1      27      26       1       1      27      26       1
       1      27      26       1       1      27      26       1       1      27
      26       1       1      27      26       1       1      27      26       1
       1      27      26       1       1      27      26       1       1      27
      26       1       1      27      26       1       1      27      26       1
       1      27      26       1       1      27      26       1       1      27
      26       1       1      27      26       1       1      27      26       1
       1      27      26       1       1      27      26       1       1      27
      26       1       1      27      26       1       1      27      26       1
       1      27      26       1       1      27      26       1       1      27
      26       1       1      27      26       1       1      27      26       1
       1      27      26       1       1      27      26       1       1      27
      26       1       1      27      26       1       1      27      26       1
       1      27      26       1       1      27      26       1       1      27
      26       1       1      27      26       1       1      27      26       1
       1      27      26       1       1      27      26       1       1      27
      26       1       1      27      26       1       1      27      26       1
       1      27      26       1       1      27      26       1       1      27
      26       1       1      27      26       1       1      27      26       1
       1      27      26       1       1      27      26       1       1      27
      26       1       1      27      26       1       1      27      26       1
       1      27      26       1       1      27      26       1       1      27
      26       1       1      27      26       1       1      27      26       1
       1      27      26       1       1      27      26       1       1      27
      26       1       1      27      26       1       1      27      26       1
       1      27      26       1       1      27      26       1       1      27
      26       1       1      27      26       1       1      27      26       1
       1      27      26       1       1      27      26       1       1      27
      26       1       1      27      26       1       1      27      26       1
       1      27      26       1       1      27      26       1       1      27
      26       1       1      27      26       1       1      27      26       1
       1      27      26       1       1      27      26       1       1      27
      26       1       1      27      26       1       1      27      26       1
       1      27      26       1       1      27      26       1       1      27
      26       1       1      27      26       1       1      27      26       1
       1      27      26       1       1      27      26       1       1      27
      26       1       1      27      26       1       1      27      26       1
       1      27      26       1       1      27      26       1       1      27
      26       1       1      27      26       1       1      27      26       1
       1      27      26       1       1      27      26       1       1      27
      26       1       1      27      26       1       1      27      26       1
       1      27      26       1       1      27      26       1       1      27
      26       1       1      27      26       1       1      27      26       1
       1      27      26       1       1      27      26       1       1      27
      26       1       1      27      26       1       1      27      26       1
       1      27      26       1       1      27      26       1       1      27
      26       1       1      27      26       1       1      27      26       1
       1      27      26       1       1      27      26       1       1      27
      26       1       1      27      26       1       1      27      26       1
       1      27      26       1       1      27      26       1       1      27
      26       1       1      27      26       1       1      27      26       1
       1      27      26       1       1      27      26       1       1      27
      26       1       1      27      26       1       1      27      26       1
       1      27      26       1       1      27      26       1       1      27
      26       1       1      27      26       1       1      27      26       1
       1      27      26       1       1      27      26       1       1      27
      26       1       1      27      26       1       1      27      26       1
       1      27      26       1       1      27      26       1       1      27
      26       1       1      27      26       1       1      27      26       1
       1      27      26       1       1      27      26       1       1      27
      26       1       1      27      26       1       1      27      26       1
       1      27      26       1       1      27      26       1       1      27
      26       1       1      27      26       1       1      27      26       1
       1      27      26       1       1      27      26       1       1      27
      26       1       1      27      26       1       1      27      26       1
       1      27      26       1       1      27      26       1       1      27
      26       1       1      27      26       1       1      27      26       1
       1      27      26       1       1      27      26       1       1      27
      26       1       1      27      26       1       1      27      26       1
       1      27      26       1       1      27      26       1       1      27
      26       1       1      27      26       1       1      27      26       1
       1      27      26       1       1      27      26       1       1      27
      26       1       1      27      26       1       1      27      26       1
       1      27      26       1       1      27      26       1       1      27
      26       1       1      27      26       1       1      27      26       1
       1      27      26       1       1      27      26       1       1      27
      26       1       1      27      26       1       1      27      26       1
       1      27      26       1       1      27      26       1       1      27
      26       1       1      27      26       1       1      27      26       1
       1      27      26       1       1      27      26       1       1      27
      26       1       1      27      26       1       1      27      26       1
       1      27      26       1       1      27      26       1       1      27
      26       1       1      27      26       1       1      27      26       1
       1      27      26       1       1      27      26       1       1      27
      26       1       1      27      26       1       1      27      26       1
       1      27      26       1       1      27      26       1       1      27
      26       1       1      27      26       1       1      27      26       1
       1      27      26       1       1      27      26       1       1      27
      26       1       1      27      26       1       1      27      26       1
       1      27      26       1       1      27      26       1       1      27
      26       1       1      27      26       1       1      27      26       1
       1      27      26       1       1      27      26       1       1      27
      26       1       1      27      26       1       1      27      26       1
       1      27      26       1       1      27      26       1       1      27
      26       1       1      27      26       1       1      27      26       1
       1      27      26       1       1      27      26       1       1      27
      26       1       1      27      26       1       1      27      26       1
       1      27      26       1       1      27      26       1       1      27
      26       1       1      27      26       1       1      27      26       1
       1      27      26       1       1      27      26       1       1      27
      26       1       1      27      26       1       1      27      26       1
       1      27      26       1       1      27
%FLAG NUMBER_EXCLUDED_ATOMS                                                     
%FORMAT(10I8)                                                                   
       5       7      10       5       4      12       6      11      15       7
      12       7       3       6       7       7       4       7       3       5
       4       2       1       1       1      10       5       5       3       2
       1       5       7       3       2       7      10       5       4      12
       6      11      15       7      12       7       3       6       7       7
       4       7       3       5       4       2       1       1       1      10
       5       5       3       2       1       5       7       3       2       7
      10       5       4      12       6      11      15       7      12       7
       3       6       8       8       5       2       1       4       3       2
       1       1      10       5       5       3       2       1       5       7
       3       2       7      10       5       4      12       6      11      15
       7      13       9       4       6       3       5       3       3       2
       2       1      10       5       5       3       2       1       5       7
       3       2       7      10       5       4      12       6      11      15
       7      12       9       4       7       3       6       4       2       1
       2       2       1      10       5       5       3       2       1       5
       7       3       2       7      10       5       4      12       6      11
      15       7      12       7       3       6       8       8       5       2
       1       4       3       2       1       1      10       5       5       3
       2       1       5       7       3       2       7      10       5       4
      12       6      11      15       7      13       9       4       6       3
       5       3       3       2       2       1      10       5       5       3
       2       1       5       7       3       2       7      10       5       4
      12       6      11      15       7      12       7       3       6       8
       8       5       2       1       4       3       2       1       1      10
       5       5       3       2       1       5       7       3       2       7
      10       5       4      12       6      11      15       7      13       9
       4       6       3       5       3       3       2       2       1      10
       5       5       3       2       1       5       7       3       2       7
      10       5       4      12       6      11      15       7      12       7
       3       6       8       8       5       2       1       4       3       2
       1       1      10       5       5       3       2       1       5       7
       3       2       7      10       5       4      12       6      11      15
       7      12       7       3       6       8       8       5       2       1
       4       3       2       1       1      10       5       5       3       2
       1       5       7       3       2       7      10       5       4      12
       6      11      15       7      13       9       4       6       3       5
       3       3       2       2       1      10       5       5       3       2
       1       5       7       3       2       7      10       5       4      12
       6      11      15       7      12       9       4       7       3       6
       4       2       1       2       2       1      10       5       5       3
       2       1       5       7       3       2       7      10       5       4
      12       6      11      15       7      12       7       3       6       7
       7       4       7       3       5       4       2       1       1       1
      10       5       5       3       2       1       5       7       3       2
       7      10       5       4      12       6      11      15       7      12
       9       4       7       3       6       4       2       1       2       2
       1      10       5       5       3       2       1       5       7       3
       2       7      10       5       4      12       6      11      15       7
      12       7       3       6       7       7       4       7       3       5
       4       2       1       1       1      10       5       5       3       2
       1       5       7       3       2       7      10       5       4      12
       6      11      15       7      13       9       4       6       3       5
       3       3       2       2       1      10       5       5       3       2
       1       5       7       3       2       7      10       5       4      12
       6      11      15       7      12       7       3       6       7       7
       4       7       3       5       4       2       1       1       1      10
       5       5       3       2       1       5       7       3       2       7
      10       5       4      12       6      11      15       7      12       7
       3       6       7       7       4       7       3       5       4       2
       1       1       1      10       5       5       3       2       1       5
       7       3       2       7      10       5       4      12       6      11
      15       7      12       7       3       6       8       8       5       2
       1       4       3       2       1       1      10       5       5       3
       2       1       5       7       3       2       7      10       5       4
      12       6      11      15       7      13       9       4       6       3
       5       3       3       2       2       1      10       5       5       3
       2       1       5       7       3       2       7      10       5       4
      12       6      11      15       7      12       7       3       6       8
       8       5       2       1       4       3       2       1       1      10
       5       5       3       2       1       5       7       3       2       7
      10       5       4      12       6      11      15       7      13       9
       4       6       3       5       3       3       2       2       1      10
       5       5       3       2       1       5       7       3       2       7
      10       5       4      12       6      11      15       7      12       7
       3       6       7       7       4       7       3       5       4       2
       1       1       1      10       5       5       3       2       1       5
       7       3       2       7      10       5       4      12       6      11
      15       7      12       7       3       6       7       7       4       7
       3       5       4       2       1       1       1      10       5       5
       3       2       1       5       7       3       2       7      10       5
       4      12       6      11      15       7      12       9       4       7
       3       6       4       2       1       2       2       1      10       5
       5       3       2       1       5       7       3       2       7      10
       5       4      12       6      11      15       7      12       7       3
       6       8       8       5       2       1       4       3       2       1
       1      10       5       5       3       2       1       5       7       3
       2       7      10       5       4      12       6      11      15       7
      12       9       4       7       3       6       4       2       1       2
       2       1      10       5       5       3       2       1       5       7
       3       2       7      10       5       4      12       6      11      15
       7      12       7       3       6       7       7       4       7       3
       5       4       2       1       1       1      10       5       5       3
       2       1       5       7       3       2       7      10       5       4
      12       6      11      15       7      12       9       4       7       3
       6       4       2       1       2       2       1      10       5       5
       3       2       1       5       7       3       2       7      10       5
       4      12       6      11      15       7      12       7       3       6
       8       8       5       2       1       4       3       2       1       1
      10       5       5       3       2       1       5       7       3       2
       7      10       5       4      12       6      11      15       7      12
       7       3       6       8       8       5       2       1       4       3
       2       1       1      10       5       5       3       2       1       5
       7       3       2       7      10       5       4      12       6      11
      15       7      12       7       3       6       7       7       4       7
       3       5       4       2       1       1       1      10       5       5
       3       2       1       5       7       3       2       7      10       5
       4      12       6      11      15       7      13       9       4       6
       3       5       3       3       2       2       1      10       5       5
       3       2       1       5       7       3       2       7      10       5
       4      12       6      11      15       7      13       9       4       6
       3       5       3       3       2       2       1      10       5       5
       3       2       1       5       7       3       2       7      10       5
       4      12       6      11      15       7      13       9       4       6
       3       5       3       3       2       2       1      10       5       5
       3       2       1       5       7       3       2       7      10       5
       4      12       6      11      15       7      12       9       4       7
       3       6       4       2       1       2       2       1      10       5
       5       3       2       1       5       7       3       2       7      10
       5       4      12       6      11      15       7      13       9       4
       6       3       5       3       3       2       2       1      10       5
       5       3       2       1       5       7       3       2       7      10
       5       4      12       6      11      15       7      12       7       3
       6       8       8       5       2       1       4       3       2       1
       1      10       5       5       3       2       1       5       7       3
       2       7      10       5       4      12       6      11      15       7
      12       9       4       7       3       6       4       2       1       2
       2       1      10       5       5       3       2       1       5       7
       3       2       7      10       5       4      12       6      11      15
       7      12       9       4       7       3       6       4       2       1
       2       2       1      10       5       5       3       2       1       5
       7       3       2       7      10       5       4      12       6      11
      15       7      12       7       3       6       7       7       4       7
       3       5       4       2       1       1       1      10       5       5
       3       2       1       5       7       3       2       7      10       5
       4      12       6      11      15       7      12       7       3       6
       7       7       4       7       3       5       4       2       1       1
       1      10       5       5       3       2       1       5       7       3
       2       7      10       5       4      12       6      11      15       7
      12       7       3       6       7       7       4       7       3       5
       4       2       1       1       1      10       5       5       3       2
       1       5       7       3       2       7      10       5       4      12
       6      11      15       7      12       9       4       7       3       6
       4       2       1       2       2       1      10       5       5       3
       2       1       5       7       3       2       7      10       5       4
      12       6      11      15       7      12       7       3       6       8
       8       5       2       1       4       3       2       1       1      10
       5       5       3       2       1       5       7       3       2       7
      10       5       4      12       6      11      15       7      12       9
       4       7       3       6       4       2       1       2       2       1
      10       5       5       3       2       1       5       7       3       2
       7      10       5       4      12       6      11      15       7      12
       9       4       7       3       6       4       2       1       2       2
       1      10       5       5       3       2       1       5       7       3
       2       7      10       5       4      12       6      11      15       7
      12       7       3       6       7       7       4       7       3       5
       4       2       1       1       1      10       5       5       3       2
       1       5       7       3       2       7      10       5       4      12
       6      11      15       7      13       9       4       6       3       5
       3       3       2       2       1      10       5       5       3       2
       1       5       7       3       2       7      10       5       4      12
       6      11      15       7      12       7       3       6       8       8
       5       2       1       4       3       2       1       1      10       5
       5       3       2       1       5       7       3       2       7      10
       5       4      12       6      11      15       7      12       7       3
       6       8       8       5       2       1       4       3       2       1
       1      10       5       5       3       2       1       5       7       3
       2       7      10       5       4      12       6      11      15       7
      12       7       3       6       8       8       5       2       1       4
       3       2       1       1      10       5       5       3       2       1
       5       7       3       2       7      10       5       4      12       6
      11      15       7      13       9       4       6       3       5       3
       3       2       2       1      10       5       5       3       2       1
       5       7       3       2       7      10       5       4      12       6
      11      15       7      12       7       3       6       7       7       4
       7       3       5       4       2       1       1       1      10       5
       5       3       2       1       5       7       3       2       7      10
       5       4      12       6      11      15       7      13       9       4
       6       3       5       3       3       2       2       1      10       5
       5       3       2       1       5       7       3       2       7      10
       5       4      12       6      11      15       7      12       9       4
       7       3       6       4       2       1       2       2       1      10
       5       5       3       2       1       5       7       3       2       7
      10       5       4      12       6      11      15       7      12       9
       4       7       3       6       4       2       1       2       2       1
      10       5       5       3       2       1       5       7       3       2
       7      10       5       4      12       6      11      15       7      12
       7       3       6       7       7       4       7       3       5       4
       2       1       1       1      10       5       5       3       2       1
       5       7       3       2       7      10       5       4      12       6
      11      15       7      12       7       3       6       8       8       5
       2       1       4       3       2       1       1      10       5       5
       3       2       1       5       7       3       2       7      10       5
       4      12       6      11      15       7      12       9       4       7
       3       6       4       2       1       2       2       1      10       5
       5       3       2       1       5       7       3       2       7      10
       5       4      12       6      11      15       7      13       9       4
       6       3       5       3       3       2       2       1      10       5
       5       3       2       1       5       7       3       2       7      10
       5       4      12       6      11      15       7      12       7       3
       6       8       8       5       2       1       4       3       2       1
       1      10       5       5       3       2       1       5       7       3
       2       7      10       5       4      12       6      11      15       7
      13       9       4       6       3       5       3       3       2       2
       1      10       5       5       3       2       1       5       7       3
       2       7      10       5       4      12       6      11      15       7
      12       7       3       6       7       7       4       7       3       5
       4       2       1       1       1      10       5       5       3       2
       1       5       7       3       2       7      10       5       4      12
       6      11      15       7      12       7       3       6       7       7
       4       7       3       5       4       2       1       1       1      10
       5       5       3       2       1       5       7       3       2       7
      10       5       4      12       6      11      15       7      13       9
       4       6       3       5       3       3       2       2       1      10
       5       5       3       2       1       5       7       3       2       7
      10       5       4      12       6      11      15       7      12       9
       4       7       3       6       4       2       1       2       2       1
       7       5       5       3       2       1       1       1       1       1
       1       1       1       1       1       1       1       1       1       1
       1       1       1       1       1       1       1       1       1       1
       1       1       1       1       1       1       1       1       1       1
       1       1       1       1       1       1       1       1       1       1
       1       1       1       1       1       1       1       1       1       1
       1       1       1       1       1       1       1       1       1       1
       1       1       1       1       1       1       1       1       1       1
       1       1       1       1       1       1       1       1       1       1
       1       1       1       1       1       1       1       1       1       1
       1       1       1       1       1       1       1       1       1       1
       1       1       1       1       1       1       1       1       1       1
       1       1       1       1       1       1       1       1       1       1
       1       1       1       1       1       1       1       1       1       7
      10      10       9       6       3       2       1       7       6       6
       4       3       2       1       1       1       3       2       1       1
       3       2       1       1       3       2       1       1       3       2
       1       1       3       2       1       1       3       2       1       1
       3       2       1       1       3       2       1       1       3       2
       1       1       3       2       1       1       3       2       1       1
       3       2       1       1       3       2       1       1       3       2
       1       1       3       2       1       1       3       2       1       1
       3       2       1       1       3       2       1       1       3       2
       1       1       3       2       1       1       3       2       1       1
       3       2       1       1       3       2       1       1       3       2
       1       1       3       2       1       1       3       2       1       1
       3       2       1       1       3       2       1       1       3       2
       1       1       3       2       1       1       3       2       1       1
       3       2       1       1       3       2       1       1       3       2
       1       1       3       2       1       1       3       2       1       1
       3       2       1       1       3       2       1       1       3       2
       1       1       3       2       1       1       3       2       1       1
       3       2       1       1       3       2       1       1       3       2
       1       1       3       2       1       1       3       2       1       1
       3       2       1       1       3       2       1       1       3       2
       1       1       3       2       1       1       3       2       1       1
       3       2       1       1       3       2       1       1       3       2
       1       1       3       2       1       1       3       2       1       1
       3       2       1       1       3       2       1       1       3       2
       1       1       3       2       1       1       3       2       1       1
       3       2       1       1       3       2       1       1       3       2
       1       1       3       2       1       1       3       2       1       1
       3       2       1       1       3       2       1       1       3       2
       1       1       3       2       1       1       3       2       1       1
       3       2       1       1       3       2       1       1       3       2
       1       1       3       2       1       1       3       2       1       1
       3       2       1       1       3       2       1       1       3       2
       1       1       3       2       1       1       3       2       1       1
       3       2       1       1       3       2       1       1       3       2
       1       1       3       2       1       1       3       2       1       1
       3       2       1       1       3       2       1       1       3       2
       1       1       3       2       1       1       3       2       1       1
       3       2       1       1       3       2       1       1       3       2
       1       1       3       2       1       1       3       2       1       1
       3       2       1       1       3       2       1       1       3       2
       1       1       3       2       1       1       3       2       1       1
       3       2       1       1       3       2       1       1       3       2
       1       1       3       2       1       1       3       2       1       1
       3       2       1       1       3       2       1       1       3       2
       1       1       3       2       1       1       3       2       1       1
       3       2       1       1       3       2       1       1       3       2
       1       1       3       2       1       1       3       2       1       1
       3       2       1       1       3       2       1       1       3       2
       1       1       3       2       1       1       3       2       1       1
       3       2       1       1       3       2       1       1       3       2
       1       1       3       2       1       1       3       2       1       1
       3       2       1       1       3       2       1       1       3       2
       1       1       3       2       1       1       3       2       1       1
       3       2       1       1       3       2       1       1       3       2
       1       1       3       2       1       1       3       2       1       1
       3       2       1       1       3       2       1       1       3       2
       1       1       3       2       1       1       3       2       1       1
       3       2       1       1       3       2       1       1       3       2
       1       1       3       2       1       1       3       2       1       1
       3       2       1       1       3       2       1       1       3       2
       1       1       3       2       1       1       3       2       1       1
       3       2       1       1       3       2       1       1       3       2
       1       1       3       2       1       1       3       2       1       1
       3       2       1       1       3       2       1       1       3       2
       1       1       3       2       1       1       3       2       1       1
       3       2       1       1       3       2       1       1       3       2
       1       1       3       2       1       1       3       2       1       1
       3       2       1       1       3       2       1       1       3       2
       1       1       3       2       1       1       3       2       1       1
       3       2       1       1       3       2       1       1       3       2
       1       1       3       2       1       1       3       2       1       1
       3       2       1       1       3       2       1       1       3       2
       1       1       3       2       1       1       3       2       1       1
       3       2       1       1       3       2       1       1       3       2
       1       1       3       2       1       1       3       2       1       1
       3       2       1       1       3       2       1       1       3       2
       1       1       3       2       1       1       3       2       1       1
       3       2       1       1       3       2       1       1       3       2
       1       1       3       2       1       1       3       2       1       1
       3       2       1       1       3       2       1       1       3       2
       1       1       3       2       1       1       3       2       1       1
       3       2       1       1       3       2       1       1       3       2
       1       1       3       2       1       1       3       2       1       1
       3       2       1       1       3       2       1       1       3       2
       1       1       3       2       1       1       3       2       1       1
       3       2       1       1       3       2       1       1       3       2
       1       1       3       2       1       1       3       2       1       1
       3       2       1       1       3       2       1       1       3       2
       1       1       3       2       1       1       3       2       1       1
       3       2       1       1       3       2       1       1       3       2
       1       1       3       2       1       1       3       2       1       1
       3       2       1       1       3       2       1       1       3       2
       1       1       3       2       1       1       3       2       1       1
       3       2       1       1       3       2       1       1       3       2
       1       1       3       2       1       1       3       2       1       1
       3       2       1       1       3       2       1       1       3       2
       1       1       3       2       1       1       3       2       1       1
       3       2       1       1       3       2       1       1       3       2
       1       1       3       2       1       1       3       2       1       1
       3       2       1       1       3       2       1       1       3       2
       1       1       3       2       1       1       3       2       1       1
       3       2       1       1       3       2       1       1       3       2
       1       1       3       2       1       1       3       2       1       1
       3       2       1       1       3       2       1       1       3       2
       1       1       3       2       1       1       3       2       1       1
       3       2       1       1       3       2       1       1       3       2
       1       1       3       2       1       1       3       2       1       1
       3       2       1       1       3       2       1       1       3       2
       1       1       3       2       1       1       3       2       1       1
       3       2       1       1       3       2       1       1       3       2
       1       1       3       2       1       1       3       2       1       1
       3       2       1       1       3       2       1       1       3       2
       1       1       3       2       1       1       3       2       1       1
       3       2       1       1       3       2       1       1       3       2
       1       1       3       2       1       1       3       2       1       1
       3       2       1       1       3       2       1       1       3       2
       1       1       3       2       1       1       3       2       1       1
       3       2       1       1       3       2       1       1       3       2
       1       1       3       2       1       1       3       2       1       1
       3       2       1       1       3       2       1       1       3       2
       1       1       3       2       1       1       3       2       1       1
       3       2       1       1       3       2       1       1       3       2
       1       1       3       2       1       1       3       2       1       1
       3       2       1       1       3       2       1       1       3       2
       1       1       3       2       1       1       3       2       1       1
       3       2       1       1       3       2       1       1       3       2
       1       1       3       2       1       1       3       2       1       1
       3       2       1       1       3       2       1       1       3       2
       1       1       3       2       1       1       3       2       1       1
       3       2       1       1       3       2       1       1       3       2
       1       1       3       2       1       1       3       2       1       1
       3       2       1       1       3       2       1       1       3       2
       1       1       3       2       1       1       3       2       1       1
       3       2       1       1       3       2       1       1       3       2
       1       1       3       2       1       1       3       2       1       1
       3       2       1       1       3       2       1       1       3       2
       1       1       3       2       1       1       3       2       1       1
       3       2       1       1       3       2       1       1       3       2
       1       1       3       2       1       1       3       2       1       1
       3       2       1       1       3       2       1       1       3       2
       1       1       3       2       1       1       3       2       1       1
       3       2       1       1       3       2       1       1       3       2
       1       1       3       2       1       1       3       2       1       1
       3       2       1       1       3       2       1       1       3       2
       1       1       3       2       1       1       3       2       1       1
       3       2       1       1       3       2       1       1       3       2
       1       1       3       2       1       1       3       2       1       1
       3       2       1       1       3       2       1       1       3       2
       1       1       3       2       1       1       3       2       1       1
       3       2       1       1       3       2       1       1       3       2
       1       1       3       2       1       1       3       2       1       1
       3       2       1       1       3       2       1       1       3       2
       1       1       3       2       1       1       3       2       1       1
       3       2       1       1       3       2       1       1       3       2
       1       1       3       2       1       1       3       2       1       1
       3       2       1       1       3       2       1       1       3       2
       1       1       3       2       1       1       3       2       1       1
       3       2       1       1       3       2       1       1       3       2
       1       1       3       2       1       1       3       2       1       1
       3       2       1       1       3       2       1       1       3       2
       1       1       3       2       1       1       3       2       1       1
       3       2       1       1       3       2       1       1       3       2
       1       1       3       2       1       1       3       2       1       1
       3       2       1       1       3       2       1       1       3       2
       1       1       3       2       1       1       3       2       1       1
       3       2       1       1       3       2       1       1       3       2
       1       1       3       2       1       1       3       2       1       1
       3       2       1       1       3       2       1       1       3       2
       1       1       3       2       1       1       3       2       1       1
       3       2       1       1       3       2       1       1       3       2
       1       1       3       2       1       1       3       2       1       1
       3       2       1       1       3       2       1       1       3       2
       1       1       3       2       1       1       3       2       1       1
       3       2       1       1       3       2       1       1       3       2
       1       1       3       2       1       1       3       2       1       1
       3       2       1       1       3       2       1       1       3       2
       1       1       3       2       1       1       3       2       1       1
       3       2       1       1       3       2       1       1       3       2
       1       1       3       2       1       1       3       2       1       1
       3       2       1       1       3       2       1       1       3       2
       1       1       3       2       1       1       3       2       1       1
       3       2       1       1       3       2       1       1       3       2
       1       1       3       2       1       1       3       2       1       1
       3       2       1       1       3       2       1       1       3       2
       1       1       3       2       1       1       3       2       1       1
       3       2       1       1       3       2       1       1       3       2
       1       1       3       2       1       1       3       2       1       1
       3       2       1       1       3       2       1       1       3       2
       1       1       3       2       1       1       3       2       1       1
       3       2       1       1       3       2       1       1       3       2
       1       1       3       2       1       1       3       2       1       1
       3       2       1       1       3       2       1       1       3       2
       1       1       3       2       1       1       3       2       1       1
       3       2       1       1       3       2       1       1       3       2
       1       1       3       2       1       1       3       2       1       1
       3       2       1       1       3       2       1       1       3       2
       1       1       3       2       1       1       3       2       1       1
       3       2       1       1       3       2       1       1       3       2
       1       1       3       2       1       1       3       2       1       1
       3       2       1       1       3       2       1       1       3       2
       1       1       3       2       1       1       3       2       1       1
       3       2       1       1       3       2       1       1       3       2
       1       1       3       2       1       1       3       2       1       1
       3       2       1       1       3       2       1       1       3       2
       1       1       3       2       1       1       3       2       1       1
       3       2       1       1       3       2       1       1       3       2
       1       1       3       2       1       1       3       2       1       1
       3       2       1       1       3       2       1       1       3       2
       1       1       3       2       1       1       3       2       1       1
       3       2       1       1       3       2       1       1       3       2
       1       1       3       2       1       1       3       2       1       1
       3       2       1       1       3       2       1       1       3       2
       1       1       3       2       1       1       3       2       1       1
       3       2       1       1       3       2       1       1       3       2
       1       1       3       2       1       1       3       2       1       1
       3       2       1       1       3       2       1       1       3       2
       1       1       3       2       1       1       3       2       1       1
       3       2       1       1       3       2       1       1       3       2
       1       1       3       2       1       1       3       2       1       1
       3       2       1       1       3       2       1       1       3       2
       1       1       3       2       1       1       3       2       1       1
       3       2       1       1       3       2       1       1       3       2
       1       1       3       2       1       1       3       2       1       1
       3       2       1       1       3       2       1       1       3       2
       1       1       3       2       1       1       3       2       1       1
       3       2       1       1       3       2       1       1       3       2
       1       1       3       2       1       1       3       2       1       1
       3       2       1       1       3       2       1       1       3       2
       1       1       3       2       1       1       3       2       1       1
       3       2       1       1       3       2       1       1       3       2
       1       1       3       2       1       1       3       2       1       1
       3       2       1       1       3       2       1       1       3       2
       1       1       3       2       1       1       3       2       1       1
       3       2       1       1       3       2       1       1       3       2
       1       1       3       2       1       1       3       2       1       1
       3       2       1       1       3       2       1       1       3       2
       1       1       3       2       1       1       3       2       1       1
       3       2       1       1       3       2       1       1       3       2
       1       1       3       2       1       1       3       2       1       1
       3       2       1       1       3       2       1       1       3       2
       1       1       3       2       1       1       3       2       1       1
       3       2       1       1       3       2       1       1       3       2
       1       1       3       2       1       1       3       2       1       1
       3       2       1       1       3       2       1       1       3       2
       1       1       3       2       1       1       3       2       1       1
       3       2       1       1       3       2       1       1       3       2
       1       1       3       2       1       1       3       2       1       1
       3       2       1       1       3       2       1       1       3       2
       1       1       3       2       1       1       3       2       1       1
       3       2       1       1       3       2       1       1       3       2
       1       1       3       2       1       1       3       2       1       1
       3       2       1       1       3       2       1       1       3       2
       1       1       3       2       1       1       3       2       1       1
       3       2       1       1       3       2       1       1       3       2
       1       1       3       2       1       1       3       2       1       1
       3       2       1       1       3       2       1       1       3       2
       1       1       3       2       1       1       3       2       1       1
       3       2       1       1       3       2       1       1       3       2
       1       1       3       2       1       1       3       2       1       1
       3       2       1       1       3       2       1       1       3       2
       1       1       3       2       1       1       3       2       1       1
       3       2       1       1       3       2       1       1       3       2
       1       1       3       2       1       1       3       2       1       1
       3       2       1       1       3       2       1       1       3       2
       1       1       3       2       1       1       3       2       1       1
       3       2       1       1       3       2       1       1       3       2
       1       1       3       2       1       1       3       2       1       1
       3       2       1       1       3       2       1       1       3       2
       1       1       3       2       1       1       3       2       1       1
       3       2       1       1       3       2       1       1       3       2
       1       1       3       2       1       1       3       2       1       1
       3       2       1       1       3       2       1       1       3       2
       1       1       3       2       1       1       3       2       1       1
       3       2       1       1       3       2       1       1       3       2
       1       1       3       2       1       1       3       2       1       1
       3       2       1       1       3       2       1       1       3       2
       1       1       3       2       1       1       3       2       1       1
       3       2       1       1       3       2       1       1       3       2
       1       1       3       2       1       1       3       2       1       1
       3       2       1       1       3       2       1       1       3       2
       1       1       3       2       1       1       3       2       1       1
       3       2       1       1       3       2       1       1       3       2
       1       1       3       2       1       1       3       2       1       1
       3       2       1       1       3       2       1       1       3       2
       1       1       3       2       1       1       3       2       1       1
       3       2       1       1       3       2       1       1       3       2
       1       1       3       2       1       1       3       2       1       1
       3       2       1       1       3       2       1       1       3       2
       1       1       3       2       1       1       3       2       1       1
       3       2       1       1       3       2       1       1       3       2
       1       1       3       2       1       1       3       2       1       1
       3       2       1       1       3       2       1       1       3       2
       1       1       3       2       1       1       3       2       1       1
       3       2       1       1       3       2       1       1       3       2
       1       1       3       2       1       1       3       2       1       1
       3       2       1       1       3       2       1       1       3       2
       1       1       3       2       1       1       3       2       1       1
       3       2       1       1       3       2       1       1       3       2
       1       1       3       2       1       1       3       2       1       1
       3       2       1       1       3       2       1       1       3       2
       1       1       3       2       1       1       3       2       1       1
       3       2       1       1       3       2       1       1       3       2
       1       1       3       2       1       1       3       2       1       1
       3       2       1       1       3       2       1       1       3       2
       1       1       3       2       1       1       3       2       1       1
       3       2       1       1       3       2       1       1       3       2
       1       1       3       2       1       1       3       2       1       1
       3       2       1       1       3       2       1       1       3       2
       1       1       3       2       1       1       3       2       1       1
       3       2       1       1       3       2       1       1       3       2
       1       1       3       2       1       1       3       2       1       1
       3       2       1       1       3       2       1       1       3       2
       1       1       3       2       1       1       3       2       1       1
       3       2       1       1       3       2       1       1       3       2
       1       1       3       2       1       1       3       2       1       1
       3       2       1       1       3       2       1       1       3       2
       1       1       3       2       1       1       3       2       1       1
       3       2       1       1       3       2       1       1       3       2
       1       1       3       2       1       1       3       2       1       1
       3       2       1       1       3       2       1       1       3       2
       1       1       3       2       1       1       3       2       1       1
       3       2       1       1       3       2       1       1       3       2
       1       1       3       2       1       1       3       2       1       1
       3       2       1       1       3       2       1       1       3       2
       1       1       3       2       1       1       3       2       1       1
       3       2       1       1       3       2       1       1       3       2
       1       1       3       2       1       1       3       2       1       1
       3       2       1       1       3       2       1       1       3       2
       1       1       3       2       1       1       3       2       1       1
       3       2       1       1       3       2       1       1       3       2
       1       1       3       2       1       1       3       2       1       1
       3       2       1       1       3       2       1       1       3       2
       1       1       3       2       1       1       3       2       1       1
       3       2       1       1       3       2       1       1       3       2
       1       1       3       2       1       1       3       2       1       1
       3       2       1       1       3       2       1       1       3       2
       1       1       3       2       1       1       3       2       1       1
       3       2       1       1       3       2       1       1       3       2
       1       1       3       2       1       1       3       2       1       1
       3       2       1       1       3       2       1       1       3       2
       1       1       3       2       1       1       3       2       1       1
       3       2       1       1       3       2       1       1       3       2
       1       1       3       2       1       1       3       2       1       1
       3       2       1       1       3       2       1       1       3       2
       1       1       3       2       1       1       3       2       1       1
       3       2       1       1       3       2       1       1       3       2
       1       1       3       2       1       1       3       2       1       1
       3       2       1       1       3       2       1       1       3       2
       1       1       3       2       1       1       3       2       1       1
       3       2       1       1       3       2       1       1       3       2
       1       1       3       2       1       1       3       2       1       1
       3       2       1       1       3       2       1       1       3       2
       1       1       3       2       1       1       3       2       1       1
       3       2       1       1       3       2       1       1       3       2
       1       1       3       2       1       1       3       2       1       1
       3       2       1       1       3       2       1       1       3       2
       1       1       3       2       1       1       3       2       1       1
       3       2       1       1       3       2       1       1       3       2
       1       1       3       2       1       1       3       2       1       1
       3       2       1       1       3       2       1       1       3       2
       1       1       3       2       1       1       3       2       1       1
       3       2       1       1       3       2       1       1       3       2
       1       1       3       2       1       1       3       2       1       1
       3       2       1       1       3       2       1       1       3       2
       1       1       3       2       1       1       3       2       1       1
       3       2       1       1       3       2       1       1       3       2
       1       1       3       2       1       1       3       2       1       1
       3       2       1       1       3       2       1       1       3       2
       1       1       3       2       1       1       3       2       1       1
       3       2       1       1       3       2       1       1       3       2
       1       1       3       2       1       1       3       2       1       1
       3       2       1       1       3       2       1       1       3       2
       1       1       3       2       1       1       3       2       1       1
       3       2       1       1       3       2       1       1       3       2
       1       1       3       2       1       1       3       2       1       1
       3       2       1       1       3       2       1       1       3       2
       1       1       3       2       1       1       3       2       1       1
       3       2       1       1       3       2       1       1       3       2
       1       1       3       2       1       1       3       2       1       1
       3       2       1       1       3       2       1       1       3       2
       1       1       3       2       1       1       3       2       1       1
       3       2       1       1       3       2       1       1       3       2
       1       1       3       2       1       1       3       2       1       1
       3       2       1       1       3       2       1       1       3       2
       1       1       3       2       1       1       3       2       1       1
       3       2       1       1       3       2       1       1       3       2
       1       1       3       2       1       1       3       2       1       1
       3       2       1       1       3       2       1       1       3       2
       1       1       3       2       1       1       3       2       1       1
       3       2       1       1       3       2       1       1       3       2
       1       1       3       2       1       1       3       2       1       1
       3       2       1       1       3       2       1       1       3       2
       1       1       3       2       1       1       3       2       1       1
       3       2       1       1       3       2       1       1       3       2
       1       1       3       2       1       1       3       2       1       1
       3       2       1       1       3       2       1       1       3       2
       1       1       3       2       1       1       3       2       1       1
       3       2       1       1       3       2       1       1       3       2
       1       1       3       2       1       1       3       2       1       1
       3       2       1       1       3       2       1       1       3       2
       1       1       3       2       1       1       3       2       1       1
       3       2       1       1       3       2       1       1       3       2
       1       1       3       2       1       1       3       2       1       1
       3       2       1       1       3       2       1       1       3       2
       1       1       3       2       1       1       3       2       1       1
       3       2       1       1       3       2       1       1       3       2
       1       1       3       2       1       1       3       2       1       1
       3       2       1       1       3       2       1       1       3       2
       1       1       3       2       1       1       3       2       1       1
       3       2       1       1       3       2       1       1       3       2
       1       1       3       2       1       1       3       2       1       1
       3       2       1       1       3       2       1       1       3       2
       1       1       3       2       1       1       3       2       1       1
       3       2       1       1       3       2       1       1       3       2
       1       1       3       2       1       1       3       2       1       1
       3       2       1       1       3       2       1       1       3       2
       1       1       3       2       1       1       3       2       1       1
       3       2       1       1       3       2       1       1       3       2
       1       1       3       2       1       1       3       2       1       1
       3       2       1       1       3       2       1       1       3       2
       1       1       3       2       1       1       3       2       1       1
       3       2       1       1       3       2       1       1       3       2
       1       1       3       2       1       1       3       2       1       1
       3       2       1       1       3       2       1       1       3       2
       1       1       3       2       1       1       3       2       1       1
       3       2       1       1       3       2       1       1       3       2
       1       1       3       2       1       1       3       2       1       1
       3       2       1       1       3       2       1       1       3       2
       1       1       3       2       1       1       3       2       1       1
       3       2       1       1       3       2       1       1       3       2
       1       1       3       2       1       1       3       2       1       1
       3       2       1       1       3       2       1       1       3       2
       1       1       3       2       1       1       3       2       1       1
       3       2       1       1       3       2       1       1       3       2
       1       1       3       2       1       1       3       2       1       1
       3       2       1       1       3       2       1       1       3       2
       1       1       3       2       1       1       3       2       1       1
       3       2       1       1       3       2       1       1       3       2
       1       1       3       2       1       1       3       2       1       1
       3       2       1       1       3       2       1       1       3       2
       1       1       3       2       1       1       3       2       1       1
       3       2       1       1       3       2       1       1       3       2
       1       1       3       2       1       1       3       2       1       1
       3       2       1       1       3       2       1       1       3       2
       1       1       3       2       1       1       3       2       1       1
       3       2       1       1       3       2       1       1       3       2
       1       1       3       2       1       1       3       2       1       1
       3       2       1       1       3       2       1       1       3       2
       1       1       3       2       1       1       3       2       1       1
       3       2       1       1       3       2       1       1       3       2
       1       1       3       2       1       1       3       2       1       1
       3       2       1       1       3       2       1       1       3       2
       1       1       3       2       1       1       3       2       1       1
       3       2       1       1       3       2       1       1       3       2
       1       1       3       2       1       1       3       2       1       1
       3       2       1       1       3       2       1       1       3       2
       1       1       3       2       1       1       3       2       1       1
       3       2       1       1       3       2       1       1       3       2
       1       1       3       2       1       1       3       2       1       1
       3       2       1       1       3       2       1       1       3       2
       1       1       3       2       1       1       3       2       1       1
       3       2       1       1       3       2       1       1       3       2
       1       1       3       2       1       1       3       2       1       1
       3       2       1       1       3       2       1       1       3       2
       1       1       3       2       1       1       3       2       1       1
       3       2       1       1       3       2       1       1       3       2
       1       1       3       2       1       1       3       2       1       1
       3       2       1       1       3       2       1       1       3       2
       1       1       3       2       1       1       3       2       1       1
       3       2       1       1       3       2       1       1       3       2
       1       1       3       2       1       1       3       2       1       1
       3       2       1       1       3       2       1       1       3       2
       1       1       3       2       1       1       3       2       1       1
       3       2       1       1       3       2       1       1       3       2
       1       1       3       2       1       1       3       2       1       1
       3       2       1       1       3       2       1       1       3       2
       1       1       3       2       1       1       3       2       1       1
       3       2       1       1       3       2       1       1       3       2
       1       1       3       2       1       1       3       2       1       1
       3       2       1       1       3       2       1       1       3       2
       1       1       3       2       1       1       3       2       1       1
       3       2       1       1       3       2       1       1       3       2
       1       1       3       2       1       1       3       2       1       1
       3       2       1       1       3       2       1       1       3       2
       1       1       3       2       1       1       3       2       1       1
       3       2       1       1       3       2       1       1       3       2
       1       1       3       2       1       1       3       2       1       1
       3       2       1       1       3       2       1       1       3       2
       1       1       3       2       1       1       3       2       1       1
       3       2       1       1       3       2       1       1       3       2
       1       1       3       2       1       1       3       2       1       1
       3       2       1       1       3       2       1       1       3       2
       1       1       3       2       1       1       3       2       1       1
       3       2       1       1       3       2       1       1       3       2
       1       1       3       2       1       1       3       2       1       1
       3       2       1       1       3       2       1       1       3       2
       1       1       3       2       1       1       3       2       1       1
       3       2       1       1       3       2       1       1       3       2
       1       1       3       2       1       1       3       2       1       1
       3       2       1       1       3       2       1       1       3       2
       1       1       3       2       1       1       3       2       1       1
       3       2       1       1       3       2       1       1       3       2
       1       1       3       2       1       1       3       2       1       1
       3       2       1       1       3       2       1       1       3       2
       1       1       3       2       1       1       3       2       1       1
       3       2       1       1       3       2       1       1       3       2
       1       1       3       2       1       1       3       2       1       1
       3       2       1       1       3       2       1       1       3       2
       1       1       3       2       1       1       3       2       1       1
       3       2       1       1       3       2       1       1       3       2
       1       1       3       2       1       1       3       2       1       1
       3       2       1       1       3       2       1       1       3       2
       1       1       3       2       1       1       3       2       1       1
       3       2       1       1       3       2       1       1       3       2
       1       1       3       2       1       1       3       2       1       1
       3       2       1       1       3       2       1       1       3       2
       1       1       3       2       1       1       3       2       1       1
       3       2       1       1       3       2       1       1       3       2
       1       1       3       2       1       1       3       2       1       1
       3       2       1       1       3       2       1       1       3       2
       1       1       3       2       1       1       3       2       1       1
       3       2       1       1       3       2       1       1       3       2
       1       1       3       2       1       1       3       2       1       1
       3       2       1       1       3       2       1       1       3       2
       1       1       3       2       1       1       3       2       1       1
       3       2       1       1       3       2       1       1       3       2
       1       1       3       2       1       1       3       2       1       1
       3       2       1       1       3       2       1       1       3       2
       1       1       3       2       1       1       3       2       1       1
       3       2       1       1       3       2       1       1       3       2
       1       1       3       2       1       1       3       2       1       1
       3       2       1       1       3       2       1       1       3       2
       1       1       3       2       1       1       3       2       1       1
       3       2       1       1       3       2       1       1       3       2
       1       1       3       2       1       1       3       2       1       1
       3       2       1       1       3       2       1       1       3       2
       1       1       3       2       1       1       3       2       1       1
       3       2       1       1       3       2       1       1       3       2
       1       1       3       2       1       1       3       2       1       1
       3       2       1       1       3       2       1       1       3       2
       1       1       3       2       1       1       3       2       1       1
       3       2       1       1       3       2       1       1       3       2
       1       1       3       2       1       1       3       2       1       1
       3       2       1       1       3       2       1       1       3       2
       1       1       3       2       1       1       3       2       1       1
       3       2       1       1       3       2       1       1       3       2
       1       1       3       2       1       1       3       2       1       1
       3       2       1       1       3       2       1       1       3       2
       1       1       3       2       1       1       3       2       1       1
       3       2       1       1       3       2       1       1       3       2
       1       1       3       2       1       1       3       2       1       1
       3       2       1       1       3       2       1       1       3       2
       1       1       3       2       1       1       3       2       1       1
       3       2       1       1       3       2       1       1       3       2
       1       1       3       2       1       1       3       2       1       1
       3       2       1       1       3       2       1       1       3       2
       1       1       3       2       1       1       3       2       1       1
       3       2       1       1       3       2       1       1       3       2
       1       1       3       2       1       1       3       2       1       1
       3       2       1       1       3       2       1       1       3       2
       1       1       3       2       1       1       3       2       1       1
       3       2       1       1       3       2       1       1       3       2
       1       1       3       2       1       1       3       2       1       1
       3       2       1       1       3       2       1       1       3       2
       1       1       3       2       1       1       3       2       1       1
       3       2       1       1       3       2       1       1       3       2
       1       1       3       2       1       1       3       2       1       1
       3       2       1       1       3       2       1       1       3       2
       1       1       3       2       1       1       3       2       1       1
       3       2       1       1       3       2       1       1       3       2
       1       1       3       2       1       1       3       2       1       1
       3       2       1       1       3       2       1       1       3       2
       1       1       3       2       1       1       3       2       1       1
       3       2       1       1       3       2       1       1       3       2
       1       1       3       2       1       1       3       2       1       1
       3       2       1       1       3       2       1       1       3       2
       1       1       3       2       1       1       3       2       1       1
       3       2       1       1       3       2       1       1       3       2
       1       1       3       2       1       1       3       2       1       1
       3       2       1       1       3       2       1       1       3       2
       1       1       3       2       1       1       3       2       1       1
       3       2       1       1       3       2       1       1       3       2
       1       1       3       2       1       1       3       2       1       1
       3       2       1       1       3       2       1       1       3       2
       1       1       3       2       1       1       3       2       1       1
       3       2       1       1       3       2       1       1       3       2
       1       1       3       2       1       1       3       2       1       1
       3       2       1       1       3       2       1       1       3       2
       1       1       3       2       1       1       3       2       1       1
       3       2       1       1       3       2       1       1       3       2
       1       1       3       2       1       1       3       2       1       1
       3       2       1       1       3       2       1       1       3       2
       1       1       3       2       1       1       3       2       1       1
       3       2       1       1       3       2       1       1       3       2
       1       1       3       2       1       1       3       2       1       1
       3       2       1       1       3       2       1       1       3       2
       1       1       3       2       1       1       3       2       1       1
       3       2       1       1       3       2       1       1       3       2
       1       1       3       2       1       1       3       2       1       1
       3       2       1       1       3       2       1       1       3       2
       1       1       3       2       1       1       3       2       1       1
       3       2       1       1       3       2       1       1       3       2
       1       1       3       2       1       1       3       2       1       1
       3       2       1       1       3       2       1       1       3       2
       1       1       3       2       1       1       3       2       1       1
       3       2       1       1       3       2       1       1       3       2
       1       1       3       2       1       1       3       2       1       1
       3       2       1       1       3       2       1       1       3       2
       1       1       3       2       1       1       3       2       1       1
       3       2       1       1       3       2       1       1       3       2
       1       1       3       2       1       1       3       2       1       1
       3       2       1       1       3       2       1       1       3       2
       1       1       3       2       1       1       3       2       1       1
       3       2       1       1       3       2       1       1       3       2
       1       1       3       2       1       1       3       2       1       1
       3       2       1       1       3       2       1       1       3       2
       1       1       3       2       1       1       3       2       1       1
       3       2       1       1       3       2       1       1       3       2
       1       1       3       2       1       1       3       2       1       1
       3       2       1       1       3       2       1       1       3       2
       1       1       3       2       1       1       3       2       1       1
       3       2       1       1       3       2       1       1       3       2
       1       1       3       2       1       1       3       2       1       1
       3       2       1       1       3       2       1       1       3       2
       1       1       3       2       1       1       3       2       1       1
       3       2       1       1       3       2       1       1       3       2
       1       1       3       2       1       1       3       2       1       1
       3       2       1       1       3       2       1       1       3       2
       1       1       3       2       1       1       3       2       1       1
       3       2       1       1       3       2       1       1       3       2
       1       1       3       2       1       1       3       2       1       1
       3       2       1       1       3       2       1       1       3       2
       1       1       3       2       1       1       3       2       1       1
       3       2       1       1       3       2       1       1       3       2
       1       1       3       2       1       1       3       2       1       1
       3       2       1       1       3       2       1       1       3       2
       1       1       3       2       1       1       3       2       1       1
       3       2       1       1       3       2       1       1       3       2
       1       1       3       2       1       1       3       2       1       1
       3       2       1       1       3       2       1       1       3       2
       1       1       3       2       1       1       3       2       1       1
       3       2       1       1       3       2       1       1       3       2
       1       1       3       2       1       1       3       2       1       1
       3       2       1       1       3       2       1       1       3       2
       1       1       3       2       1       1       3       2       1       1
       3       2       1       1       3       2       1       1       3       2
       1       1       3       2       1       1       3       2       1       1
       3       2       1       1       3       2       1       1       3       2
       1       1       3       2       1       1       3       2       1       1
       3       2       1       1       3       2       1       1       3       2
       1       1       3       2       1       1       3       2       1       1
       3       2       1       1       3       2       1       1       3       2
       1       1       3       2       1       1       3       2       1       1
       3       2       1       1       3       2       1       1       3       2
       1       1       3       2       1       1       3       2       1       1
       3       2       1       1       3       2       1       1       3       2
       1       1       3       2       1       1       3       2       1       1
       3       2       1       1       3       2       1       1       3       2
       1       1       3       2       1       1       3       2       1       1
       3       2       1       1       3       2       1       1       3       2
       1       1       3       2       1       1       3       2       1       1
       3       2       1       1       3       2       1       1       3       2
       1       1       3       2       1       1       3       2       1       1
       3       2       1       1       3       2       1       1       3       2
       1       1       3       2       1       1       3       2       1       1
       3       2       1       1       3       2       1       1       3       2
       1       1       3       2       1       1       3       2       1       1
       3       2       1       1       3       2       1       1       3       2
       1       1       3       2       1       1       3       2       1       1
       3       2       1       1       3       2       1       1       3       2
       1       1       3       2       1       1       3       2       1       1
       3       2       1       1       3       2       1       1       3       2
       1       1       3       2       1       1       3       2       1       1
       3       2       1       1       3       2       1       1       3       2
       1       1       3       2       1       1       3       2       1       1
       3       2       1       1       3       2       1       1       3       2
       1       1       3       2       1       1       3       2       1       1
       3       2       1       1       3       2       1       1       3       2
       1       1       3       2       1       1       3       2       1       1
       3       2       1       1       3       2       1       1       3       2
       1       1       3       2       1       1       3       2       1       1
       3       2       1       1       3       2       1       1       3       2
       1       1       3       2       1       1       3       2       1       1
       3       2       1       1       3       2       1       1       3       2
       1       1       3       2       1       1       3       2       1       1
       3       2       1       1       3       2       1       1       3       2
       1       1       3       2       1       1       3       2       1       1
       3       2       1       1       3       2       1       1       3       2
       1       1       3       2       1       1       3       2       1       1
       3       2       1       1       3       2       1       1       3       2
       1       1       3       2       1       1       3       2       1       1
       3       2       1       1       3       2       1       1       3       2
       1       1       3       2       1       1       3       2       1       1
       3       2       1       1       3       2       1       1       3       2
       1       1       3       2       1       1       3       2       1       1
       3       2       1       1       3       2       1       1       3       2
       1       1       3       2       1       1       3       2       1       1
       3       2       1       1       3       2       1       1       3       2
       1       1       3       2       1       1       3       2       1       1
       3       2       1       1       3       2       1       1       3       2
       1       1       3       2       1       1       3       2       1       1
       3       2       1       1       3       2       1       1       3       2
       1       1       3       2       1       1       3       2       1       1
       3       2       1       1       3       2       1       1       3       2
       1       1       3       2       1       1       3       2       1       1
       3       2       1       1       3       2       1       1       3       2
       1       1       3       2       1       1       3       2       1       1
       3       2       1       1       3       2       1       1       3       2
       1       1       3       2       1       1       3       2       1       1
       3       2       1       1       3       2       1       1       3       2
       1       1       3       2       1       1       3       2       1       1
       3       2       1       1       3       2       1       1       3       2
       1       1       3       2       1       1       3       2       1       1
       3       2       1       1       3       2       1       1       3       2
       1       1       3       2       1       1       3       2       1       1
       3       2       1       1       3       2       1       1       3       2
       1       1       3       2       1       1       3       2       1       1
       3       2       1       1       3       2       1       1       3       2
       1       1       3       2       1       1       3       2       1       1
       3       2       1       1       3       2       1       1       3       2
       1       1       3       2       1       1       3       2       1       1
       3       2       1       1       3       2       1       1       3       2
       1       1       3       2       1       1       3       2       1       1
       3       2       1       1       3       2       1       1       3       2
       1       1       3       2       1       1       3       2       1       1
       3       2       1       1       3       2       1       1       3       2
       1       1       3       2       1       1       3       2       1       1
       3       2       1       1       3       2       1       1       3       2
       1       1       3       2       1       1       3       2       1       1
       3       2       1       1       3       2       1       1       3       2
       1       1       3       2       1       1       3       2       1       1
       3       2       1       1       3       2       1       1       3       2
       1       1       3       2       1       1       3       2       1       1
       3       2       1       1       3       2       1       1       3       2
       1       1       3       2       1       1       3       2       1       1
       3       2       1       1       3       2       1       1       3       2
       1       1       3       2       1       1       3       2       1       1
       3       2       1       1       3       2       1       1       3       2
       1       1       3       2       1       1       3       2       1       1
       3       2       1       1       3       2       1       1       3       2
       1       1       3       2       1       1       3       2       1       1
       3       2       1       1       3       2       1       1       3       2
       1       1       3       2       1       1       3       2       1       1
       3       2       1       1       3       2       1       1       3       2
       1       1       3       2       1       1       3       2       1       1
       3       2       1       1       3       2       1       1       3       2
       1       1       3       2       1       1       3       2       1       1
       3       2       1       1       3       2       1       1       3       2
       1       1       3       2       1       1       3       2       1       1
       3       2       1       1       3       2       1       1       3       2
       1       1       3       2       1       1       3       2       1       1
       3       2       1       1       3       2       1       1       3       2
       1       1       3       2       1       1       3       2       1       1
       3       2       1       1       3       2       1       1       3       2
       1       1       3       2       1       1       3       2       1       1
       3       2       1       1       3       2       1       1       3       2
       1       1       3       2       1       1       3       2       1       1
       3       2       1       1       3       2       1       1       3       2
       1       1       3       2       1       1       3       2       1       1
       3       2       1       1       3       2       1       1       3       2
       1       1       3       2       1       1       3       2       1       1
       3       2       1       1       3       2       1       1       3       2
       1       1       3       2       1       1       3       2       1       1
       3       2       1       1       3       2       1       1       3       2
       1       1       3       2       1       1       3       2       1       1
       3       2       1       1       3       2       1       1       3       2
       1       1       3       2       1       1       3       2       1       1
       3       2       1       1       3       2       1       1       3       2
       1       1       3       2       1       1       3       2       1       1
       3       2       1       1       3       2       1       1       3       2
       1       1       3       2       1       1       3       2       1       1
       3       2       1       1       3       2       1       1       3       2
       1       1       3       2       1       1       3       2       1       1
       3       2       1       1       3       2       1       1       3       2
       1       1       3       2       1       1       3       2       1       1
       3       2       1       1       3       2       1       1       3       2
       1       1       3       2       1       1       3       2       1       1
       3       2       1       1       3       2       1       1       3       2
       1       1       3       2       1       1       3       2       1       1
       3       2       1       1       3       2       1       1       3       2
       1       1       3       2       1       1       3       2       1       1
       3       2       1       1       3       2       1       1       3       2
       1       1       3       2       1       1       3       2       1       1
       3       2       1       1       3       2       1       1       3       2
       1       1       3       2       1       1       3       2       1       1
       3       2       1       1       3       2       1       1       3       2
       1       1       3       2       1       1       3       2       1       1
       3       2       1       1       3       2       1       1       3       2
       1       1       3       2       1       1       3       2       1       1
       3       2       1       1       3       2       1       1       3       2
       1       1       3       2       1       1       3       2       1       1
       3       2       1       1       3       2       1       1       3       2
       1       1       3       2       1       1       3       2       1       1
       3       2       1       1       3       2       1       1       3       2
       1       1       3       2       1       1       3       2       1       1
       3       2       1       1       3       2       1       1       3       2
       1       1       3       2       1       1       3       2       1       1
       3       2       1       1       3       2       1       1       3       2
       1       1       3       2       1       1       3       2       1       1
       3       2       1       1       3       2       1       1       3       2
       1       1       3       2       1       1       3       2       1       1
       3       2       1       1       3       2       1       1       3       2
       1       1       3       2       1       1       3       2       1       1
       3       2       1       1       3       2       1       1       3       2
       1       1       3       2       1       1       3       2       1       1
       3       2       1       1       3       2       1       1       3       2
       1       1       3       2       1       1       3       2       1       1
       3       2       1       1       3       2       1       1       3       2
       1       1       3       2       1       1       3       2       1       1
       3       2       1       1       3       2       1       1       3       2
       1       1       3       2       1       1       3       2       1       1
       3       2       1       1       3       2       1       1       3       2
       1       1       3       2       1       1       3       2       1       1
       3       2       1       1       3       2       1       1       3       2
       1       1       3       2       1       1       3       2       1       1
       3       2       1       1       3       2       1       1       3       2
       1       1       3       2       1       1       3       2       1       1
       3       2       1       1       3       2       1       1       3       2
       1       1       3       2       1       1       3       2       1       1
       3       2       1       1       3       2       1       1       3       2
       1       1       3       2       1       1       3       2       1       1
       3       2       1       1       3       2       1       1       3       2
       1       1       3       2       1       1       3       2       1       1
       3       2       1       1       3       2       1       1       3       2
       1       1       3       2       1       1       3       2       1       1
       3       2       1       1       3       2       1       1       3       2
       1       1       3       2       1       1       3       2       1       1
       3       2       1       1       3       2       1       1       3       2
       1       1       3       2       1       1       3       2       1       1
       3       2       1       1       3       2       1       1       3       2
       1       1       3       2       1       1       3       2       1       1
       3       2       1       1       3       2       1       1       3       2
       1       1       3       2       1       1       3       2       1       1
       3       2       1       1       3       2       1       1       3       2
       1       1       3       2       1       1       3       2       1       1
       3       2       1       1       3       2       1       1       3       2
       1       1       3       2       1       1       3       2       1       1
       3       2       1       1       3       2       1       1       3       2
       1       1       3       2       1       1       3       2       1       1
       3       2       1       1       3       2       1       1       3       2
       1       1       3       2       1       1       3       2       1       1
       3       2       1       1       3       2       1       1       3       2
       1       1       3       2       1       1       3       2       1       1
       3       2       1       1       3       2       1       1       3       2
       1       1       3       2       1       1       3       2       1       1
       3       2       1       1       3       2       1       1       3       2
       1       1       3       2       1       1       3       2       1       1
       3       2       1       1       3       2       1       1       3       2
       1       1       3       2       1       1       3       2       1       1
       3       2       1       1       3       2       1       1       3       2
       1       1       3       2       1       1       3       2       1       1
       3       2       1       1       3       2       1       1       3       2
       1       1       3       2       1       1       3       2       1       1
       3       2       1       1       3       2       1       1       3       2
       1       1       3       2       1       1       3       2       1       1
       3       2       1       1       3       2       1       1       3       2
       1       1       3       2       1       1       3       2       1       1
       3       2       1       1       3       2       1       1       3       2
       1       1       3       2       1       1       3       2       1       1
       3       2       1       1       3       2       1       1       3       2
       1       1       3       2       1       1       3       2       1       1
       3       2       1       1       3       2       1       1       3       2
       1       1       3       2       1       1       3       2       1       1
       3       2       1       1       3       2       1       1       3       2
       1       1       3       2       1       1       3       2       1       1
       3       2       1       1       3       2       1       1       3       2
       1       1       3       2       1       1       3       2       1       1
       3       2       1       1       3       2       1       1       3       2
       1       1       3       2       1       1       3       2       1       1
       3       2       1       1       3       2       1       1       3       2
       1       1       3       2       1       1       3       2       1       1
       3       2       1       1       3       2       1       1       3       2
       1       1       3       2       1       1       3       2       1       1
       3       2       1       1       3       2       1       1       3       2
       1       1       3       2       1       1       3       2       1       1
       3       2       1       1       3       2       1       1       3       2
       1       1       3       2       1       1       3       2       1       1
       3       2       1       1       3       2       1       1       3       2
       1       1       3       2       1       1       3       2       1       1
       3       2       1       1       3       2       1       1       3       2
       1       1       3       2       1       1       3       2       1       1
       3       2       1       1       3       2       1       1       3       2
       1       1       3       2       1       1       3       2       1       1
       3       2       1       1       3       2       1       1       3       2
       1       1       3       2       1       1       3       2       1       1
       3       2       1       1       3       2       1       1       3       2
       1       1       3       2       1       1       3       2       1       1
       3       2       1       1       3       2       1       1       3       2
       1       1       3       2       1       1       3       2       1       1
       3       2       1       1       3       2       1       1       3       2
       1       1       3       2       1       1       3       2       1       1
       3       2       1       1       3       2       1       1       3       2
       1       1       3       2       1       1       3       2       1       1
       3       2       1       1       3       2       1       1       3       2
       1       1       3       2       1       1       3       2       1       1
       3       2       1       1       3       2       1       1       3       2
       1       1       3       2       1       1       3       2       1       1
       3       2       1       1       3       2       1       1       3       2
       1       1       3       2       1       1       3       2       1       1
       3       2       1       1       3       2       1       1       3       2
       1       1       3       2       1       1       3       2       1       1
       3       2       1       1       3       2       1       1       3       2
       1       1       3       2       1       1       3       2       1       1
       3       2       1       1       3       2       1       1       3       2
       1       1       3       2       1       1       3       2       1       1
       3       2       1       1       3       2       1       1       3       2
       1       1       3       2       1       1       3       2       1       1
       3       2       1       1       3       2       1       1       3       2
       1       1       3       2       1       1       3       2       1       1
       3       2       1       1       3       2       1       1       3       2
       1       1       3       2       1       1       3       2       1       1
       3       2       1       1       3       2       1       1       3       2
       1       1       3       2       1       1       3       2       1       1
       3       2       1       1       3       2       1       1       3       2
       1       1       3       2       1       1       3       2       1       1
       3       2       1       1       3       2       1       1       3       2
       1       1       3       2       1       1       3       2       1       1
       3       2       1       1       3       2       1       1       3       2
       1       1       3       2       1       1       3       2       1       1
       3       2       1       1       3       2       1       1       3       2
       1       1       3       2       1       1       3       2       1       1
       3       2       1       1       3       2       1       1       3       2
       1       1       3       2       1       1       3       2       1       1
       3       2       1       1       3       2       1       1       3       2
       1       1       3       2       1       1       3       2       1       1
       3       2       1       1       3       2       1       1       3       2
       1       1       3       2       1       1       3       2       1       1
       3       2       1       1       3       2       1       1       3       2
       1       1       3       2       1       1       3       2       1       1
       3       2       1       1       3       2       1       1       3       2
       1       1       3       2       1       1       3       2       1       1
       3       2       1       1       3       2       1       1       3       2
       1       1       3       2       1       1       3       2       1       1
       3       2       1       1       3       2       1       1       3       2
       1       1       3       2       1       1       3       2       1       1
       3       2       1       1       3       2       1       1       3       2
       1       1       3       2       1       1       3       2       1       1
       3       2       1       1       3       2       1       1       3       2
       1       1       3       2       1       1       3       2       1       1
       3       2       1       1       3       2       1       1       3       2
       1       1       3       2       1       1       3       2       1       1
       3       2       1       1       3       2       1       1       3       2
       1       1       3       2       1       1       3       2       1       1
       3       2       1       1       3       2       1       1       3       2
       1       1       3       2       1       1       3       2       1       1
       3       2       1       1       3       2       1       1       3       2
       1       1       3       2       1       1       3       2       1       1
       3       2       1       1       3       2       1       1       3       2
       1       1       3       2       1       1       3       2       1       1
       3       2       1       1       3       2       1       1       3       2
       1       1       3       2       1       1       3       2       1       1
       3       2       1       1       3       2       1       1       3       2
       1       1       3       2       1       1       3       2       1       1
       3       2       1       1       3       2       1       1       3       2
       1       1       3       2       1       1       3       2       1       1
       3       2       1       1       3       2       1       1       3       2
       1       1       3       2       1       1       3       2       1       1
       3       2       1       1       3       2       1       1       3       2
       1       1       3       2       1       1       3       2       1       1
       3       2       1       1       3       2       1       1       3       2
       1       1       3       2       1       1       3       2       1       1
       3       2       1       1       3       2       1       1       3       2
       1       1       3       2       1       1       3       2       1       1
       3       2       1       1       3       2       1       1       3       2
       1       1       3       2       1       1       3       2       1       1
       3       2       1       1       3       2       1       1       3       2
       1       1       3       2       1       1       3       2       1       1
       3       2       1       1       3       2       1       1       3       2
       1       1       3       2       1       1       3       2       1       1
       3       2       1       1       3       2       1       1       3       2
       1       1       3       2       1       1       3       2       1       1
       3       2       1       1       3       2       1       1       3       2
       1       1       3       2       1       1       3       2       1       1
       3       2       1       1       3       2       1       1       3       2
       1       1       3       2       1       1       3       2       1       1
       3       2       1       1       3       2       1       1       3       2
       1       1       3       2       1       1       3       2       1       1
       3       2       1       1       3       2       1       1       3       2
       1       1       3       2       1       1       3       2       1       1
       3       2       1       1       3       2       1       1       3       2
       1       1       3       2       1       1       3       2       1       1
       3       2       1       1       3       2       1       1       3       2
       1       1       3       2       1       1       3       2       1       1
       3       2       1       1       3       2       1       1       3       2
       1       1       3       2       1       1       3       2       1       1
       3       2       1       1       3       2       1       1       3       2
       1       1       3       2       1       1       3       2       1       1
       3       2       1       1       3       2       1       1       3       2
       1       1       3       2       1       1       3       2       1       1
       3       2       1       1       3       2       1       1       3       2
       1       1       3       2       1       1       3       2       1       1
       3       2       1       1       3       2       1       1       3       2
       1       1       3       2       1       1       3       2       1       1
       3       2       1       1       3       2       1       1       3       2
       1       1       3       2       1       1       3       2       1       1
       3       2       1       1       3       2       1       1       3       2
       1       1       3       2       1       1       3       2       1       1
       3       2       1       1       3       2       1       1       3       2
       1       1       3       2       1       1       3       2       1       1
       3       2       1       1       3       2       1       1       3       2
       1       1       3       2       1       1       3       2       1       1
       3       2       1       1       3       2       1       1       3       2
       1       1       3       2       1       1       3       2       1       1
       3       2       1       1       3       2       1       1       3       2
       1       1       3       2       1       1       3       2       1       1
       3       2       1       1       3       2       1       1       3       2
       1       1       3       2       1       1       3       2       1       1
       3       2       1       1       3       2       1       1       3       2
       1       1       3       2       1       1       3       2       1       1
       3       2       1       1       3       2       1       1       3       2
       1       1       3       2       1       1       3       2       1       1
       3       2       1       1       3       2       1       1       3       2
       1       1       3       2       1       1       3       2       1       1
       3       2       1       1       3       2       1       1       3       2
       1       1       3       2       1       1       3       2       1       1
       3       2       1       1       3       2       1       1       3       2
       1       1       3       2       1       1       3       2       1       1
       3       2       1       1       3       2       1       1       3       2
       1       1       3       2       1       1       3       2       1       1
       3       2       1       1       3       2       1       1       3       2
       1       1       3       2       1       1       3       2       1       1
       3       2       1       1       3       2       1       1       3       2
       1       1       3       2       1       1       3       2       1       1
       3       2       1       1       3       2       1       1       3       2
       1       1       3       2       1       1       3       2       1       1
       3       2       1       1       3       2       1       1       3       2
       1       1       3       2       1       1       3       2       1       1
       3       2       1       1       3       2       1       1       3       2
       1       1       3       2       1       1       3       2       1       1
       3       2       1       1       3       2       1       1       3       2
       1       1       3       2       1       1       3       2       1       1
       3       2       1       1       3       2       1       1       3       2
       1       1       3       2       1       1       3       2       1       1
       3       2       1       1       3       2       1       1       3       2
       1       1       3       2       1       1       3       2       1       1
       3       2       1       1       3       2       1       1       3       2
       1       1       3       2       1       1       3       2       1       1
       3       2       1       1       3       2       1       1       3       2
       1       1       3       2       1       1       3       2       1       1
       3       2       1       1       3       2       1       1       3       2
       1       1       3       2       1       1       3       2       1       1
       3       2       1       1       3       2       1       1       3       2
       1       1       3       2       1       1       3       2       1       1
       3       2       1       1       3       2       1       1       3       2
       1       1       3       2       1       1       3       2       1       1
       3       2       1       1       3       2       1       1       3       2
       1       1       3       2       1       1       3       2       1       1
       3       2       1       1       3       2       1       1       3       2
       1       1       3       2       1       1       3       2       1       1
       3       2       1       1       3       2       1       1       3       2
       1       1       3       2       1       1       3       2       1       1
       3       2       1       1       3       2       1       1       3       2
       1       1       3       2       1       1       3       2       1       1
       3       2       1       1       3       2       1       1       3       2
       1       1       3       2       1       1       3       2       1       1
       3       2       1       1       3       2       1       1       3       2
       1       1       3       2       1       1       3       2       1       1
       3       2       1       1       3       2       1       1       3       2
       1       1       3       2       1       1       3       2       1       1
       3       2       1       1       3       2       1       1       3       2
       1       1       3       2       1       1       3       2       1       1
       3       2       1       1       3       2       1       1       3       2
       1       1       3       2       1       1       3       2       1       1
       3       2       1       1       3       2       1       1       3       2
       1       1       3       2       1       1       3       2       1       1
       3       2       1       1       3       2       1       1       3       2
       1       1       3       2       1       1       3       2       1       1
       3       2       1       1       3       2       1       1       3       2
       1       1       3       2       1       1       3       2       1       1
       3       2       1       1       3       2       1       1       3       2
       1       1       3       2       1       1       3       2       1       1
       3       2       1       1       3       2       1       1       3       2
       1       1       3       2       1       1       3       2       1       1
       3       2       1       1       3       2       1       1       3       2
       1       1       3       2       1       1       3       2       1       1
       3       2       1       1       3       2       1       1       3       2
       1       1       3       2       1       1       3       2       1       1
       3       2       1       1       3       2       1       1       3       2
       1       1       3       2       1       1       3       2       1       1
       3       2       1       1       3       2       1       1       3       2
       1       1       3       2       1       1       3       2       1       1
       3       2       1       1       3       2       1       1       3       2
       1       1       3       2       1       1       3       2       1       1
       3       2       1       1       3       2       1       1       3       2
       1       1       3       2       1       1       3       2       1       1
       3       2       1       1       3       2       1       1       3       2
       1       1       3       2       1       1       3       2       1       1
       3       2       1       1       3       2       1       1       3       2
       1       1       3       2       1       1       3       2       1       1
       3       2       1       1       3       2       1       1       3       2
       1       1       3       2       1       1       3       2       1       1
       3       2       1       1       3       2       1       1       3       2
       1       1       3       2       1       1       3       2       1       1
       3       2       1       1       3       2       1       1       3       2
       1       1       3       2       1       1       3       2       1       1
       3       2       1       1       3       2       1       1       3       2
       1       1       3       2       1       1       3       2       1       1
       3       2       1       1       3       2       1       1       3       2
       1       1       3       2       1       1       3       2       1       1
       3       2       1       1       3       2       1       1       3       2
       1       1       3       2       1       1       3       2       1       1
       3       2       1       1       3       2       1       1       3       2
       1       1       3       2       1       1       3       2       1       1
       3       2       1       1       3       2       1       1       3       2
       1       1       3       2       1       1       3       2       1       1
       3       2       1       1       3       2       1       1       3       2
       1       1       3       2       1       1       3       2       1       1
       3       2       1       1       3       2       1       1       3       2
       1       1       3       2       1       1       3       2       1       1
       3       2       1       1       3       2       1       1       3       2
       1       1       3       2       1       1       3       2       1       1
       3       2       1       1       3       2       1       1       3       2
       1       1       3       2       1       1       3       2       1       1
       3       2       1       1       3       2       1       1       3       2
       1       1       3       2       1       1       3       2       1       1
       3       2       1       1       3       2       1       1       3       2
       1       1       3       2       1       1       3       2       1       1
       3       2       1       1       3       2       1       1       3       2
       1       1       3       2       1       1       3       2       1       1
       3       2       1       1       3       2       1       1       3       2
       1       1       3       2       1       1       3       2       1       1
       3       2       1       1       3       2       1       1       3       2
       1       1       3       2       1       1       3       2       1       1
       3       2       1       1       3       2       1       1       3       2
       1       1       3       2       1       1       3       2       1       1
       3       2       1       1       3       2       1       1       3       2
       1       1       3       2       1       1       3       2       1       1
       3       2       1       1       3       2       1       1       3       2
       1       1       3       2       1       1       3       2       1       1
       3       2       1       1       3       2       1       1       3       2
       1       1       3       2       1       1       3       2       1       1
       3       2       1       1       3       2       1       1       3       2
       1       1       3       2       1       1       3       2       1       1
       3       2       1       1       3       2       1       1       3       2
       1       1       3       2       1       1       3       2       1       1
       3       2       1       1       3       2       1       1       3       2
       1       1       3       2       1       1       3       2       1       1
       3       2       1       1       3       2       1       1       3       2
       1       1       3       2       1       1       3       2       1       1
       3       2       1       1       3       2       1       1       3       2
       1       1       3       2       1       1       3       2       1       1
       3       2       1       1       3       2       1       1       3       2
       1       1       3       2       1       1       3       2       1       1
       3       2       1       1       3       2       1       1       3       2
       1       1       3       2       1       1       3       2       1       1
       3       2       1       1       3       2       1       1       3       2
       1       1       3       2       1       1       3       2       1       1
       3       2       1       1       3       2       1       1       3       2
       1       1       3       2       1       1       3       2       1       1
       3       2       1       1       3       2       1       1       3       2
       1       1       3       2       1       1       3       2       1       1
       3       2       1       1       3       2       1       1       3       2
       1       1       3       2       1       1       3       2       1       1
       3       2       1       1       3       2       1       1       3       2
       1       1       3       2       1       1       3       2       1       1
       3       2       1       1       3       2       1       1       3       2
       1       1       3       2       1       1       3       2       1       1
       3       2       1       1       3       2       1       1       3       2
       1       1       3       2       1       1       3       2       1       1
       3       2       1       1       3       2       1       1       3       2
       1       1       3       2       1       1       3       2       1       1
       3       2       1       1       3       2       1       1       3       2
       1       1       3       2       1       1       3       2       1       1
       3       2       1       1       3       2       1       1       3       2
       1       1       3       2       1       1       3       2       1       1
       3       2       1       1       3       2       1       1       3       2
       1       1       3       2       1       1       3       2       1       1
       3       2       1       1       3       2       1       1       3       2
       1       1       3       2       1       1       3       2       1       1
       3       2       1       1       3       2       1       1       3       2
       1       1       3       2       1       1       3       2       1       1
       3       2       1       1       3       2       1       1       3       2
       1       1       3       2       1       1       3       2       1       1
       3       2       1       1       3       2       1       1       3       2
       1       1       3       2       1       1       3       2       1       1
       3       2       1       1       3       2       1       1       3       2
       1       1       3       2       1       1       3       2       1       1
       3       2       1       1       3       2       1       1       3       2
       1       1       3       2       1       1       3       2       1       1
       3       2       1       1       3       2       1       1       3       2
       1       1       3       2       1       1       3       2       1       1
       3       2       1       1       3       2       1       1       3       2
       1       1       3       2       1       1       3       2       1       1
       3       2       1       1       3       2       1       1       3       2
       1       1       3       2       1       1       3       2       1       1
       3       2       1       1       3       2       1       1       3       2
       1       1       3       2       1       1       3       2       1       1
       3       2       1       1       3       2       1       1       3       2
       1       1       3       2       1       1       3       2       1       1
       3       2       1       1       3       2       1       1       3       2
       1       1       3       2       1       1       3       2       1       1
       3       2       1       1       3       2       1       1       3       2
       1       1       3       2       1       1       3       2       1       1
       3       2       1       1       3       2       1       1       3       2
       1       1       3       2       1       1       3       2       1       1
       3       2       1       1       3       2       1       1       3       2
       1       1       3       2       1       1       3       2       1       1
       3       2       1       1       3       2       1       1       3       2
       1       1       3       2       1       1       3       2       1       1
       3       2       1       1       3       2       1       1       3       2
       1       1       3       2       1       1       3       2       1       1
       3       2       1       1       3       2       1       1       3       2
       1       1       3       2       1       1       3       2       1       1
       3       2       1       1       3       2       1       1       3       2
       1       1       3       2       1       1       3       2       1       1
       3       2       1       1       3       2       1       1       3       2
       1       1       3       2       1       1       3       2       1       1
       3       2       1       1       3       2       1       1       3       2
       1       1       3       2       1       1       3       2       1       1
       3       2       1       1       3       2       1       1       3       2
       1       1       3       2       1       1       3       2       1       1
       3       2       1       1       3       2       1       1       3       2
       1       1       3       2       1       1       3       2       1       1
       3       2       1       1       3       2       1       1       3       2
       1       1       3       2       1       1       3       2       1       1
       3       2       1       1       3       2       1       1       3       2
       1       1       3       2       1       1       3       2       1       1
       3       2       1       1       3       2       1       1       3       2
       1       1       3       2       1       1       3       2       1       1
       3       2       1       1       3       2       1       1       3       2
       1       1       3       2       1       1       3       2       1       1
       3       2       1       1       3       2       1       1       3       2
       1       1       3       2       1       1       3       2       1       1
       3       2       1       1       3       2       1       1       3       2
       1       1       3       2       1       1       3       2       1       1
       3       2       1       1       3       2       1       1       3       2
       1       1       3       2       1       1       3       2       1       1
       3       2       1       1       3       2       1       1       3       2
       1       1       3       2       1       1       3       2       1       1
       3       2       1       1       3       2       1       1       3       2
       1       1       3       2       1       1       3       2       1       1
       3       2       1       1       3       2       1       1       3       2
       1       1       3       2       1       1       3       2       1       1
       3       2       1       1       3       2       1       1       3       2
       1       1       3       2       1       1       3       2       1       1
       3       2       1       1       3       2       1       1       3       2
       1       1       3       2       1       1       3       2       1       1
       3       2       1       1       3       2       1       1       3       2
       1       1       3       2       1       1       3       2       1       1
       3       2       1       1       3       2       1       1       3       2
       1       1       3       2       1       1       3       2       1       1
       3       2       1       1       3       2       1       1       3       2
       1       1       3       2       1       1       3       2       1       1
       3       2       1       1       3       2       1       1       3       2
       1       1       3       2       1       1       3       2       1       1
       3       2       1       1       3       2       1       1       3       2
       1       1       3       2       1       1       3       2       1       1
       3       2       1       1       3       2       1       1       3       2
       1       1       3       2       1       1       3       2       1       1
       3       2       1       1       3       2       1       1       3       2
       1       1       3       2       1       1       3       2       1       1
       3       2       1       1       3       2       1       1       3       2
       1       1       3       2       1       1       3       2       1       1
       3       2       1       1       3       2       1       1       3       2
       1       1       3       2       1       1       3       2       1       1
       3       2       1       1       3       2       1       1       3       2
       1       1       3       2       1       1       3       2       1       1
       3       2       1       1       3       2       1       1       3       2
       1       1       3       2       1       1       3       2       1       1
       3       2       1       1       3       2       1       1       3       2
       1       1       3       2       1       1       3       2       1       1
       3       2       1       1       3       2       1       1       3       2
       1       1       3       2       1       1       3       2       1       1
       3       2       1       1       3       2       1       1       3       2
       1       1       3       2       1       1       3       2       1       1
       3       2       1       1       3       2       1       1       3       2
       1       1       3       2       1       1       3       2       1       1
       3       2       1       1       3       2       1       1       3       2
       1       1       3       2       1       1       3       2       1       1
       3       2       1       1       3       2       1       1       3       2
       1       1       3       2       1       1       3       2       1       1
       3       2       1       1       3       2       1       1       3       2
       1       1       3       2       1       1       3       2       1       1
       3       2       1       1       3       2       1       1       3       2
       1       1       3       2       1       1       3       2       1       1
       3       2       1       1       3       2       1       1       3       2
       1       1       3       2       1       1       3       2       1       1
       3       2       1       1       3       2       1       1       3       2
       1       1       3       2       1       1       3       2       1       1
       3       2       1       1       3       2       1       1       3       2
       1       1       3       2       1       1       3       2       1       1
       3       2       1       1       3       2       1       1       3       2
       1       1       3       2       1       1       3       2       1       1
       3       2       1       1       3       2       1       1       3       2
       1       1       3       2       1       1       3       2       1       1
       3       2       1       1       3       2       1       1       3       2
       1       1       3       2       1       1       3       2       1       1
       3       2       1       1       3       2       1       1       3       2
       1       1       3       2       1       1       3       2       1       1
       3       2       1       1       3       2       1       1       3       2
       1       1       3       2       1       1       3       2       1       1
       3       2       1       1       3       2       1       1       3       2
       1       1       3       2       1       1       3       2       1       1
       3       2       1       1       3       2       1       1       3       2
       1       1       3       2       1       1       3       2       1       1
       3       2       1       1       3       2       1       1       3       2
       1       1       3       2       1       1       3       2       1       1
       3       2       1       1       3       2       1       1       3       2
       1       1       3       2       1       1       3       2       1       1
       3       2       1       1       3       2       1       1       3       2
       1       1       3       2       1       1       3       2       1       1
       3       2       1       1       3       2       1       1       3       2
       1       1       3       2       1       1       3       2       1       1
       3       2       1       1       3       2       1       1       3       2
       1       1       3       2       1       1       3       2       1       1
       3       2       1       1       3       2       1       1       3       2
       1       1       3       2       1       1       3       2       1       1
       3       2       1       1       3       2       1       1       3       2
       1       1       3       2       1       1       3       2       1       1
       3       2       1       1       3       2       1       1       3       2
       1       1       3       2       1       1       3       2       1       1
       3       2       1       1       3       2       1       1       3       2
       1       1       3       2       1       1       3       2       1       1
       3       2       1       1       3       2       1       1       3       2
       1       1       3       2       1       1       3       2       1       1
       3       2       1       1       3       2       1       1       3       2
       1       1       3       2       1       1       3       2       1       1
       3       2       1       1       3       2       1       1       3       2
       1       1       3       2       1       1       3       2       1       1
       3       2       1       1       3       2       1       1       3       2
       1       1       3       2       1       1       3       2       1       1
       3       2       1       1       3       2       1       1       3       2
       1       1       3       2       1       1       3       2       1       1
       3       2       1       1       3       2       1       1       3       2
       1       1       3       2       1       1       3       2       1       1
       3       2       1       1       3       2       1       1       3       2
       1       1       3       2       1       1       3       2       1       1
       3       2       1       1       3       2       1       1       3       2
       1       1       3       2       1       1       3       2       1       1
       3       2       1       1       3       2       1       1       3       2
       1       1       3       2       1       1       3       2       1       1
       3       2       1       1       3       2       1       1       3       2
       1       1       3       2       1       1       3       2       1       1
       3       2       1       1       3       2       1       1       3       2
       1       1       3       2       1       1       3       2       1       1
       3       2       1       1       3       2       1       1       3       2
       1       1       3       2       1       1       3       2       1       1
       3       2       1       1       3       2       1       1       3       2
       1       1       3       2       1       1       3       2       1       1
       3       2       1       1       3       2       1       1       3       2
       1       1       3       2       1       1       3       2       1       1
       3       2       1       1       3       2       1       1       3       2
       1       1       3       2       1       1       3       2       1       1
       3       2       1       1       3       2       1       1       3       2
       1       1       3       2       1       1       3       2       1       1
       3       2       1       1       3       2       1       1       3       2
       1       1       3       2       1       1       3       2       1       1
       3       2       1       1       3       2       1       1       3       2
       1       1       3       2       1       1       3       2       1       1
       3       2       1       1       3       2       1       1       3       2
       1       1       3       2       1       1       3       2       1       1
       3       2       1       1       3       2       1       1       3       2
       1       1       3       2       1       1       3       2       1       1
       3       2       1       1       3       2       1       1       3       2
       1       1       3       2       1       1       3       2       1       1
       3       2       1       1       3       2       1       1       3       2
       1       1       3       2       1       1       3       2       1       1
       3       2       1       1       3       2       1       1       3       2
       1       1       3       2       1       1       3       2       1       1
       3       2       1       1       3       2       1       1       3       2
       1       1       3       2       1       1       3       2       1       1
       3       2       1       1       3       2       1       1       3       2
       1       1       3       2       1       1       3       2       1       1
       3       2       1       1       3       2       1       1       3       2
       1       1       3       2       1       1       3       2       1       1
       3       2       1       1       3       2       1       1       3       2
       1       1       3       2       1       1       3       2       1       1
       3       2       1       1       3       2       1       1       3       2
       1       1       3       2       1       1       3       2       1       1
       3       2       1       1       3       2       1       1       3       2
       1       1       3       2       1       1       3       2       1       1
       3       2       1       1       3       2       1       1       3       2
       1       1       3       2       1       1       3       2       1       1
       3       2       1       1       3       2       1       1       3       2
       1       1       3       2       1       1       3       2       1       1
       3       2       1       1       3       2       1       1       3       2
       1       1       3       2       1       1       3       2       1       1
       3       2       1       1       3       2       1       1       3       2
       1       1       3       2       1       1       3       2       1       1
       3       2       1       1       3       2       1       1       3       2
       1       1       3       2       1       1       3       2       1       1
       3       2       1       1       3       2       1       1       3       2
       1       1       3       2       1       1       3       2       1       1
       3       2       1       1       3       2       1       1       3       2
       1       1       3       2       1       1       3       2       1       1
       3       2       1       1       3       2       1       1       3       2
       1       1       3       2       1       1       3       2       1       1
       3       2       1       1       3       2       1       1       3       2
       1       1       3       2       1       1       3       2       1       1
       3       2       1       1       3       2       1       1       3       2
       1       1       3       2       1       1       3       2       1       1
       3       2       1       1       3       2       1       1       3       2
       1       1       3       2       1       1       3       2       1       1
       3       2       1       1       3       2       1       1       3       2
       1       1       3       2       1       1       3       2       1       1
       3       2       1       1       3       2       1       1       3       2
       1       1       3       2       1       1       3       2       1       1
       3       2       1       1       3       2       1       1       3       2
       1       1       3       2       1       1       3       2       1       1
       3       2       1       1       3       2       1       1       3       2
       1       1       3       2       1       1       3       2       1       1
       3       2       1       1       3       2       1       1       3       2
       1       1       3       2       1       1       3       2       1       1
       3       2       1       1       3       2       1       1       3       2
       1       1       3       2       1       1       3       2       1       1
       3       2       1       1       3       2       1       1       3       2
       1       1       3       2       1       1       3       2       1       1
       3       2       1       1       3       2       1       1       3       2
       1       1       3       2       1       1       3       2       1       1
       3       2       1       1       3       2       1       1       3       2
       1       1       3       2       1       1       3       2       1       1
       3       2       1       1       3       2       1       1       3       2
       1       1       3       2       1       1       3       2       1       1
       3       2       1       1       3       2       1       1       3       2
       1       1       3       2       1       1       3       2       1       1
       3       2       1       1       3       2       1       1       3       2
       1       1       3       2       1       1       3       2       1       1
       3       2       1       1       3       2       1       1       3       2
       1       1       3       2       1       1       3       2       1       1
       3       2       1       1       3       2       1       1       3       2
       1       1       3       2       1       1       3       2       1       1
       3       2       1       1       3       2       1       1       3       2
       1       1       3       2       1       1       3       2       1       1
       3       2       1       1       3       2       1       1       3       2
       1       1       3       2       1       1       3       2       1       1
       3       2       1       1       3       2       1       1       3       2
       1       1       3       2       1       1       3       2       1       1
       3       2       1       1       3       2       1       1       3       2
       1       1       3       2       1       1       3       2       1       1
       3       2       1       1       3       2       1       1       3       2
       1       1       3       2       1       1       3       2       1       1
       3       2       1       1       3       2       1       1       3       2
       1       1       3       2       1       1       3       2       1       1
       3       2       1       1       3       2       1       1       3       2
       1       1       3       2       1       1       3       2       1       1
       3       2       1       1       3       2       1       1       3       2
       1       1       3       2       1       1       3       2       1       1
       3       2       1       1       3       2       1       1       3       2
       1       1       3       2       1       1       3       2       1       1
       3       2       1       1       3       2       1       1       3       2
       1       1       3       2       1       1       3       2       1       1
       3       2       1       1       3       2       1       1       3       2
       1       1       3       2       1       1       3       2       1       1
       3       2       1       1       3       2       1       1       3       2
       1       1       3       2       1       1       3       2       1       1
       3       2       1       1       3       2       1       1       3       2
       1       1       3       2       1       1       3       2       1       1
       3       2       1       1       3       2       1       1       3       2
       1       1       3       2       1       1       3       2       1       1
       3       2       1       1       3       2       1       1       3       2
       1       1       3       2       1       1       3       2       1       1
       3       2       1       1       3       2       1       1       3       2
       1       1       3       2       1       1       3       2       1       1
       3       2       1       1       3       2       1       1       3       2
       1       1       3       2       1       1       3       2       1       1
       3       2       1       1       3       2       1       1       3       2
       1       1       3       2       1       1       3       2       1       1
       3       2       1       1       3       2       1       1       3       2
       1       1       3       2       1       1       3       2       1       1
       3       2       1       1       3       2       1       1       3       2
       1       1       3       2       1       1       3       2       1       1
       3       2       1       1       3       2       1       1       3       2
       1       1       3       2       1       1       3       2       1       1
       3       2       1       1       3       2       1       1       3       2
       1       1       3       2       1       1       3       2       1       1
       3       2       1       1       3       2       1       1       3       2
       1       1       3       2       1       1       3       2       1       1
       3       2       1       1       3       2       1       1       3       2
       1       1       3       2       1       1       3       2       1       1
       3       2       1       1       3       2       1       1       3       2
       1       1       3       2       1       1       3       2       1       1
       3       2       1       1       3       2       1       1       3       2
       1       1       3       2       1       1       3       2       1       1
       3       2       1       1       3       2       1       1       3       2
       1       1       3       2       1       1       3       2       1       1
       3       2       1       1       3       2       1       1       3       2
       1       1       3       2       1       1       3       2       1       1
       3       2       1       1       3       2       1       1       3       2
       1       1       3       2       1       1       3       2       1       1
       3       2       1       1       3       2       1       1       3       2
       1       1       3       2       1       1       3       2       1       1
       3       2       1       1       3       2       1       1       3       2
       1       1       3       2       1       1       3       2       1       1
       3       2       1       1       3       2       1       1       3       2
       1       1       3       2       1       1       3       2       1       1
       3       2       1       1       3       2       1       1       3       2
       1       1       3       2       1       1       3       2       1       1
       3       2       1       1       3       2       1       1       3       2
       1       1       3       2       1       1       3       2       1       1
       3       2       1       1       3       2       1       1       3       2
       1       1       3       2       1       1       3       2       1       1
       3       2       1       1       3       2       1       1       3       2
       1       1       3       2       1       1       3       2       1       1
       3       2       1       1       3       2       1       1       3       2
       1       1       3       2       1       1       3       2       1       1
       3       2       1       1       3       2       1       1       3       2
       1       1       3       2       1       1       3       2       1       1
       3       2       1       1       3       2       1       1       3       2
       1       1       3       2       1       1       3       2       1       1
       3       2       1       1       3       2       1       1       3       2
       1       1       3       2       1       1       3       2       1       1
       3       2       1       1       3       2       1       1       3       2
       1       1       3       2       1       1       3       2       1       1
       3       2       1       1       3       2       1       1       3       2
       1       1       3       2       1       1       3       2       1       1
       3       2       1       1       3       2       1       1       3       2
       1       1       3       2       1       1       3       2       1       1
       3       2       1       1       3       2       1       1       3       2
       1       1       3       2       1       1       3       2       1       1
       3       2       1       1       3       2       1       1       3       2
       1       1       3       2       1       1       3       2       1       1
       3       2       1       1       3       2       1       1       3       2
       1       1       3       2       1       1       3       2       1       1
       3       2       1       1       3       2       1       1       3       2
       1       1       3       2       1       1       3       2       1       1
       3       2       1       1       3       2       1       1       3       2
       1       1       3       2       1       1       3       2       1       1
       3       2       1       1       3       2       1       1       3       2
       1       1       3       2       1       1       3       2       1       1
       3       2       1       1       3       2       1       1       3       2
       1       1       3       2       1       1       3       2       1       1
       3       2       1       1       3       2       1       1       3       2
       1       1       3       2       1       1       3       2       1       1
       3       2       1       1       3       2       1       1       3       2
       1       1       3       2       1       1       3       2       1       1
       3       2       1       1       3       2       1       1       3       2
       1       1       3       2       1       1       3       2       1       1
       3       2       1       1       3       2       1       1       3       2
       1       1       3       2       1       1       3       2       1       1
       3       2       1       1       3       2       1       1       3       2
       1       1       3       2       1       1       3       2       1       1
       3       2       1       1       3       2       1       1       3       2
       1       1       3       2       1       1       3       2       1       1
       3       2       1       1       3       2       1       1       3       2
       1       1       3       2       1       1       3       2       1       1
       3       2       1       1       3       2       1       1       3       2
       1       1       3       2       1       1       3       2       1       1
       3       2       1       1       3       2       1       1       3       2
       1       1       3       2       1       1       3       2       1       1
       3       2       1       1       3       2       1       1       3       2
       1       1       3       2       1       1       3       2       1       1
       3       2       1       1       3       2       1       1       3       2
       1       1       3       2       1       1       3       2       1       1
       3       2       1       1       3       2       1       1       3       2
       1       1       3       2       1       1       3       2       1       1
       3       2       1       1       3       2       1       1       3       2
       1       1       3       2       1       1       3       2       1       1
       3       2       1       1       3       2       1       1       3       2
       1       1       3       2       1       1       3       2       1       1
       3       2       1       1       3       2       1       1       3       2
       1       1       3       2       1       1       3       2       1       1
       3       2       1       1       3       2       1       1       3       2
       1       1       3       2       1       1       3       2       1       1
       3       2       1       1       3       2       1       1       3       2
       1       1       3       2       1       1       3       2       1       1
       3       2       1       1       3       2       1       1       3       2
       1       1       3       2       1       1       3       2       1       1
       3       2       1       1       3       2       1       1       3       2
       1       1       3       2       1       1       3       2       1       1
       3       2       1       1       3       2       1       1       3       2
       1       1       3       2       1       1       3       2       1       1
       3       2       1       1       3       2       1       1       3       2
       1       1       3       2       1       1       3       2       1       1
       3       2       1       1       3       2       1       1       3       2
       1       1       3       2       1       1       3       2       1       1
       3       2       1       1       3       2       1       1       3       2
       1       1       3       2       1       1       3       2       1       1
       3       2       1       1       3       2       1       1       3       2
       1       1       3       2       1       1       3       2       1       1
       3       2       1       1       3       2       1       1       3       2
       1       1       3       2       1       1       3       2       1       1
       3       2       1       1       3       2       1       1       3       2
       1       1       3       2       1       1       3       2       1       1
       3       2       1       1       3       2       1       1       3       2
       1       1       3       2       1       1       3       2       1       1
       3       2       1       1       3       2       1       1       3       2
       1       1       3       2       1       1       3       2       1       1
       3       2       1       1       3       2       1       1       3       2
       1       1       3       2       1       1       3       2       1       1
       3       2       1       1       3       2       1       1       3       2
       1       1       3       2       1       1       3       2       1       1
       3       2       1       1       3       2       1       1       3       2
       1       1       3       2       1       1       3       2       1       1
       3       2       1       1       3       2       1       1       3       2
       1       1       3       2       1       1       3       2       1       1
       3       2       1       1       3       2       1       1       3       2
       1       1       3       2       1       1       3       2       1       1
       3       2       1       1       3       2       1       1       3       2
       1       1       3       2       1       1       3       2       1       1
       3       2       1       1       3       2       1       1       3       2
       1       1       3       2       1       1       3       2       1       1
       3       2       1       1       3       2       1       1       3       2
       1       1       3       2       1       1       3       2       1       1
       3       2       1       1       3       2       1       1       3       2
       1       1       3       2       1       1       3       2       1       1
       3       2       1       1       3       2       1       1       3       2
       1       1       3       2       1       1       3       2       1       1
       3       2       1       1       3       2       1       1       3       2
       1       1       3       2       1       1       3       2       1       1
       3       2       1       1       3       2       1       1       3       2
       1       1       3       2       1       1       3       2       1       1
       3       2       1       1       3       2       1       1       3       2
       1       1       3       2       1       1       3       2       1       1
       3       2       1       1       3       2       1       1       3       2
       1       1       3       2       1       1       3       2       1       1
       3       2       1       1       3       2       1       1       3       2
       1       1       3       2       1       1       3       2       1       1
       3       2       1       1       3       2       1       1       3       2
       1       1       3       2       1       1       3       2       1       1
       3       2       1       1       3       2       1       1       3       2
       1       1       3       2       1       1       3       2       1       1
       3       2       1       1       3       2       1       1       3       2
       1       1       3       2       1       1       3       2       1       1
       3       2       1       1       3       2       1       1       3       2
       1       1       3       2       1       1       3       2       1       1
       3       2       1       1       3       2       1       1       3       2
       1       1       3       2       1       1       3       2       1       1
       3       2       1       1       3       2       1       1       3       2
       1       1       3       2       1       1       3       2       1       1
       3       2       1       1       3       2       1       1       3       2
       1       1       3       2       1       1       3       2       1       1
       3       2       1       1       3       2       1       1       3       2
       1       1       3       2       1       1       3       2       1       1
       3       2       1       1       3       2       1       1       3       2
       1       1       3       2       1       1       3       2       1       1
       3       2       1       1       3       2       1       1       3       2
       1       1       3       2       1       1       3       2       1       1
       3       2       1       1       3       2       1       1       3       2
       1       1       3       2       1       1       3       2       1       1
       3       2       1       1       3       2       1       1       3       2
       1       1       3       2       1       1       3       2       1       1
       3       2       1       1       3       2       1       1       3       2
       1       1       3       2       1       1       3       2       1       1
       3       2       1       1       3       2       1       1       3       2
       1       1       3       2       1       1       3       2       1       1
       3       2       1       1       3       2       1       1       3       2
       1       1       3       2       1       1       3       2       1       1
       3       2       1       1       3       2       1       1       3       2
       1       1       3       2       1       1       3       2       1       1
       3       2       1       1       3       2       1       1       3       2
       1       1       3       2       1       1       3       2       1       1
       3       2       1       1       3       2       1       1       3       2
       1       1       3       2       1       1       3       2       1       1
       3       2       1       1       3       2       1       1       3       2
       1       1       3       2       1       1       3       2       1       1
       3       2       1       1       3       2       1       1       3       2
       1       1       3       2       1       1       3       2       1       1
       3       2       1       1       3       2       1       1       3       2
       1       1       3       2       1       1       3       2       1       1
       3       2       1       1       3       2       1       1       3       2
       1       1       3       2       1       1       3       2       1       1
       3       2       1       1       3       2       1       1       3       2
       1       1       3       2       1       1       3       2       1       1
       3       2       1       1       3       2       1       1       3       2
       1       1       3       2       1       1       3       2       1       1
       3       2       1       1       3       2       1       1       3       2
       1       1       3       2       1       1       3       2       1       1
       3       2       1       1       3       2       1       1       3       2
       1       1       3       2       1       1       3       2       1       1
       3       2       1       1       3       2       1       1       3       2
       1       1       3       2       1       1       3       2       1       1
       3       2       1       1       3       2       1       1       3       2
       1       1       3       2       1       1       3       2       1       1
       3       2       1       1       3       2       1       1       3       2
       1       1       3       2       1       1       3       2       1       1
       3       2       1       1       3       2       1       1       3       2
       1       1       3       2       1       1       3       2       1       1
       3       2       1       1       3       2       1       1       3       2
       1       1       3       2       1       1       3       2       1       1
       3       2       1       1       3       2       1       1       3       2
       1       1       3       2       1       1       3       2       1       1
       3       2       1       1       3       2       1       1       3       2
       1       1       3       2       1       1       3       2       1       1
       3       2       1       1       3       2       1       1       3       2
       1       1       3       2       1       1       3       2       1       1
       3       2       1       1       3       2       1       1       3       2
       1       1       3       2       1       1       3       2       1       1
       3       2       1       1       3       2       1       1       3       2
       1       1       3       2       1       1       3       2       1       1
       3       2       1       1       3       2       1       1       3       2
       1       1       3       2       1       1       3       2       1       1
       3       2       1       1       3       2       1       1       3       2
       1       1       3       2       1       1       3       2       1       1
       3       2       1       1       3       2       1       1       3       2
       1       1       3       2       1       1       3       2       1       1
       3       2       1       1       3       2       1       1       3       2
       1       1       3       2       1       1       3       2       1       1
       3       2       1       1       3       2       1       1       3       2
       1       1       3       2       1       1       3       2       1       1
       3       2       1       1       3       2       1       1       3       2
       1       1       3       2       1       1       3       2       1       1
       3       2       1       1       3       2       1       1       3       2
       1       1       3       2       1       1       3       2       1       1
       3       2       1       1       3       2       1       1       3       2
       1       1       3       2       1       1       3       2       1       1
       3       2       1       1       3       2       1       1       3       2
       1       1       3       2       1       1       3       2       1       1
       3       2       1       1       3       2       1       1       3       2
       1       1       3       2       1       1       3       2       1       1
       3       2       1       1       3       2       1       1       3       2
       1       1       3       2       1       1       3       2       1       1
       3       2       1       1       3       2       1       1       3       2
       1       1       3       2       1       1       3       2       1       1
       3       2       1       1       3       2       1       1       3       2
       1       1       3       2       1       1       3       2       1       1
       3       2       1       1       3       2       1       1       3       2
       1       1       3       2       1       1       3       2       1       1
       3       2       1       1       3       2       1       1       3       2
       1       1       3       2       1       1       3       2       1       1
       3       2       1       1       3       2       1       1       3       2
       1       1       3       2       1       1       3       2       1       1
       3       2       1       1       3       2       1       1       3       2
       1       1       3       2       1       1       3       2       1       1
       3       2       1       1       3       2       1       1       3       2
       1       1       3       2       1       1       3       2       1       1
       3       2       1       1       3       2       1       1       3       2
       1       1       3       2       1       1       3       2       1       1
       3       2       1       1       3       2       1       1       3       2
       1       1       3       2       1       1       3       2       1       1
       3       2       1       1       3       2       1       1       3       2
       1       1       3       2       1       1       3       2       1       1
       3       2       1       1       3       2       1       1       3       2
       1       1       3       2       1       1       3       2       1       1
       3       2       1       1       3       2       1       1       3       2
       1       1       3       2       1       1       3       2       1       1
       3       2       1       1       3       2       1       1       3       2
       1       1       3       2       1       1       3       2       1       1
       3       2       1       1       3       2       1       1       3       2
       1       1       3       2       1       1       3       2       1       1
       3       2       1       1       3       2       1       1       3       2
       1       1       3       2       1       1       3       2       1       1
       3       2       1       1       3       2       1       1       3       2
       1       1       3       2       1       1       3       2       1       1
       3       2       1       1       3       2       1       1       3       2
       1       1       3       2       1       1       3       2       1       1
       3       2       1       1       3       2       1       1       3       2
       1       1       3       2       1       1       3       2       1       1
       3       2       1       1       3       2       1       1       3       2
       1       1       3       2       1       1       3       2       1       1
       3       2       1       1       3       2       1       1       3       2
       1       1       3       2       1       1       3       2       1       1
       3       2       1       1       3       2       1       1       3       2
       1       1       3       2       1       1       3       2       1       1
       3       2       1       1       3       2       1       1       3       2
       1       1       3       2       1       1       3       2       1       1
       3       2       1       1       3       2       1       1       3       2
       1       1       3       2       1       1       3       2       1       1
       3       2       1       1       3       2       1       1       3       2
       1       1       3       2       1       1       3       2       1       1
       3       2       1       1       3       2       1       1       3       2
       1       1       3       2       1       1       3       2       1       1
       3       2       1       1       3       2       1       1       3       2
       1       1       3       2       1       1       3       2       1       1
       3       2       1       1       3       2       1       1       3       2
       1       1       3       2       1       1       3       2       1       1
       3       2       1       1       3       2       1       1       3       2
       1       1       3       2       1       1       3       2       1       1
       3       2       1       1       3       2       1       1       3       2
       1       1       3       2       1       1       3       2       1       1
       3       2       1       1       3       2       1       1       3       2
       1       1       3       2       1       1       3       2       1       1
       3       2       1       1       3       2       1       1       3       2
       1       1       3       2       1       1       3       2       1       1
       3       2       1       1       3       2       1       1       3       2
       1       1       3       2       1       1       3       2       1       1
       3       2       1       1       3       2       1       1       3       2
       1       1       3       2       1       1       3       2       1       1
       3       2       1       1       3       2       1       1       3       2
       1       1       3       2       1       1       3       2       1       1
       3       2       1       1       3       2       1       1       3       2
       1       1       3       2       1       1       3       2       1       1
       3       2       1       1       3       2       1       1       3       2
       1       1       3       2       1       1       3       2       1       1
       3       2       1       1       3       2       1       1       3       2
       1       1       3       2       1       1       3       2       1       1
       3       2       1       1       3       2       1       1       3       2
       1       1       3       2       1       1       3       2       1       1
       3       2       1       1       3       2       1       1       3       2
       1       1       3       2       1       1       3       2       1       1
       3       2       1       1       3       2       1       1       3       2
       1       1       3       2       1       1       3       2       1       1
       3       2       1       1       3       2       1       1       3       2
       1       1       3       2       1       1       3       2       1       1
       3       2       1       1       3       2       1       1       3       2
       1       1       3       2       1       1       3       2       1       1
       3       2       1       1       3       2       1       1       3       2
       1       1       3       2       1       1       3       2       1       1
       3       2       1       1       3       2       1       1       3       2
       1       1       3       2       1       1       3       2       1       1
       3       2       1       1       3       2       1       1       3       2
       1       1       3       2       1       1       3       2       1       1
       3       2       1       1       3       2       1       1       3       2
       1       1       3       2       1       1       3       2       1       1
       3       2       1       1       3       2       1       1       3       2
       1       1       3       2       1       1       3       2       1       1
       3       2       1       1       3       2       1       1       3       2
       1       1       3       2       1       1       3       2       1       1
       3       2       1       1       3       2       1       1       3       2
       1       1       3       2       1       1       3       2       1       1
       3       2       1       1       3       2       1       1       3       2
       1       1       3       2       1       1       3       2       1       1
       3       2       1       1       3       2       1       1       3       2
       1       1       3       2       1       1       3       2       1       1
       3       2       1       1       3       2       1       1       3       2
       1       1       3       2       1       1       3       2       1       1
       3       2       1       1       3       2       1       1       3       2
       1       1       3       2       1       1       3       2       1       1
       3       2       1       1       3       2       1       1       3       2
       1       1       3       2       1       1       3       2       1       1
       3       2       1       1       3       2       1       1       3       2
       1       1       3       2       1       1       3       2       1       1
       3       2       1       1       3       2       1       1       3       2
       1       1       3       2       1       1       3       2       1       1
       3       2       1       1       3       2       1       1       3       2
       1       1       3       2       1       1       3       2       1       1
       3       2       1       1       3       2       1       1       3       2
       1       1       3       2       1       1       3       2       1       1
       3       2       1       1       3       2       1       1       3       2
       1       1       3       2       1       1       3       2       1       1
       3       2       1       1       3       2       1       1       3       2
       1       1       3       2       1       1       3       2       1       1
       3       2       1       1       3       2       1       1       3       2
       1       1       3       2       1       1       3       2       1       1
       3       2       1       1       3       2       1       1       3       2
       1       1       3       2       1       1       3       2       1       1
       3       2       1       1       3       2       1       1       3       2
       1       1       3       2       1       1       3       2       1       1
       3       2       1       1       3       2       1       1       3       2
       1       1       3       2       1       1       3       2       1       1
       3       2       1       1       3       2       1       1       3       2
       1       1       3       2       1       1       3       2       1       1
       3       2       1       1       3       2       1       1       3       2
       1       1       3       2       1       1       3       2       1       1
       3       2       1       1       3       2       1       1       3       2
       1       1       3       2       1       1       3       2       1       1
       3       2       1       1       3       2       1       1       3       2
       1       1       3       2       1       1       3       2       1       1
       3       2       1       1       3       2       1       1       3       2
       1       1       3       2       1       1       3       2       1       1
       3       2       1       1       3       2       1       1       3       2
       1       1       3       2       1       1       3       2       1       1
       3       2       1       1       3       2       1       1       3       2
       1       1       3       2       1       1       3       2       1       1
       3       2       1       1       3       2       1       1       3       2
       1       1       3       2       1       1       3       2       1       1
       3       2       1       1       3       2       1       1       3       2
       1       1       3       2       1       1       3       2       1       1
       3       2       1       1       3       2       1       1       3       2
       1       1       3       2       1       1       3       2       1       1
       3       2       1       1       3       2       1       1       3       2
       1       1       3       2       1       1       3       2       1       1
       3       2       1       1       3       2       1       1       3       2
       1       1       3       2       1       1       3       2       1       1
       3       2       1       1       3       2       1       1       3       2
       1       1       3       2       1       1       3       2       1       1
       3       2       1       1       3       2       1       1       3       2
       1       1       3       2       1       1       3       2       1       1
       3       2       1       1       3       2       1       1       3       2
       1       1       3       2       1       1       3       2       1       1
       3       2       1       1       3       2       1       1       3       2
       1       1       3       2       1       1       3       2       1       1
       3       2       1       1       3       2       1       1       3       2
       1       1       3       2       1       1       3       2       1       1
       3       2       1       1       3       2       1       1       3       2
       1       1       3       2       1       1       3       2       1       1
       3       2       1       1       3       2       1       1       3       2
       1       1       3       2       1       1       3       2       1       1
       3       2       1       1       3       2       1       1       3       2
       1       1       3       2       1       1       3       2       1       1
       3       2       1       1       3       2       1       1       3       2
       1       1       3       2       1       1       3       2       1       1
       3       2       1       1       3       2       1       1       3       2
       1       1       3       2       1       1       3       2       1       1
       3       2       1       1       3       2       1       1       3       2
       1       1       3       2       1       1       3       2       1       1
       3       2       1       1       3       2       1       1       3       2
       1       1       3       2       1       1       3       2       1       1
       3       2       1       1       3       2       1       1       3       2
       1       1       3       2       1       1       3       2       1       1
       3       2       1       1       3       2       1       1       3       2
       1       1       3       2       1       1       3       2       1       1
       3       2       1       1       3       2       1       1       3       2
       1       1       3       2       1       1       3       2       1       1
       3       2       1       1       3       2       1       1       3       2
       1       1       3       2       1       1       3       2       1       1
       3       2       1       1       3       2       1       1       3       2
       1       1       3       2       1       1       3       2       1       1
       3       2       1       1       3       2       1       1       3       2
       1       1       3       2       1       1       3       2       1       1
       3       2       1       1       3       2       1       1       3       2
       1       1       3       2       1       1       3       2       1       1
       3       2       1       1       3       2       1       1       3       2
       1       1       3       2       1       1       3       2       1       1
       3       2       1       1       3       2       1       1       3       2
       1       1       3       2       1       1       3       2       1       1
       3       2       1       1       3       2       1       1       3       2
       1       1       3       2       1       1       3       2       1       1
       3       2       1       1       3       2       1       1       3       2
       1       1       3       2       1       1       3       2       1       1
       3       2       1       1       3       2       1       1       3       2
       1       1       3       2       1       1       3       2       1       1
       3       2       1       1       3       2       1       1       3       2
       1       1       3       2       1       1       3       2       1       1
       3       2       1       1       3       2       1       1       3       2
       1       1       3       2       1       1       3       2       1       1
       3       2       1       1       3       2       1       1       3       2
       1       1       3       2       1       1       3       2       1       1
       3       2       1       1       3       2       1       1       3       2
       1       1       3       2       1       1       3       2       1       1
       3       2       1       1       3       2       1       1       3       2
       1       1       3       2       1       1       3       2       1       1
       3       2       1       1       3       2       1       1       3       2
       1       1       3       2       1       1       3       2       1       1
       3       2       1       1       3       2       1       1       3       2
       1       1       3       2       1       1       3       2       1       1
       3       2       1       1       3       2       1       1       3       2
       1       1       3       2       1       1       3       2       1       1
       3       2       1       1       3       2       1       1       3       2
       1       1       3       2       1       1       3       2       1       1
       3       2       1       1       3       2       1       1       3       2
       1       1       3       2       1       1       3       2       1       1
       3       2       1       1       3       2       1       1       3       2
       1       1       3       2       1       1       3       2       1       1
       3       2       1       1       3       2       1       1       3       2
       1       1       3       2       1       1       3       2       1       1
       3       2       1       1       3       2       1       1       3       2
       1       1       3       2       1       1       3       2       1       1
       3       2       1       1       3       2       1       1       3       2
       1       1       3       2       1       1       3       2       1       1
       3       2       1       1       3       2       1       1       3       2
       1       1       3       2       1       1       3       2       1       1
       3       2       1       1       3       2       1       1       3       2
       1       1       3       2       1       1       3       2       1       1
       3       2       1       1       3       2       1       1       3       2
       1       1       3       2       1       1       3       2       1       1
       3       2       1       1       3       2       1       1       3       2
       1       1       3       2       1       1       3       2       1       1
       3       2       1       1       3       2       1       1       3       2
       1       1       3       2       1       1       3       2       1       1
       3       2       1       1       3       2       1       1       3       2
       1       1       3       2       1       1       3       2       1       1
       3       2       1       1       3       2       1       1       3       2
       1       1       3       2       1       1       3       2       1       1
       3       2       1       1       3       2       1       1       3       2
       1       1       3       2       1       1       3       2       1       1
       3       2       1       1       3       2       1       1       3       2
       1       1       3       2       1       1       3       2       1       1
       3       2       1       1       3       2       1       1       3       2
       1       1       3       2       1       1       3       2       1       1
       3       2       1       1       3       2       1       1       3       2
       1       1       3       2       1       1       3       2       1       1
       3       2       1       1       3       2       1       1       3       2
       1       1       3       2       1       1       3       2       1       1
       3       2       1       1       3       2       1       1       3       2
       1       1       3       2       1       1       3       2       1       1
       3       2       1       1       3       2       1       1       3       2
       1       1       3       2       1       1       3       2       1       1
       3       2       1       1       3       2       1       1       3       2
       1       1       3       2       1       1       3       2       1       1
       3       2       1       1       3       2       1       1       3       2
       1       1       3       2       1       1       3       2       1       1
       3       2       1       1       3       2       1       1       3       2
       1       1       3       2       1       1       3       2       1       1
       3       2       1       1       3       2       1       1       3       2
       1       1       3       2       1       1       3       2       1       1
       3       2       1       1       3       2       1       1       3       2
       1       1       3       2       1       1       3       2       1       1
       3       2       1       1       3       2       1       1       3       2
       1       1       3       2       1       1       3       2       1       1
       3       2       1       1       3       2       1       1       3       2
       1       1       3       2       1       1       3       2       1       1
       3       2       1       1       3       2       1       1       3       2
       1       1       3       2       1       1       3       2       1       1
       3       2       1       1       3       2       1       1       3       2
       1       1       3       2       1       1       3       2       1       1
       3       2       1       1       3       2       1       1       3       2
       1       1       3       2       1       1       3       2       1       1
       3       2       1       1       3       2       1       1       3       2
       1       1       3       2       1       1       3       2       1       1
       3       2       1       1       3       2       1       1       3       2
       1       1       3       2       1       1       3       2       1       1
       3       2       1       1       3       2       1       1       3       2
       1       1       3       2       1       1       3       2       1       1
       3       2       1       1       3       2       1       1       3       2
       1       1       3       2       1       1       3       2       1       1
       3       2       1       1       3       2       1       1       3       2
       1       1       3       2       1       1       3       2       1       1
       3       2       1       1       3       2       1       1       3       2
       1       1       3       2       1       1       3       2       1       1
       3       2       1       1       3       2       1       1       3       2
       1       1       3       2       1       1       3       2       1       1
       3       2       1       1       3       2       1       1       3       2
       1       1       3       2       1       1       3       2       1       1
       3       2       1       1       3       2       1       1       3       2
       1       1       3       2       1       1       3       2       1       1
       3       2       1       1       3       2       1       1       3       2
       1       1       3       2       1       1       3       2       1       1
       3       2       1       1       3       2       1       1       3       2
       1       1       3       2       1       1       3       2       1       1
       3       2       1       1       3       2       1       1       3       2
       1       1       3       2       1       1       3       2       1       1
       3       2       1       1       3       2       1       1       3       2
       1       1       3       2       1       1       3       2       1       1
       3       2       1       1       3       2       1       1       3       2
       1       1       3       2       1       1       3       2       1       1
       3       2       1       1       3       2       1       1       3       2
       1       1       3       2       1       1       3       2       1       1
       3       2       1       1       3       2       1       1       3       2
       1       1       3       2       1       1       3       2       1       1
       3       2       1       1       3       2       1       1       3       2
       1       1       3       2       1       1       3       2       1       1
       3       2       1       1       3       2       1       1       3       2
       1       1       3       2       1       1       3       2       1       1
       3       2       1       1       3       2       1       1       3       2
       1       1       3       2       1       1       3       2       1       1
       3       2       1       1       3       2       1       1       3       2
       1       1       3       2       1       1       3       2       1       1
       3       2       1       1       3       2       1       1       3       2
       1       1       3       2       1       1       3       2       1       1
       3       2       1       1       3       2       1       1       3       2
       1       1       3       2       1       1       3       2       1       1
       3       2       1       1       3       2       1       1       3       2
       1       1       3       2       1       1       3       2       1       1
       3       2       1       1       3       2       1       1       3       2
       1       1       3       2       1       1       3       2       1       1
       3       2       1       1       3       2       1       1       3       2
       1       1       3       2       1       1       3       2       1       1
       3       2       1       1       3       2       1       1       3       2
       1       1       3       2       1       1       3       2       1       1
       3       2       1       1       3       2       1       1       3       2
       1       1       3       2       1       1       3       2       1       1
       3       2       1       1       3       2       1       1       3       2
       1       1       3       2       1       1       3       2       1       1
       3       2       1       1       3       2       1       1       3       2
       1       1       3       2       1       1       3       2       1       1
       3       2       1       1       3       2       1       1       3       2
       1       1       3       2       1       1       3       2       1       1
       3       2       1       1       3       2       1       1       3       2
       1       1       3       2       1       1       3       2       1       1
       3       2       1       1       3       2       1       1       3       2
       1       1       3       2       1       1       3       2       1       1
       3       2       1       1       3       2       1       1       3       2
       1       1       3       2       1       1       3       2       1       1
       3       2       1       1       3       2       1       1       3       2
       1       1       3       2       1       1       3       2       1       1
       3       2       1       1       3       2       1       1       3       2
       1       1       3       2       1       1       3       2       1       1
       3       2       1       1       3       2       1       1       3       2
       1       1       3       2       1       1       3       2       1       1
       3       2       1       1       3       2       1       1       3       2
       1       1       3       2       1       1       3       2       1       1
       3       2       1       1       3       2       1       1       3       2
       1       1       3       2       1       1       3       2       1       1
       3       2       1       1       3       2       1       1       3       2
       1       1       3       2       1       1       3       2       1       1
       3       2       1       1       3       2       1       1       3       2
       1       1       3       2       1       1       3       2       1       1
       3       2       1       1       3       2       1       1       3       2
       1       1       3       2       1       1       3       2       1       1
       3       2       1       1       3       2       1       1       3       2
       1       1       3       2       1       1       3       2       1       1
       3       2       1       1       3       2       1       1       3       2
       1       1       3       2       1       1       3       2       1       1
       3       2       1       1       3       2       1       1       3       2
       1       1       3       2       1       1       3       2       1       1
       3       2       1       1       3       2       1       1       3       2
       1       1       3       2       1       1       3       2       1       1
       3       2       1       1       3       2       1       1       3       2
       1       1       3       2       1       1       3       2       1       1
       3       2       1       1       3       2       1       1       3       2
       1       1       3       2       1       1       3       2       1       1
       3       2       1       1       3       2       1       1       3       2
       1       1       3       2       1       1       3       2       1       1
       3       2       1       1       3       2       1       1       3       2
       1       1       3       2       1       1       3       2       1       1
       3       2       1       1       3       2       1       1       3       2
       1       1       3       2       1       1       3       2       1       1
       3       2       1       1       3       2       1       1       3       2
       1       1       3       2       1       1       3       2       1       1
       3       2       1       1       3       2       1       1       3       2
       1       1       3       2       1       1       3       2       1       1
       3       2       1       1       3       2       1       1       3       2
       1       1       3       2       1       1       3       2       1       1
       3       2       1       1       3       2       1       1       3       2
       1       1       3       2       1       1       3       2       1       1
       3       2       1       1       3       2       1       1       3       2
       1       1       3       2       1       1       3       2       1       1
       3       2       1       1       3       2       1       1       3       2
       1       1       3       2       1       1       3       2       1       1
       3       2       1       1       3       2       1       1       3       2
       1       1       3       2       1       1       3       2       1       1
       3       2       1       1       3       2       1       1       3       2
       1       1       3       2       1       1       3       2       1       1
       3       2       1       1       3       2       1       1       3       2
       1       1       3       2       1       1       3       2       1       1
       3       2       1       1       3       2       1       1       3       2
       1       1       3       2       1       1       3       2       1       1
       3       2       1       1       3       2       1       1       3       2
       1       1       3       2       1       1       3       2       1       1
       3       2       1       1       3       2       1       1       3       2
       1       1       3       2       1       1       3       2       1       1
       3       2       1       1       3       2       1       1       3       2
       1       1       3       2       1       1       3       2       1       1
       3       2       1       1       3       2       1       1       3       2
       1       1       3       2       1       1       3       2       1       1
       3       2       1       1       3       2       1       1       3       2
       1       1       3       2       1       1       3       2       1       1
       3       2       1       1       3       2       1       1       3       2
       1       1       3       2       1       1       3       2       1       1
       3       2       1       1       3       2       1       1       3       2
       1       1       3       2       1       1       3       2       1       1
       3       2       1       1       3       2       1       1       3       2
       1       1       3       2       1       1       3       2       1       1
       3       2       1       1       3       2       1       1       3       2
       1       1       3       2       1       1       3       2       1       1
       3       2       1       1       3       2       1       1       3       2
       1       1       3       2       1       1       3       2       1       1
       3       2       1       1       3       2       1       1       3       2
       1       1       3       2       1       1       3       2       1       1
       3       2       1       1       3       2       1       1       3       2
       1       1       3       2       1       1       3       2       1       1
       3       2       1       1       3       2       1       1       3       2
       1       1       3       2       1       1       3       2       1       1
       3       2       1       1       3       2       1       1       3       2
       1       1       3       2       1       1       3       2       1       1
       3       2       1       1       3       2       1       1       3       2
       1       1       3       2       1       1       3       2       1       1
       3       2       1       1       3       2       1       1       3       2
       1       1       3       2       1       1       3       2       1       1
       3       2       1       1       3       2       1       1       3       2
       1       1       3       2       1       1       3       2       1       1
       3       2       1       1       3       2       1       1       3       2
       1       1       3       2       1       1       3       2       1       1
       3       2       1       1       3       2       1       1       3       2
       1       1       3       2       1       1       3       2       1       1
       3       2       1       1       3       2       1       1       3       2
       1       1       3       2       1       1       3       2       1       1
       3       2       1       1       3       2       1       1       3       2
       1       1       3       2       1       1       3       2       1       1
       3       2       1       1       3       2       1       1       3       2
       1       1       3       2       1       1       3       2       1       1
       3       2       1       1       3       2       1       1       3       2
       1       1       3       2       1       1       3       2       1       1
       3       2       1       1       3       2       1       1       3       2
       1       1       3       2       1       1       3       2       1       1
       3       2       1       1       3       2       1       1       3       2
       1       1       3       2       1       1       3       2       1       1
       3       2       1       1       3       2       1       1       3       2
       1       1       3       2       1       1       3       2       1       1
       3       2       1       1       3       2       1       1       3       2
       1       1       3       2       1       1       3       2       1       1
       3       2       1       1       3       2       1       1       3       2
       1       1       3       2       1       1       3       2       1       1
       3       2       1       1       3       2       1       1       3       2
       1       1       3       2       1       1       3       2       1       1
       3       2       1       1       3       2       1       1       3       2
       1       1       3       2       1       1       3       2       1       1
       3       2       1       1       3       2       1       1       3       2
       1       1       3       2       1       1       3       2       1       1
       3       2       1       1       3       2       1       1       3       2
       1       1       3       2       1       1       3       2       1       1
       3       2       1       1       3       2       1       1       3       2
       1       1       3       2       1       1       3       2       1       1
       3       2       1       1       3       2       1       1       3       2
       1       1       3       2       1       1       3       2       1       1
       3       2       1       1       3       2       1       1       3       2
       1       1       3       2       1       1       3       2       1       1
       3       2       1       1       3       2       1       1       3       2
       1       1       3       2       1       1       3       2       1       1
       3       2       1       1       3       2       1       1       3       2
       1       1       3       2       1       1       3       2       1       1
       3       2       1       1       3       2       1       1       3       2
       1       1       3       2       1       1       3       2       1       1
       3       2       1       1       3       2       1       1       3       2
       1       1       3       2       1       1       3       2       1       1
       3       2       1       1       3       2       1       1       3       2
       1       1       3       2       1       1       3       2       1       1
       3       2       1       1       3       2       1       1       3       2
       1       1       3       2       1       1       3       2       1       1
       3       2       1       1       3       2       1       1       3       2
       1       1       3       2       1       1       3       2       1       1
       3       2       1       1       3       2       1       1       3       2
       1       1       3       2       1       1       3       2       1       1
       3       2       1       1       3       2       1       1       3       2
       1       1       3       2       1       1       3       2       1       1
       3       2       1       1       3       2       1       1       3       2
       1       1       3       2       1       1       3       2       1       1
       3       2       1       1       3       2       1       1       3       2
       1       1       3       2       1       1       3       2       1       1
       3       2       1       1       3       2       1       1       3       2
       1       1       3       2       1       1       3       2       1       1
       3       2       1       1       3       2       1       1       3       2
       1       1       3       2       1       1       3       2       1       1
       3       2       1       1       3       2       1       1       3       2
       1       1       3       2       1       1       3       2       1       1
       3       2       1       1       3       2       1       1       3       2
       1       1       3       2       1       1       3       2       1       1
       3       2       1       1       3       2       1       1       3       2
       1       1       3       2       1       1       3       2       1       1
       3       2       1       1       3       2       1       1       3       2
       1       1       3       2       1       1       3       2       1       1
       3       2       1       1       3       2       1       1       3       2
       1       1       3       2       1       1       3       2       1       1
       3       2       1       1       3       2       1       1       3       2
       1       1       3       2       1       1       3       2       1       1
       3       2       1       1       3       2       1       1       3       2
       1       1       3       2       1       1       3       2       1       1
       3       2       1       1       3       2       1       1       3       2
       1       1       3       2       1       1       3       2       1       1
       3       2       1       1       3       2       1       1       3       2
       1       1       3       2       1       1       3       2       1       1
       3       2       1       1       3       2       1       1       3       2
       1       1       3       2       1       1       3       2       1       1
       3       2       1       1       3       2       1       1       3       2
       1       1       3       2       1       1       3       2       1       1
       3       2       1       1       3       2       1       1       3       2
       1       1       3       2       1       1       3       2       1       1
       3       2       1       1       3       2       1       1       3       2
       1       1       3       2       1       1       3       2       1       1
       3       2       1       1       3       2       1       1       3       2
       1       1       3       2       1       1       3       2       1       1
       3       2       1       1       3       2       1       1       3       2
       1       1       3       2       1       1       3       2       1       1
       3       2       1       1       3       2       1       1       3       2
       1       1       3       2       1       1       3       2       1       1
       3       2       1       1       3       2       1       1       3       2
       1       1       3       2       1       1       3       2       1       1
       3       2       1       1       3       2       1       1       3       2
       1       1       3       2       1       1       3       2       1       1
       3       2       1       1       3       2       1       1       3       2
       1       1       3       2       1       1       3       2       1       1
       3       2       1       1       3       2       1       1       3       2
       1       1       3       2       1       1       3       2       1       1
       3       2       1       1       3       2       1       1       3       2
       1       1       3       2       1       1       3       2       1       1
       3       2       1       1       3       2       1       1       3       2
       1       1       3       2       1       1       3       2       1       1
       3       2       1       1       3       2       1       1       3       2
       1       1       3       2       1       1       3       2       1       1
       3       2       1       1       3       2       1       1       3       2
       1       1       3       2       1       1       3       2       1       1
       3       2       1       1       3       2       1       1       3       2
       1       1       3       2       1       1       3       2       1       1
       3       2       1       1       3       2       1       1       3       2
       1       1       3       2       1       1       3       2       1       1
       3       2       1       1       3       2       1       1       3       2
       1       1       3       2       1       1       3       2       1       1
       3       2       1       1       3       2       1       1       3       2
       1       1       3       2       1       1       3       2       1       1
       3       2       1       1       3       2       1       1       3       2
       1       1       3       2       1       1       3       2       1       1
       3       2       1       1       3       2       1       1       3       2
       1       1       3       2       1       1       3       2       1       1
       3       2       1       1       3       2       1       1       3       2
       1       1       3       2       1       1       3       2       1       1
       3       2       1       1       3       2       1       1       3       2
       1       1       3       2       1       1       3       2       1       1
       3       2       1       1       3       2       1       1       3       2
       1       1       3       2       1       1       3       2       1       1
       3       2       1       1       3       2       1       1       3       2
       1       1       3       2       1       1       3       2       1       1
       3       2       1       1       3       2       1       1       3       2
       1       1       3       2       1       1       3       2       1       1
       3       2       1       1       3       2       1       1       3       2
       1       1       3       2       1       1       3       2       1       1
       3       2       1       1       3       2       1       1       3       2
       1       1       3       2       1       1       3       2       1       1
       3       2       1       1       3       2       1       1       3       2
       1       1       3       2       1       1       3       2       1       1
       3       2       1       1       3       2       1       1       3       2
       1       1       3       2       1       1       3       2       1       1
       3       2       1       1       3       2       1       1       3       2
       1       1       3       2       1       1       3       2       1       1
       3       2       1       1       3       2       1       1       3       2
       1       1       3       2       1       1       3       2       1       1
       3       2       1       1       3       2       1       1       3       2
       1       1       3       2       1       1       3       2       1       1
       3       2       1       1       3       2       1       1       3       2
       1       1       3       2       1       1       3       2       1       1
       3       2       1       1       3       2       1       1       3       2
       1       1       3       2       1       1       3       2       1       1
       3       2       1       1       3       2       1       1       3       2
       1       1       3       2       1       1       3       2       1       1
       3       2       1       1       3       2       1       1       3       2
       1       1       3       2       1       1       3       2       1       1
       3       2       1       1       3       2       1       1       3       2
       1       1       3       2       1       1       3       2       1       1
       3       2       1       1       3       2       1       1       3       2
       1       1       3       2       1       1       3       2       1       1
       3       2       1       1       3       2       1       1       3       2
       1       1       3       2       1       1       3       2       1       1
       3       2       1       1       3       2       1       1       3       2
       1       1       3       2       1       1       3       2       1       1
       3       2       1       1       3       2       1       1       3       2
       1       1       3       2       1       1       3       2       1       1
       3       2       1       1       3       2       1       1       3       2
       1       1       3       2       1       1       3       2       1       1
       3       2       1       1       3       2       1       1       3       2
       1       1       3       2       1       1       3       2       1       1
       3       2       1       1       3       2       1       1       3       2
       1       1       3       2       1       1       3       2       1       1
       3       2       1       1       3       2       1       1       3       2
       1       1       3       2       1       1       3       2       1       1
       3       2       1       1       3       2       1       1       3       2
       1       1       3       2       1       1       3       2       1       1
       3       2       1       1       3       2       1       1       3       2
       1       1       3       2       1       1       3       2       1       1
       3       2       1       1       3       2       1       1       3       2
       1       1       3       2       1       1       3       2       1       1
       3       2       1       1       3       2       1       1       3       2
       1       1       3       2       1       1       3       2       1       1
       3       2       1       1       3       2       1       1       3       2
       1       1       3       2       1       1       3       2       1       1
       3       2       1       1       3       2       1       1       3       2
       1       1       3       2       1       1       3       2       1       1
       3       2       1       1       3       2       1       1       3       2
       1       1       3       2       1       1       3       2       1       1
       3       2       1       1       3       2       1       1       3       2
       1       1       3       2       1       1       3       2       1       1
       3       2       1       1       3       2       1       1       3       2
       1       1       3       2       1       1       3       2       1       1
       3       2       1       1       3       2       1       1       3       2
       1       1       3       2       1       1       3       2       1       1
       3       2       1       1       3       2       1       1       3       2
       1       1       3       2       1       1       3       2       1       1
       3       2       1       1       3       2       1       1       3       2
       1       1       3       2       1       1       3       2       1       1
       3       2       1       1       3       2       1       1       3       2
       1       1       3       2       1       1       3       2       1       1
       3       2       1       1       3       2       1       1       3       2
       1       1       3       2       1       1       3       2       1       1
       3       2       1       1       3       2       1       1       3       2
       1       1       3       2       1       1       3       2       1       1
       3       2       1       1       3       2       1       1       3       2
       1       1       3       2       1       1       3       2       1       1
       3       2       1       1       3       2       1       1       3       2
       1       1       3       2       1       1       3       2       1       1
       3       2       1       1       3       2       1       1       3       2
       1       1       3       2       1       1       3       2       1       1
       3       2       1       1       3       2       1       1       3       2
       1       1       3       2       1       1       3       2       1       1
       3       2       1       1       3       2       1       1       3       2
       1       1       3       2       1       1       3       2       1       1
       3       2       1       1       3       2       1       1       3       2
       1       1       3       2       1       1       3       2       1       1
       3       2       1       1       3       2       1       1       3       2
       1       1       3       2       1       1       3       2       1       1
       3       2       1       1       3       2       1       1       3       2
       1       1       3       2       1       1       3       2       1       1
       3       2       1       1       3       2       1       1       3       2
       1       1       3       2       1       1       3       2       1       1
       3       2       1       1       3       2       1       1       3       2
       1       1       3       2       1       1       3       2       1       1
       3       2       1       1       3       2       1       1       3       2
       1       1       3       2       1       1       3       2       1       1
       3       2       1       1       3       2       1       1       3       2
       1       1       3       2       1       1       3       2       1       1
       3       2       1       1       3       2       1       1       3       2
       1       1       3       2       1       1       3       2       1       1
       3       2       1       1       3       2       1       1       3       2
       1       1       3       2       1       1       3       2       1       1
       3       2       1       1       3       2       1       1       3       2
       1       1       3       2       1       1       3       2       1       1
       3       2       1       1       3       2       1       1       3       2
       1       1       3       2       1       1       3       2       1       1
       3       2       1       1       3       2       1       1       3       2
       1       1       3       2       1       1       3       2       1       1
       3       2       1       1       3       2       1       1       3       2
       1       1       3       2       1       1       3       2       1       1
       3       2       1       1       3       2       1       1       3       2
       1       1       3       2       1       1       3       2       1       1
       3       2       1       1       3       2       1       1       3       2
       1       1       3       2       1       1       3       2       1       1
       3       2       1       1       3       2       1       1       3       2
       1       1       3       2       1       1       3       2       1       1
       3       2       1       1       3       2       1       1       3       2
       1       1       3       2       1       1       3       2       1       1
       3       2       1       1       3       2       1       1       3       2
       1       1       3       2       1       1       3       2       1       1
       3       2       1       1       3       2       1       1       3       2
       1       1       3       2       1       1       3       2       1       1
       3       2       1       1       3       2       1       1       3       2
       1       1       3       2       1       1       3       2       1       1
       3       2       1       1       3       2       1       1       3       2
       1       1       3       2       1       1       3       2       1       1
       3       2       1       1       3       2       1       1       3       2
       1       1       3       2       1       1       3       2       1       1
       3       2       1       1       3       2       1       1       3       2
       1       1       3       2       1       1       3       2       1       1
       3       2       1       1       3       2       1       1       3       2
       1       1       3       2       1       1       3       2       1       1
       3       2       1       1       3       2       1       1       3       2
       1       1       3       2       1       1       3       2       1       1
       3       2       1       1       3       2       1       1       3       2
       1       1       3       2       1       1       3       2       1       1
       3       2       1       1       3       2       1       1       3       2
       1       1       3       2       1       1       3       2       1       1
       3       2       1       1       3       2       1       1       3       2
       1       1       3       2       1       1       3       2       1       1
       3       2       1       1       3       2       1       1       3       2
       1       1       3       2       1       1       3       2       1       1
       3       2       1       1       3       2       1       1       3       2
       1       1       3       2       1       1       3       2       1       1
       3       2       1       1       3       2       1       1       3       2
       1       1       3       2       1       1       3       2       1       1
       3       2       1       1       3       2       1       1       3       2
       1       1       3       2       1       1       3       2       1       1
       3       2       1       1       3       2       1       1       3       2
       1       1       3       2       1       1       3       2       1       1
       3       2       1       1       3       2       1       1       3       2
       1       1       3       2       1       1       3       2       1       1
       3       2       1       1       3       2       1       1       3       2
       1       1       3       2       1       1       3       2       1       1
       3       2       1       1       3       2       1       1       3       2
       1       1       3       2       1       1       3       2       1       1
       3       2       1       1       3       2       1       1       3       2
       1       1       3       2       1       1       3       2       1       1
       3       2       1       1       3       2       1       1       3       2
       1       1       3       2       1       1       3       2       1       1
       3       2       1       1       3       2       1       1       3       2
       1       1       3       2       1       1       3       2       1       1
       3       2       1       1       3       2       1       1       3       2
       1       1       3       2       1       1       3       2       1       1
       3       2       1       1       3       2       1       1       3       2
       1       1       3       2       1       1       3       2       1       1
       3       2       1       1       3       2       1       1       3       2
       1       1       3       2       1       1       3       2       1       1
       3       2       1       1       3       2       1       1       3       2
       1       1       3       2       1       1       3       2       1       1
       3       2       1       1       3       2       1       1       3       2
       1       1       3       2       1       1       3       2       1       1
       3       2       1       1       3       2       1       1       3       2
       1       1       3       2       1       1       3       2       1       1
       3       2       1       1       3       2       1       1       3       2
       1       1       3       2       1       1       3       2       1       1
       3       2       1       1       3       2       1       1       3       2
       1       1       3       2       1       1       3       2       1       1
       3       2       1       1       3       2       1       1       3       2
       1       1       3       2       1       1       3       2       1       1
       3       2       1       1       3       2       1       1       3       2
       1       1       3       2       1       1       3       2       1       1
       3       2       1       1       3       2       1       1       3       2
       1       1       3       2       1       1       3       2       1       1
       3       2       1       1       3       2       1       1       3       2
       1       1       3       2       1       1       3       2       1       1
       3       2       1       1       3       2       1       1       3       2
       1       1       3       2       1       1       3       2       1       1
       3       2       1       1       3       2       1       1       3       2
       1       1       3       2       1       1       3       2       1       1
       3       2       1       1       3       2       1       1       3       2
       1       1       3       2       1       1       3       2       1       1
       3       2       1       1       3       2       1       1       3       2
       1       1       3       2       1       1       3       2       1       1
       3       2       1       1       3       2       1       1       3       2
       1       1       3       2       1       1       3       2       1       1
       3       2       1       1       3       2       1       1       3       2
       1       1       3       2       1       1       3       2       1       1
       3       2       1       1       3       2       1       1       3       2
       1       1       3       2       1       1       3       2       1       1
       3       2       1       1       3       2       1       1       3       2
       1       1       3       2       1       1       3       2       1       1
       3       2       1       1       3       2       1       1       3       2
       1       1       3       2       1       1       3       2       1       1
       3       2       1       1       3       2       1       1       3       2
       1       1       3       2       1       1       3       2       1       1
       3       2       1       1       3       2       1       1       3       2
       1       1       3       2       1       1       3       2       1       1
       3       2       1       1       3       2       1       1       3       2
       1       1       3       2       1       1       3       2       1       1
       3       2       1       1       3       2       1       1       3       2
       1       1       3       2       1       1       3       2       1       1
       3       2       1       1       3       2       1       1       3       2
       1       1       3       2       1       1       3       2       1       1
       3       2       1       1       3       2       1       1       3       2
       1       1       3       2       1       1       3       2       1       1
       3       2       1       1       3       2       1       1       3       2
       1       1       3       2       1       1       3       2       1       1
       3       2       1       1       3       2       1       1       3       2
       1       1       3       2       1       1       3       2       1       1
       3       2       1       1       3       2       1       1       3       2
       1       1       3       2       1       1       3       2       1       1
       3       2       1       1       3       2       1       1       3       2
       1       1       3       2       1       1       3       2       1       1
       3       2       1       1       3       2       1       1       3       2
       1       1       3       2       1       1       3       2       1       1
       3       2       1       1       3       2       1       1       3       2
       1       1       3       2       1       1       3       2       1       1
       3       2       1       1       3       2       1       1       3       2
       1       1       3       2       1       1       3       2       1       1
       3       2       1       1       3       2       1       1       3       2
       1       1       3       2       1       1       3       2       1       1
       3       2       1       1       3       2       1       1       3       2
       1       1       3       2       1       1       3       2       1       1
       3       2       1       1       3       2       1       1       3       2
       1       1       3       2       1       1       3       2       1       1
       3       2       1       1       3       2       1       1       3       2
       1       1       3       2       1       1       3       2       1       1
       3       2       1       1       3       2       1       1       3       2
       1       1       3       2       1       1       3       2       1       1
       3       2       1       1       3       2       1       1       3       2
       1       1       3       2       1       1       3       2       1       1
       3       2       1       1       3       2       1       1       3       2
       1       1       3       2       1       1       3       2       1       1
       3       2       1       1       3       2       1       1       3       2
       1       1       3       2       1       1       3       2       1       1
       3       2       1       1       3       2       1       1       3       2
       1       1       3       2       1       1       3       2       1       1
       3       2       1       1       3       2       1       1       3       2
       1       1       3       2       1       1       3       2       1       1
       3       2       1       1       3       2       1       1       3       2
       1       1       3       2       1       1       3       2       1       1
       3       2       1       1       3       2       1       1       3       2
       1       1       3       2       1       1       3       2       1       1
       3       2       1       1       3       2       1       1       3       2
       1       1       3       2       1       1       3       2       1       1
       3       2       1       1       3       2       1       1       3       2
       1       1       3       2       1       1       3       2       1       1
       3       2       1       1       3       2       1       1       3       2
       1       1       3       2       1       1       3       2       1       1
       3       2       1       1       3       2       1       1       3       2
       1       1       3       2       1       1       3       2       1       1
       3       2       1       1       3       2       1       1       3       2
       1       1       3       2       1       1       3       2       1       1
       3       2       1       1       3       2       1       1       3       2
       1       1       3       2       1       1       3       2       1       1
       3       2       1       1       3       2       1       1       3       2
       1       1       3       2       1       1       3       2       1       1
       3       2       1       1       3       2       1       1       3       2
       1       1       3       2       1       1       3       2       1       1
       3       2       1       1       3       2       1       1       3       2
       1       1       3       2       1       1       3       2       1       1
       3       2       1       1       3       2       1       1       3       2
       1       1       3       2       1       1       3       2       1       1
       3       2       1       1       3       2       1       1       3       2
       1       1       3       2       1       1       3       2       1       1
       3       2       1       1       3       2       1       1       3       2
       1       1       3       2       1       1       3       2       1       1
       3       2       1       1       3       2       1       1       3       2
       1       1       3       2       1       1       3       2       1       1
       3       2       1       1       3       2       1       1       3       2
       1       1       3       2       1       1       3       2       1       1
       3       2       1       1       3       2       1       1       3       2
       1       1       3       2       1       1       3       2       1       1
       3       2       1       1       3       2       1       1       3       2
       1       1       3       2       1       1       3       2       1       1
       3       2       1       1       3       2       1       1       3       2
       1       1       3       2       1       1       3       2       1       1
       3       2       1       1       3       2       1       1       3       2
       1       1       3       2       1       1       3       2       1       1
       3       2       1       1       3       2       1       1       3       2
       1       1       3       2       1       1       3       2       1       1
       3       2       1       1       3       2       1       1       3       2
       1       1       3       2       1       1       3       2       1       1
       3       2       1       1       3       2       1       1       3       2
       1       1       3       2       1       1       3       2       1       1
       3       2       1       1       3       2       1       1       3       2
       1       1       3       2       1       1       3       2       1       1
       3       2       1       1       3       2       1       1       3       2
       1       1       3       2       1       1       3       2       1       1
       3       2       1       1       3       2       1       1       3       2
       1       1       3       2       1       1       3       2       1       1
       3       2       1       1       3       2       1       1       3       2
       1       1       3       2       1       1       3       2       1       1
       3       2       1       1       3       2       1       1       3       2
       1       1       3       2       1       1       3       2       1       1
       3       2       1       1       3       2       1       1       3       2
       1       1       3       2       1       1       3       2       1       1
       3       2       1       1       3       2       1       1       3       2
       1       1       3       2       1       1       3       2       1       1
       3       2       1       1       3       2       1       1       3       2
       1       1       3       2       1       1       3       2       1       1
       3       2       1       1       3       2       1       1       3       2
       1       1       3       2       1       1       3       2       1       1
       3       2       1       1       3       2       1       1       3       2
       1       1       3       2       1       1       3       2       1       1
       3       2       1       1       3       2       1       1       3       2
       1       1       3       2       1       1       3       2       1       1
       3       2       1       1       3       2       1       1       3       2
       1       1       3       2       1       1       3       2       1       1
       3       2       1       1       3       2       1       1       3       2
       1       1       3       2       1       1       3       2       1       1
       3       2       1       1       3       2       1       1       3       2
       1       1       3       2       1       1       3       2       1       1
       3       2       1       1       3       2       1       1       3       2
       1       1       3       2       1       1       3       2       1       1
       3       2       1       1       3       2       1       1       3       2
       1       1       3       2       1       1       3       2       1       1
       3       2       1       1       3       2       1       1       3       2
       1       1       3       2       1       1       3       2       1       1
       3       2       1       1       3       2       1       1       3       2
       1       1       3       2       1       1       3       2       1       1
       3       2       1       1       3       2       1       1       3       2
       1       1       3       2       1       1       3       2       1       1
       3       2       1       1       3       2       1       1       3       2
       1       1       3       2       1       1       3       2       1       1
       3       2       1       1       3       2       1       1       3       2
       1       1       3       2       1       1       3       2       1       1
       3       2       1       1       3       2       1       1       3       2
       1       1       3       2       1       1       3       2       1       1
       3       2       1       1       3       2       1       1       3       2
       1       1       3       2       1       1       3       2       1       1
       3       2       1       1       3       2       1       1       3       2
       1       1       3       2       1       1       3       2       1       1
       3       2       1       1       3       2       1       1       3       2
       1       1       3       2       1       1       3       2       1       1
       3       2       1       1       3       2       1       1       3       2
       1       1       3       2       1       1       3       2       1       1
       3       2       1       1       3       2       1       1       3       2
       1       1       3       2       1       1       3       2       1       1
       3       2       1       1       3       2       1       1       3       2
       1       1       3       2       1       1       3       2       1       1
       3       2       1       1       3       2       1       1       3       2
       1       1       3       2       1       1       3       2       1       1
       3       2       1       1       3       2       1       1       3       2
       1       1       3       2       1       1       3       2       1       1
       3       2       1       1       3       2       1       1       3       2
       1       1       3       2       1       1       3       2       1       1
       3       2       1       1       3       2       1       1       3       2
       1       1       3       2       1       1       3       2       1       1
       3       2       1       1       3       2       1       1       3       2
       1       1       3       2       1       1       3       2       1       1
       3       2       1       1       3       2       1       1       3       2
       1       1       3       2       1       1       3       2       1       1
       3       2       1       1       3       2       1       1       3       2
       1       1       3       2       1       1       3       2       1       1
       3       2       1       1       3       2       1       1       3       2
       1       1       3       2       1       1       3       2       1       1
       3       2       1       1       3       2       1       1       3       2
       1       1       3       2       1       1       3       2       1       1
       3       2       1       1       3       2       1       1       3       2
       1       1       3       2       1       1       3       2       1       1
       3       2       1       1       3       2       1       1       3       2
       1       1       3       2       1       1       3       2       1       1
       3       2       1       1       3       2       1       1       3       2
       1       1       3       2       1       1       3       2       1       1
       3       2       1       1       3       2       1       1       3       2
       1       1       3       2       1       1       3       2       1       1
       3       2       1       1       3       2       1       1       3       2
       1       1       3       2       1       1       3       2       1       1
       3       2       1       1       3       2       1       1       3       2
       1       1       3       2       1       1       3       2       1       1
       3       2       1       1       3       2       1       1       3       2
       1       1       3       2       1       1       3       2       1       1
       3       2       1       1       3       2       1       1       3       2
       1       1       3       2       1       1       3       2       1       1
       3       2       1       1       3       2       1       1       3       2
       1       1       3       2       1       1       3       2       1       1
       3       2       1       1       3       2       1       1       3       2
       1       1       3       2       1       1       3       2       1       1
       3       2       1       1       3       2       1       1       3       2
       1       1       3       2       1       1       3       2       1       1
       3       2       1       1       3       2       1       1       3       2
       1       1       3       2       1       1       3       2       1       1
       3       2       1       1       3       2       1       1       3       2
       1       1       3       2       1       1       3       2       1       1
       3       2       1       1       3       2       1       1       3       2
       1       1       3       2       1       1       3       2       1       1
       3       2       1       1       3       2       1       1       3       2
       1       1       3       2       1       1       3       2       1       1
       3       2       1       1       3       2       1       1       3       2
       1       1       3       2       1       1       3       2       1       1
       3       2       1       1       3       2       1       1       3       2
       1       1       3       2       1       1       3       2       1       1
       3       2       1       1       3       2       1       1       3       2
       1       1       3       2       1       1       3       2       1       1
       3       2       1       1       3       2       1       1       3       2
       1       1       3       2       1       1       3       2       1       1
       3       2       1       1       3       2       1       1       3       2
       1       1       3       2       1       1       3       2       1       1
       3       2       1       1       3       2       1       1       3       2
       1       1       3       2       1       1       3       2       1       1
       3       2       1       1       3       2       1       1       3       2
       1       1       3       2       1       1       3       2       1       1
       3       2       1       1       3       2       1       1       3       2
       1       1       3       2       1       1       3       2       1       1
       3       2       1       1       3       2       1       1       3       2
       1       1       3       2       1       1       3       2       1       1
       3       2       1       1       3       2       1       1       3       2
       1       1       3       2       1       1       3       2       1       1
       3       2       1       1       3       2       1       1       3       2
       1       1       3       2       1       1       3       2       1       1
       3       2       1       1       3       2       1       1       3       2
       1       1       3       2       1       1       3       2       1       1
       3       2       1       1       3       2       1       1       3       2
       1       1       3       2       1       1       3       2       1       1
       3       2       1       1       3       2       1       1       3       2
       1       1       3       2       1       1       3       2       1       1
       3       2       1       1       3       2       1       1       3       2
       1       1       3       2       1       1       3       2       1       1
       3       2       1       1       3       2       1       1       3       2
       1       1       3       2       1       1       3       2       1       1
       3       2       1       1       3       2       1       1       3       2
       1       1       3       2       1       1       3       2       1       1
       3       2       1       1       3       2       1       1       3       2
       1       1       3       2       1       1       3       2       1       1
       3       2       1       1       3       2       1       1       3       2
       1       1       3       2       1       1       3       2       1       1
       3       2       1       1       3       2       1       1       3       2
       1       1       3       2       1       1       3       2       1       1
       3       2       1       1       3       2       1       1       3       2
       1       1       3       2       1       1       3       2       1       1
       3       2       1       1       3       2       1       1       3       2
       1       1       3       2       1       1       3       2       1       1
       3       2       1       1       3       2       1       1       3       2
       1       1       3       2       1       1       3       2       1       1
       3       2       1       1       3       2       1       1       3       2
       1       1       3       2       1       1       3       2       1       1
       3       2       1       1       3       2       1       1       3       2
       1       1       3       2       1       1       3       2       1       1
       3       2       1       1       3       2       1       1       3       2
       1       1       3       2       1       1       3       2       1       1
       3       2       1       1       3       2       1       1       3       2
       1       1       3       2       1       1       3       2       1       1
       3       2       1       1       3       2       1       1       3       2
       1       1       3       2       1       1       3       2       1       1
       3       2       1       1       3       2       1       1       3       2
       1       1       3       2       1       1       3       2       1       1
       3       2       1       1       3       2       1       1       3       2
       1       1       3       2       1       1       3       2       1       1
       3       2       1       1       3       2       1       1       3       2
       1       1       3       2       1       1       3       2       1       1
       3       2       1       1       3       2       1       1       3       2
       1       1       3       2       1       1       3       2       1       1
       3       2       1       1       3       2       1       1       3       2
       1       1       3       2       1       1       3       2       1       1
       3       2       1       1       3       2       1       1       3       2
       1       1       3       2       1       1       3       2       1       1
       3       2       1       1       3       2       1       1       3       2
       1       1       3       2       1       1       3       2       1       1
       3       2       1       1       3       2       1       1       3       2
       1       1       3       2       1       1       3       2       1       1
       3       2       1       1       3       2       1       1       3       2
       1       1       3       2       1       1       3       2       1       1
       3       2       1       1       3       2       1       1       3       2
       1       1       3       2       1       1       3       2       1       1
       3       2       1       1       3       2       1       1       3       2
       1       1       3       2       1       1       3       2       1       1
       3       2       1       1       3       2       1       1       3       2
       1       1       3       2       1       1       3       2       1       1
       3       2       1       1       3       2       1       1       3       2
       1       1       3       2       1       1       3       2       1       1
       3       2       1       1       3       2       1       1       3       2
       1       1       3       2       1       1       3       2       1       1
       3       2       1       1       3       2       1       1       3       2
       1       1       3       2       1       1       3       2       1       1
       3       2       1       1       3       2       1       1       3       2
       1       1       3       2       1       1       3       2       1       1
       3       2       1       1       3       2       1       1       3       2
       1       1       3       2       1       1       3       2       1       1
       3       2       1       1       3       2       1       1       3       2
       1       1       3       2       1       1       3       2       1       1
       3       2       1       1       3       2       1       1       3       2
       1       1       3       2       1       1       3       2       1       1
       3       2       1       1       3       2       1       1       3       2
       1       1       3       2       1       1       3       2       1       1
       3       2       1       1       3       2       1       1       3       2
       1       1       3       2       1       1       3       2       1       1
       3       2       1       1       3       2       1       1       3       2
       1       1       3       2       1       1       3       2       1       1
       3       2       1       1       3       2       1       1       3       2
       1       1       3       2       1       1       3       2       1       1
       3       2       1       1       3       2       1       1       3       2
       1       1       3       2       1       1       3       2       1       1
       3       2       1       1       3       2       1       1       3       2
       1       1       3       2       1       1       3       2       1       1
       3       2       1       1       3       2       1       1       3       2
       1       1       3       2       1       1       3       2       1       1
       3       2       1       1       3       2       1       1       3       2
       1       1       3       2       1       1       3       2       1       1
       3       2       1       1       3       2       1       1       3       2
       1       1       3       2       1       1       3       2       1       1
       3       2       1       1       3       2       1       1       3       2
       1       1       3       2       1       1       3       2       1       1
       3       2       1       1       3       2       1       1       3       2
       1       1       3       2       1       1       3       2       1       1
       3       2       1       1       3       2       1       1       3       2
       1       1       3       2       1       1       3       2       1       1
       3       2       1       1       3       2       1       1       3       2
       1       1       3       2       1       1       3       2       1       1
       3       2       1       1       3       2       1       1       3       2
       1       1       3       2       1       1       3       2       1       1
       3       2       1       1       3       2       1       1       3       2
       1       1       3       2       1       1       3       2       1       1
       3       2       1       1       3       2       1       1       3       2
       1       1       3       2       1       1       3       2       1       1
       3       2       1       1       3       2       1       1       3       2
       1       1       3       2       1       1       3       2       1       1
       3       2       1       1       3       2       1       1       3       2
       1       1       3       2       1       1       3       2       1       1
       3       2       1       1       3       2       1       1       3       2
       1       1       3       2       1       1       3       2       1       1
       3       2       1       1       3       2       1       1       3       2
       1       1       3       2       1       1       3       2       1       1
       3       2       1       1       3       2       1       1       3       2
       1       1       3       2       1       1       3       2       1       1
       3       2       1       1       3       2       1       1       3       2
       1       1       3       2       1       1       3       2       1       1
       3       2       1       1       3       2       1       1       3       2
       1       1       3       2       1       1       3       2       1       1
       3       2       1       1       3       2       1       1       3       2
       1       1       3       2       1       1       3       2       1       1
       3       2       1       1       3       2       1       1       3       2
       1       1       3       2       1       1       3       2       1       1
       3       2       1       1       3       2       1       1       3       2
       1       1       3       2       1       1       3       2       1       1
       3       2       1       1       3       2       1       1       3       2
       1       1       3       2       1       1       3       2       1       1
       3       2       1       1       3       2       1       1       3       2
       1       1       3       2       1       1       3       2       1       1
       3       2       1       1       3       2       1       1       3       2
       1       1       3       2       1       1       3       2       1       1
       3       2       1       1       3       2       1       1       3       2
       1       1       3       2       1       1       3       2       1       1
       3       2       1       1       3       2       1       1       3       2
       1       1       3       2       1       1       3       2       1       1
       3       2       1       1       3       2       1       1       3       2
       1       1       3       2       1       1       3       2       1       1
       3       2       1       1       3       2       1       1       3       2
       1       1       3       2       1       1       3       2       1       1
       3       2       1       1       3       2       1       1       3       2
       1       1       3       2       1       1       3       2       1       1
       3       2       1       1       3       2       1       1       3       2
       1       1       3       2       1       1       3       2       1       1
       3       2       1       1       3       2       1       1       3       2
       1       1       3       2       1       1       3       2       1       1
       3       2       1       1       3       2       1       1       3       2
       1       1       3       2       1       1       3       2       1       1
       3       2       1       1       3       2       1       1       3       2
       1       1       3       2       1       1       3       2       1       1
       3       2       1       1       3       2       1       1       3       2
       1       1       3       2       1       1       3       2       1       1
       3       2       1       1       3       2       1       1       3       2
       1       1       3       2       1       1       3       2       1       1
       3       2       1       1       3       2       1       1       3       2
       1       1       3       2       1       1       3       2       1       1
       3       2       1       1       3       2       1       1       3       2
       1       1       3       2       1       1       3       2       1       1
       3       2       1       1       3       2       1       1       3       2
       1       1       3       2       1       1       3       2       1       1
       3       2       1       1       3       2       1       1       3       2
       1       1       3       2       1       1       3       2       1       1
       3       2       1       1       3       2       1       1       3       2
       1       1       3       2       1       1       3       2       1       1
       3       2       1       1       3       2       1       1       3       2
       1       1       3       2       1       1       3       2       1       1
       3       2       1       1       3       2       1       1       3       2
       1       1       3       2       1       1       3       2       1       1
       3       2       1       1       3       2       1       1       3       2
       1       1       3       2       1       1       3       2       1       1
       3       2       1       1       3       2       1       1       3       2
       1       1       3       2       1       1       3       2       1       1
       3       2       1       1       3       2       1       1       3       2
       1       1       3       2       1       1       3       2       1       1
       3       2       1       1       3       2       1       1       3       2
       1       1       3       2       1       1       3       2       1       1
       3       2       1       1       3       2       1       1       3       2
       1       1       3       2       1       1       3       2       1       1
       3       2       1       1       3       2       1       1       3       2
       1       1       3       2       1       1       3       2       1       1
       3       2       1       1       3       2       1       1       3       2
       1       1       3       2       1       1       3       2       1       1
       3       2       1       1       3       2       1       1       3       2
       1       1       3       2       1       1       3       2       1       1
       3       2       1       1       3       2       1       1       3       2
       1       1       3       2       1       1       3       2       1       1
       3       2       1       1       3       2       1       1       3       2
       1       1       3       2       1       1       3       2       1       1
       3       2       1       1       3       2       1       1       3       2
       1       1       3       2       1       1       3       2       1       1
       3       2       1       1       3       2       1       1       3       2
       1       1       3       2       1       1       3       2       1       1
       3       2       1       1       3       2       1       1       3       2
       1       1       3       2       1       1       3       2       1       1
       3       2       1       1       3       2       1       1       3       2
       1       1       3       2       1       1       3       2       1       1
       3       2       1       1       3       2       1       1       3       2
       1       1       3       2       1       1       3       2       1       1
       3       2       1       1       3       2       1       1       3       2
       1       1       3       2       1       1       3       2       1       1
       3       2       1       1       3       2       1       1       3       2
       1       1       3       2       1       1       3       2       1       1
       3       2       1       1       3       2       1       1       3       2
       1       1       3       2       1       1       3       2       1       1
       3       2       1       1       3       2       1       1       3       2
       1       1       3       2       1       1       3       2       1       1
       3       2       1       1       3       2       1       1       3       2
       1       1       3       2       1       1       3       2       1       1
       3       2       1       1       3       2       1       1       3       2
       1       1       3       2       1       1       3       2       1       1
       3       2       1       1       3       2       1       1       3       2
       1       1       3       2       1       1       3       2       1       1
       3       2       1       1       3       2       1       1       3       2
       1       1       3       2       1       1       3       2       1       1
       3       2       1       1       3       2       1       1       3       2
       1       1       3       2       1       1       3       2       1       1
       3       2       1       1       3       2       1       1       3       2
       1       1       3       2       1       1       3       2       1       1
       3       2       1       1       3       2       1       1       3       2
       1       1       3       2       1       1       3       2       1       1
       3       2       1       1       3       2       1       1       3       2
       1       1       3       2       1       1       3       2       1       1
       3       2       1       1       3       2       1       1       3       2
       1       1       3       2       1       1       3       2       1       1
       3       2       1       1       3       2       1       1       3       2
       1       1       3       2       1       1       3       2       1       1
       3       2       1       1       3       2       1       1       3       2
       1       1       3       2       1       1       3       2       1       1
       3       2       1       1       3       2       1       1       3       2
       1       1       3       2       1       1       3       2       1       1
       3       2       1       1       3       2       1       1       3       2
       1       1       3       2       1       1       3       2       1       1
       3       2       1       1       3       2       1       1       3       2
       1       1       3       2       1       1       3       2       1       1
       3       2       1       1       3       2       1       1       3       2
       1       1       3       2       1       1       3       2       1       1
       3       2       1       1       3       2       1       1       3       2
       1       1       3       2       1       1       3       2       1       1
       3       2       1       1       3       2       1       1       3       2
       1       1       3       2       1       1       3       2       1       1
       3       2       1       1       3       2       1       1       3       2
       1       1       3       2       1       1       3       2       1       1
       3       2       1       1       3       2       1       1       3       2
       1       1       3       2       1       1       3       2       1       1
       3       2       1       1       3       2       1       1       3       2
       1       1       3       2       1       1       3       2       1       1
       3       2       1       1       3       2       1       1       3       2
       1       1       3       2       1       1       3       2       1       1
       3       2       1       1       3       2       1       1       3       2
       1       1       3       2       1       1       3       2       1       1
       3       2       1       1       3       2       1       1       3       2
       1       1       3       2       1       1       3       2       1       1
       3       2       1       1       3       2       1       1       3       2
       1       1       3       2       1       1       3       2       1       1
       3       2       1       1       3       2       1       1       3       2
       1       1       3       2       1       1       3       2       1       1
       3       2       1       1       3       2       1       1       3       2
       1       1       3       2       1       1       3       2       1       1
       3       2       1       1       3       2       1       1       3       2
       1       1       3       2       1       1       3       2       1       1
       3       2       1       1       3       2       1       1       3       2
       1       1       3       2       1       1       3       2       1       1
       3       2       1       1       3       2       1       1       3       2
       1       1       3       2       1       1       3       2       1       1
       3       2       1       1       3       2       1       1       3       2
       1       1       3       2       1       1       3       2       1       1
       3       2       1       1       3       2       1       1       3       2
       1       1       3       2       1       1       3       2       1       1
       3       2       1       1       3       2       1       1       3       2
       1       1       3       2       1       1       3       2       1       1
       3       2       1       1       3       2       1       1       3       2
       1       1       3       2       1       1       3       2       1       1
       3       2       1       1       3       2       1       1       3       2
       1       1       3       2       1       1       3       2       1       1
       3       2       1       1       3       2       1       1       3       2
       1       1       3       2       1       1       3       2       1       1
       3       2       1       1       3       2       1       1       3       2
       1       1       3       2       1       1       3       2       1       1
       3       2       1       1       3       2       1       1       3       2
       1       1       3       2       1       1       3       2       1       1
       3       2       1       1       3       2       1       1       3       2
       1       1       3       2       1       1       3       2       1       1
       3       2       1       1       3       2       1       1       3       2
       1       1       3       2       1       1       3       2       1       1
       3       2       1       1       3       2       1       1       3       2
       1       1       3       2       1       1       3       2       1       1
       3       2       1       1       3       2       1       1       3       2
       1       1       3       2       1       1       3       2       1       1
       3       2       1       1       3       2       1       1       3       2
       1       1       3       2       1       1       3       2       1       1
       3       2       1       1       3       2       1       1       3       2
       1       1       3       2       1       1       3       2       1       1
       3       2       1       1       3       2       1       1       3       2
       1       1       3       2       1       1       3       2       1       1
       3       2       1       1       3       2       1       1       3       2
       1       1       3       2       1       1       3       2       1       1
       3       2       1       1       3       2       1       1       3       2
       1       1       3       2       1       1       3       2       1       1
       3       2       1       1       3       2       1       1       3       2
       1       1       3       2       1       1       3       2       1       1
       3       2       1       1       3       2       1       1       3       2
       1       1       3       2       1       1       3       2       1       1
       3       2       1       1       3       2       1       1       3       2
       1       1       3       2       1       1       3       2       1       1
       3       2       1       1       3       2       1       1       3       2
       1       1       3       2       1       1       3       2       1       1
       3       2       1       1       3       2       1       1       3       2
       1       1       3       2       1       1       3       2       1       1
       3       2       1       1       3       2       1       1       3       2
       1       1       3       2       1       1       3       2       1       1
       3       2       1       1       3       2       1       1       3       2
       1       1       3       2       1       1       3       2       1       1
       3       2       1       1       3       2       1       1       3       2
       1       1       3       2       1       1       3       2       1       1
       3       2       1       1       3       2       1       1       3       2
       1       1       3       2       1       1       3       2       1       1
       3       2       1       1       3       2       1       1       3       2
       1       1       3       2       1       1       3       2       1       1
       3       2       1       1       3       2       1       1       3       2
       1       1       3       2       1       1       3       2       1       1
       3       2       1       1       3       2       1       1       3       2
       1       1       3       2       1       1       3       2       1       1
       3       2       1       1       3       2       1       1       3       2
       1       1       3       2       1       1       3       2       1       1
       3       2       1       1       3       2       1       1       3       2
       1       1       3       2       1       1       3       2       1       1
       3       2       1       1       3       2       1       1       3       2
       1       1       3       2       1       1       3       2       1       1
       3       2       1       1       3       2       1       1       3       2
       1       1       3       2       1       1       3       2       1       1
       3       2       1       1       3       2       1       1       3       2
       1       1       3       2       1       1       3       2       1       1
       3       2       1       1       3       2       1       1       3       2
       1       1       3       2       1       1       3       2       1       1
       3       2       1       1       3       2       1       1       3       2
       1       1       3       2       1       1       3       2       1       1
       3       2       1       1       3       2       1       1       3       2
       1       1       3       2       1       1       3       2       1       1
       3       2       1       1       3       2       1       1       3       2
       1       1       3       2       1       1       3       2       1       1
       3       2       1       1       3       2       1       1       3       2
       1       1       3       2       1       1       3       2       1       1
       3       2       1       1       3       2       1       1       3       2
       1       1       3       2       1       1       3       2       1       1
       3       2       1       1       3       2       1       1       3       2
       1       1       3       2       1       1       3       2       1       1
       3       2       1       1       3       2       1       1       3       2
       1       1       3       2       1       1       3       2       1       1
       3       2       1       1       3       2       1       1       3       2
       1       1       3       2       1       1       3       2       1       1
       3       2       1       1       3       2       1       1       3       2
       1       1       3       2       1       1       3       2       1       1
       3       2       1       1       3       2       1       1       3       2
       1       1       3       2       1       1       3       2       1       1
       3       2       1       1       3       2       1       1       3       2
       1       1       3       2       1       1       3       2       1       1
       3       2       1       1       3       2       1       1       3       2
       1       1       3       2       1       1       3       2       1       1
       3       2       1       1       3       2       1       1       3       2
       1       1       3       2       1       1       3       2       1       1
       3       2       1       1       3       2       1       1       3       2
       1       1       3       2       1       1       3       2       1       1
       3       2       1       1       3       2       1       1       3       2
       1       1       3       2       1       1       3       2       1       1
       3       2       1       1       3       2       1       1       3       2
       1       1       3       2       1       1       3       2       1       1
       3       2       1       1       3       2       1       1       3       2
       1       1       3       2       1       1       3       2       1       1
       3       2       1       1       3       2       1       1       3       2
       1       1       3       2       1       1       3       2       1       1
       3       2       1       1       3       2       1       1       3       2
       1       1       3       2       1       1       3       2       1       1
       3       2       1       1       3       2       1       1       3       2
       1       1       3       2       1       1       3       2       1       1
       3       2       1       1       3       2       1       1       3       2
       1       1       3       2       1       1       3       2       1       1
       3       2       1       1       3       2       1       1       3       2
       1       1       3       2       1       1       3       2       1       1
       3       2       1       1       3       2       1       1       3       2
       1       1       3       2       1       1       3       2       1       1
       3       2       1       1       3       2       1       1       3       2
       1       1       3       2       1       1       3       2       1       1
       3       2       1       1       3       2       1       1       3       2
       1       1       3       2       1       1       3       2       1       1
       3       2       1       1       3       2       1       1       3       2
       1       1       3       2       1       1       3       2       1       1
       3       2       1       1       3       2       1       1       3       2
       1       1       3       2       1       1       3       2       1       1
       3       2       1       1       3       2       1       1       3       2
       1       1       3       2       1       1       3       2       1       1
       3       2       1       1       3       2       1       1       3       2
       1       1       3       2       1       1       3       2       1       1
       3       2       1       1       3       2       1       1       3       2
       1       1       3       2       1       1       3       2       1       1
       3       2       1       1       3       2       1       1       3       2
       1       1       3       2       1       1       3       2       1       1
       3       2       1       1       3       2       1       1       3       2
       1       1       3       2       1       1       3       2       1       1
       3       2       1       1       3       2       1       1       3       2
       1       1       3       2       1       1       3       2       1       1
       3       2       1       1       3       2       1       1       3       2
       1       1       3       2       1       1       3       2       1       1
       3       2       1       1       3       2       1       1       3       2
       1       1       3       2       1       1       3       2       1       1
       3       2       1       1       3       2       1       1       3       2
       1       1       3       2       1       1       3       2       1       1
       3       2       1       1       3       2       1       1       3       2
       1       1       3       2       1       1       3       2       1       1
       3       2       1       1       3       2       1       1       3       2
       1       1       3       2       1       1       3       2       1       1
       3       2       1       1       3       2       1       1       3       2
       1       1       3       2       1       1       3       2       1       1
       3       2       1       1       3       2       1       1       3       2
       1       1       3       2       1       1       3       2       1       1
       3       2       1       1       3       2       1       1       3       2
       1       1       3       2       1       1       3       2       1       1
       3       2       1       1       3       2       1       1       3       2
       1       1       3       2       1       1       3       2       1       1
       3       2       1       1       3       2       1       1       3       2
       1       1       3       2       1       1       3       2       1       1
       3       2       1       1       3       2       1       1       3       2
       1       1       3       2       1       1       3       2       1       1
       3       2       1       1       3       2       1       1       3       2
       1       1       3       2       1       1       3       2       1       1
       3       2       1       1       3       2       1       1       3       2
       1       1       3       2       1       1       3       2       1       1
       3       2       1       1       3       2       1       1       3       2
       1       1       3       2       1       1       3       2       1       1
       3       2       1       1       3       2       1       1       3       2
       1       1       3       2       1       1       3       2       1       1
       3       2       1       1       3       2       1       1       3       2
       1       1       3       2       1       1       3       2       1       1
       3       2       1       1       3       2       1       1       3       2
       1       1       3       2       1       1       3       2       1       1
       3       2       1       1       3       2       1       1       3       2
       1       1       3       2       1       1       3       2       1       1
       3       2       1       1       3       2       1       1       3       2
       1       1       3       2       1       1       3       2       1       1
       3       2       1       1       3       2       1       1       3       2
       1       1       3       2       1       1       3       2       1       1
       3       2       1       1       3       2       1       1       3       2
       1       1       3       2       1       1       3       2       1       1
       3       2       1       1       3       2       1       1       3       2
       1       1       3       2       1       1       3       2       1       1
       3       2       1       1       3       2       1       1       3       2
       1       1       3       2       1       1       3       2       1       1
       3       2       1       1       3       2       1       1       3       2
       1       1       3       2       1       1       3       2       1       1
       3       2       1       1       3       2       1       1       3       2
       1       1       3       2       1       1       3       2       1       1
       3       2       1       1       3       2       1       1       3       2
       1       1       3       2       1       1       3       2       1       1
       3       2       1       1       3       2       1       1       3       2
       1       1       3       2       1       1       3       2       1       1
       3       2       1       1       3       2       1       1       3       2
       1       1       3       2       1       1       3       2       1       1
       3       2       1       1       3       2       1       1       3       2
       1       1       3       2       1       1       3       2       1       1
       3       2       1       1       3       2       1       1       3       2
       1       1       3       2       1       1       3       2       1       1
       3       2       1       1       3       2       1       1       3       2
       1       1       3       2       1       1       3       2       1       1
       3       2       1       1       3       2       1       1       3       2
       1       1       3       2       1       1       3       2       1       1
       3       2       1       1       3       2       1       1       3       2
       1       1       3       2       1       1       3       2       1       1
       3       2       1       1       3       2       1       1       3       2
       1       1       3       2       1       1       3       2       1       1
       3       2       1       1       3       2       1       1       3       2
       1       1       3       2       1       1       3       2       1       1
       3       2       1       1       3       2       1       1       3       2
       1       1       3       2       1       1       3       2       1       1
       3       2       1       1       3       2       1       1       3       2
       1       1       3       2       1       1       3       2       1       1
       3       2       1       1       3       2       1       1       3       2
       1       1       3       2       1       1       3       2       1       1
       3       2       1       1       3       2       1       1       3       2
       1       1       3       2       1       1       3       2       1       1
       3       2       1       1       3       2       1       1       3       2
       1       1       3       2       1       1       3       2       1       1
       3       2       1       1       3       2       1       1       3       2
       1       1       3       2       1       1       3       2       1       1
       3       2       1       1       3       2       1       1       3       2
       1       1       3       2       1       1       3       2       1       1
       3       2       1       1       3       2       1       1       3       2
       1       1       3       2       1       1       3       2       1       1
       3       2       1       1       3       2       1       1       3       2
       1       1       3       2       1       1       3       2       1       1
       3       2       1       1       3       2       1       1       3       2
       1       1       3       2       1       1       3       2       1       1
       3       2       1       1       3       2       1       1       3       2
       1       1       3       2       1       1       3       2       1       1
       3       2       1       1       3       2       1       1       3       2
       1       1       3       2       1       1       3       2       1       1
       3       2       1       1       3       2       1       1       3       2
       1       1       3       2       1       1       3       2       1       1
       3       2       1       1       3       2       1       1       3       2
       1       1       3       2       1       1       3       2       1       1
       3       2       1       1       3       2       1       1       3       2
       1       1       3       2       1       1       3       2       1       1
       3       2       1       1       3       2       1       1       3       2
       1       1       3       2       1       1       3       2       1       1
       3       2       1       1       3       2       1       1       3       2
       1       1       3       2       1       1       3       2       1       1
       3       2       1       1       3       2       1       1       3       2
       1       1       3       2       1       1       3       2       1       1
       3       2       1       1       3       2       1       1       3       2
       1       1       3       2       1       1       3       2       1       1
       3       2       1       1       3       2       1       1       3       2
       1       1       3       2       1       1       3       2       1       1
       3       2       1       1       3       2       1       1       3       2
       1       1       3       2       1       1       3       2       1       1
       3       2       1       1       3       2       1       1       3       2
       1       1       3       2       1       1       3       2       1       1
       3       2       1       1       3       2       1       1       3       2
       1       1       3       2       1       1       3       2       1       1
       3       2       1       1       3       2       1       1       3       2
       1       1       3       2       1       1       3       2       1       1
       3       2       1       1       3       2       1       1       3       2
       1       1       3       2       1       1       3       2       1       1
       3       2       1       1       3       2       1       1       3       2
       1       1       3       2       1       1       3       2       1       1
       3       2       1       1       3       2       1       1       3       2
       1       1       3       2       1       1       3       2       1       1
       3       2       1       1       3       2       1       1       3       2
       1       1       3       2       1       1       3       2       1       1
       3       2       1       1       3       2       1       1       3       2
       1       1       3       2       1       1       3       2       1       1
       3       2       1       1       3       2       1       1       3       2
       1       1       3       2       1       1       3       2       1       1
       3       2       1       1       3       2       1       1       3       2
       1       1       3       2       1       1       3       2       1       1
       3       2       1       1       3       2       1       1       3       2
       1       1       3       2       1       1       3       2       1       1
       3       2       1       1       3       2       1       1       3       2
       1       1       3       2       1       1       3       2       1       1
       3       2       1       1       3       2       1       1       3       2
       1       1       3       2       1       1       3       2       1       1
       3       2       1       1       3       2       1       1       3       2
       1       1       3       2       1       1       3       2       1       1
       3       2       1       1       3       2       1       1       3       2
       1       1       3       2       1       1       3       2       1       1
       3       2       1       1       3       2       1       1       3       2
       1       1       3       2       1       1       3       2       1       1
       3       2       1       1       3       2       1       1       3       2
       1       1       3       2       1       1       3       2       1       1
       3       2       1       1       3       2       1       1       3       2
       1       1       3       2       1       1       3       2       1       1
       3       2       1       1       3       2       1       1       3       2
       1       1       3       2       1       1       3       2       1       1
       3       2       1       1       3       2       1       1       3       2
       1       1       3       2       1       1       3       2       1       1
       3       2       1       1       3       2       1       1       3       2
       1       1       3       2       1       1       3       2       1       1
       3       2       1       1       3       2       1       1       3       2
       1       1       3       2       1       1       3       2       1       1
       3       2       1       1       3       2       1       1       3       2
       1       1       3       2       1       1       3       2       1       1
       3       2       1       1       3       2       1       1       3       2
       1       1       3       2       1       1       3       2       1       1
       3       2       1       1       3       2       1       1       3       2
       1       1       3       2       1       1       3       2       1       1
       3       2       1       1       3       2       1       1       3       2
       1       1       3       2       1       1       3       2       1       1
       3       2       1       1       3       2       1       1       3       2
       1       1       3       2       1       1       3       2       1       1
       3       2       1       1       3       2       1       1       3       2
       1       1       3       2       1       1       3       2       1       1
       3       2       1       1       3       2       1       1       3       2
       1       1       3       2       1       1       3       2       1       1
       3       2       1       1       3       2       1       1       3       2
       1       1       3       2       1       1       3       2       1       1
       3       2       1       1       3       2       1       1       3       2
       1       1       3       2       1       1       3       2       1       1
       3       2       1       1       3       2       1       1       3       2
       1       1       3       2       1       1       3       2       1       1
       3       2       1       1       3       2       1       1       3       2
       1       1       3       2       1       1       3       2       1       1
       3       2       1       1       3       2       1       1       3       2
       1       1       3       2       1       1       3       2       1       1
       3       2       1       1       3       2       1       1       3       2
       1       1       3       2       1       1       3       2       1       1
       3       2       1       1       3       2       1       1       3       2
       1       1       3       2       1       1       3       2       1       1
       3       2       1       1       3       2       1       1       3       2
       1       1       3       2       1       1       3       2       1       1
       3       2       1       1       3       2       1       1       3       2
       1       1       3       2       1       1       3       2       1       1
       3       2       1       1       3       2       1       1       3       2
       1       1       3       2       1       1       3       2       1       1
       3       2       1       1       3       2       1       1       3       2
       1       1       3       2       1       1       3       2       1       1
       3       2       1       1       3       2       1       1       3       2
       1       1       3       2       1       1       3       2       1       1
       3       2       1       1       3       2       1       1       3       2
       1       1       3       2       1       1       3       2       1       1
       3       2       1       1       3       2       1       1       3       2
       1       1       3       2       1       1       3       2       1       1
       3       2       1       1       3       2       1       1       3       2
       1       1       3       2       1       1       3       2       1       1
       3       2       1       1       3       2       1       1       3       2
       1       1       3       2       1       1       3       2       1       1
       3       2       1       1       3       2       1       1       3       2
       1       1       3       2       1       1       3       2       1       1
       3       2       1       1       3       2       1       1       3       2
       1       1       3       2       1       1       3       2       1       1
       3       2       1       1       3       2       1       1       3       2
       1       1       3       2       1       1       3       2       1       1
       3       2       1       1       3       2       1       1       3       2
       1       1       3       2       1       1       3       2       1       1
       3       2       1       1       3       2       1       1       3       2
       1       1       3       2       1       1       3       2       1       1
       3       2       1       1       3       2       1       1       3       2
       1       1       3       2       1       1       3       2       1       1
       3       2       1       1       3       2       1       1       3       2
       1       1       3       2       1       1       3       2       1       1
       3       2       1       1       3       2       1       1       3       2
       1       1       3       2       1       1       3       2       1       1
       3       2       1       1       3       2       1       1       3       2
       1       1       3       2       1       1       3       2       1       1
       3       2       1       1       3       2       1       1       3       2
       1       1       3       2       1       1       3       2       1       1
       3       2       1       1       3       2       1       1       3       2
       1       1       3       2       1       1       3       2       1       1
       3       2       1       1       3       2       1       1       3       2
       1       1       3       2       1       1       3       2       1       1
       3       2       1       1       3       2       1       1       3       2
       1       1       3       2       1       1       3       2       1       1
       3       2       1       1       3       2       1       1       3       2
       1       1       3       2       1       1       3       2       1       1
       3       2       1       1       3       2       1       1       3       2
       1       1       3       2       1       1       3       2       1       1
       3       2       1       1       3       2       1       1       3       2
       1       1       3       2       1       1       3       2       1       1
       3       2       1       1       3       2       1       1       3       2
       1       1       3       2       1       1       3       2       1       1
       3       2       1       1       3       2       1       1       3       2
       1       1       3       2       1       1       3       2       1       1
       3       2       1       1       3       2       1       1       3       2
       1       1       3       2       1       1       3       2       1       1
       3       2       1       1       3       2       1       1       3       2
       1       1       3       2       1       1       3       2       1       1
       3       2       1       1       3       2       1       1       3       2
       1       1       3       2       1       1       3       2       1       1
       3       2       1       1       3       2       1       1       3       2
       1       1       3       2       1       1       3       2       1       1
       3       2       1       1       3       2       1       1       3       2
       1       1       3       2       1       1       3       2       1       1
       3       2       1       1       3       2       1       1       3       2
       1       1       3       2       1       1       3       2       1       1
       3       2       1       1       3       2       1       1       3       2
       1       1       3       2       1       1       3       2       1       1
       3       2       1       1       3       2       1       1       3       2
       1       1       3       2       1       1       3       2       1       1
       3       2       1       1       3       2       1       1       3       2
       1       1       3       2       1       1       3       2       1       1
       3       2       1       1       3       2       1       1       3       2
       1       1       3       2       1       1       3       2       1       1
       3       2       1       1       3       2       1       1       3       2
       1       1       3       2       1       1       3       2       1       1
       3       2       1       1       3       2       1       1       3       2
       1       1       3       2       1       1       3       2       1       1
       3       2       1       1       3       2       1       1       3       2
       1       1       3       2       1       1       3       2       1       1
       3       2       1       1       3       2       1       1       3       2
       1       1       3       2       1       1       3       2       1       1
       3       2       1       1       3       2       1       1       3       2
       1       1       3       2       1       1       3       2       1       1
       3       2       1       1       3       2       1       1       3       2
       1       1       3       2       1       1       3       2       1       1
       3       2       1       1       3       2       1       1       3       2
       1       1       3       2       1       1       3       2       1       1
       3       2       1       1       3       2       1       1       3       2
       1       1       3       2       1       1       3       2       1       1
       3       2       1       1       3       2       1       1       3       2
       1       1       3       2       1       1       3       2       1       1
       3       2       1       1       3       2       1       1       3       2
       1       1       3       2       1       1       3       2       1       1
       3       2       1       1       3       2       1       1       3       2
       1       1       3       2       1       1       3       2       1       1
       3       2       1       1       3       2       1       1       3       2
       1       1       3       2       1       1       3       2       1       1
       3       2       1       1       3       2       1       1       3       2
       1       1       3       2       1       1       3       2       1       1
       3       2       1       1       3       2       1       1       3       2
       1       1       3       2       1       1       3       2       1       1
       3       2       1       1       3       2       1       1       3       2
       1       1       3       2       1       1       3       2       1       1
       3       2       1       1       3       2       1       1       3       2
       1       1       3       2       1       1       3       2       1       1
       3       2       1       1       3       2       1       1       3       2
       1       1       3       2       1       1       3       2       1       1
       3       2       1       1       3       2       1       1       3       2
       1       1       3       2       1       1       3       2       1       1
       3       2       1       1       3       2       1       1       3       2
       1       1       3       2       1       1       3       2       1       1
       3       2       1       1       3       2       1       1       3       2
       1       1       3       2       1       1       3       2       1       1
       3       2       1       1       3       2       1       1       3       2
       1       1       3       2       1       1       3       2       1       1
       3       2       1       1       3       2       1       1       3       2
       1       1       3       2       1       1       3       2       1       1
       3       2       1       1       3       2       1       1       3       2
       1       1       3       2       1       1       3       2       1       1
       3       2       1       1       3       2       1       1       3       2
       1       1       3       2       1       1       3       2       1       1
       3       2       1       1       3       2       1       1       3       2
       1       1       3       2       1       1       3       2       1       1
       3       2       1       1       3       2       1       1       3       2
       1       1       3       2       1       1       3       2       1       1
       3       2       1       1       3       2       1       1       3       2
       1       1       3       2       1       1       3       2       1       1
       3       2       1       1       3       2       1       1       3       2
       1       1       3       2       1       1       3       2       1       1
       3       2       1       1       3       2       1       1       3       2
       1       1       3       2       1       1       3       2       1       1
       3       2       1       1       3       2       1       1       3       2
       1       1       3       2       1       1       3       2       1       1
       3       2       1       1       3       2       1       1       3       2
       1       1       3       2       1       1       3       2       1       1
       3       2       1       1       3       2       1       1       3       2
       1       1       3       2       1       1       3       2       1       1
       3       2       1       1       3       2       1       1       3       2
       1       1       3       2       1       1       3       2       1       1
       3       2       1       1       3       2       1       1       3       2
       1       1       3       2       1       1       3       2       1       1
       3       2       1       1       3       2       1       1       3       2
       1       1       3       2       1       1       3       2       1       1
       3       2       1       1       3       2       1       1       3       2
       1       1       3       2       1       1       3       2       1       1
       3       2       1       1       3       2       1       1       3       2
       1       1       3       2       1       1       3       2       1       1
       3       2       1       1       3       2       1       1       3       2
       1       1       3       2       1       1       3       2       1       1
       3       2       1       1       3       2       1       1       3       2
       1       1       3       2       1       1       3       2       1       1
       3       2       1       1       3       2       1       1       3       2
       1       1       3       2       1       1       3       2       1       1
       3       2       1       1       3       2       1       1       3       2
       1       1       3       2       1       1       3       2       1       1
       3       2       1       1       3       2       1       1       3       2
       1       1       3       2       1       1       3       2       1       1
       3       2       1       1       3       2       1       1       3       2
       1       1       3       2       1       1       3       2       1       1
       3       2       1       1       3       2       1       1       3       2
       1       1       3       2       1       1       3       2       1       1
       3       2       1       1       3       2       1       1       3       2
       1       1       3       2       1       1       3       2       1       1
       3       2       1       1       3       2       1       1       3       2
       1       1       3       2       1       1       3       2       1       1
       3       2       1       1       3       2       1       1       3       2
       1       1       3       2       1       1       3       2       1       1
       3       2       1       1       3       2       1       1       3       2
       1       1       3       2       1       1       3       2       1       1
       3       2       1       1       3       2       1       1       3       2
       1       1       3       2       1       1       3       2       1       1
       3       2       1       1       3       2       1       1       3       2
       1       1       3       2       1       1       3       2       1       1
       3       2       1       1       3       2       1       1       3       2
       1       1       3       2       1       1       3       2       1       1
       3       2       1       1       3       2       1       1       3       2
       1       1       3       2       1       1       3       2       1       1
       3       2       1       1       3       2       1       1       3       2
       1       1       3       2       1       1       3       2       1       1
       3       2       1       1       3       2       1       1       3       2
       1       1       3       2       1       1       3       2       1       1
       3       2       1       1       3       2       1       1       3       2
       1       1       3       2       1       1       3       2       1       1
       3       2       1       1       3       2       1       1       3       2
       1       1       3       2       1       1       3       2       1       1
       3       2       1       1       3       2       1       1       3       2
       1       1       3       2       1       1       3       2       1       1
       3       2       1       1       3       2       1       1       3       2
       1       1       3       2       1       1       3       2       1       1
       3       2       1       1       3       2       1       1       3       2
       1       1       3       2       1       1       3       2       1       1
       3       2       1       1       3       2       1       1       3       2
       1       1       3       2       1       1       3       2       1       1
       3       2       1       1       3       2       1       1       3       2
       1       1       3       2       1       1       3       2       1       1
       3       2       1       1       3       2       1       1       3       2
       1       1       3       2       1       1       3       2       1       1
       3       2       1       1       3       2       1       1       3       2
       1       1       3       2       1       1       3       2       1       1
       3       2       1       1       3       2       1       1       3       2
       1       1       3       2       1       1       3       2       1       1
       3       2       1       1       3       2       1       1       3       2
       1       1       3       2       1       1       3       2       1       1
       3       2       1       1       3       2       1       1       3       2
       1       1       3       2       1       1       3       2       1       1
       3       2       1       1       3       2       1       1       3       2
       1       1       3       2       1       1       3       2       1       1
       3       2       1       1       3       2       1       1       3       2
       1       1       3       2       1       1       3       2       1       1
       3       2       1       1       3       2       1       1       3       2
       1       1       3       2       1       1       3       2       1       1
       3       2       1       1       3       2       1       1       3       2
       1       1       3       2       1       1       3       2       1       1
       3       2       1       1       3       2       1       1       3       2
       1       1       3       2       1       1       3       2       1       1
       3       2       1       1       3       2       1       1       3       2
       1       1       3       2       1       1       3       2       1       1
       3       2       1       1       3       2       1       1       3       2
       1       1       3       2       1       1       3       2       1       1
       3       2       1       1       3       2       1       1       3       2
       1       1       3       2       1       1       3       2       1       1
       3       2       1       1       3       2       1       1       3       2
       1       1       3       2       1       1       3       2       1       1
       3       2       1       1       3       2       1       1       3       2
       1       1       3       2       1       1       3       2       1       1
       3       2       1       1       3       2       1       1       3       2
       1       1       3       2       1       1       3       2       1       1
       3       2       1       1       3       2       1       1       3       2
       1       1       3       2       1       1       3       2       1       1
       3       2       1       1       3       2       1       1       3       2
       1       1       3       2       1       1       3       2       1       1
       3       2       1       1       3       2       1       1       3       2
       1       1       3       2       1       1       3       2       1       1
       3       2       1       1       3       2       1       1       3       2
       1       1       3       2       1       1       3       2       1       1
       3       2       1       1       3       2       1       1       3       2
       1       1       3       2       1       1       3       2       1       1
       3       2       1       1       3       2       1       1       3       2
       1       1       3       2       1       1       3       2       1       1
       3       2       1       1       3       2       1       1       3       2
       1       1       3       2       1       1       3       2       1       1
       3       2       1       1       3       2       1       1       3       2
       1       1       3       2       1       1       3       2       1       1
       3       2       1       1       3       2       1       1       3       2
       1       1       3       2       1       1       3       2       1       1
       3       2       1       1       3       2       1       1       3       2
       1       1       3       2       1       1       3       2       1       1
       3       2       1       1       3       2       1       1       3       2
       1       1       3       2       1       1       3       2       1       1
       3       2       1       1       3       2       1       1       3       2
       1       1       3       2       1       1       3       2       1       1
       3       2       1       1       3       2       1       1       3       2
       1       1       3       2       1       1       3       2       1       1
       3       2       1       1       3       2       1       1       3       2
       1       1       3       2       1       1       3       2       1       1
       3       2       1       1       3       2       1       1       3       2
       1       1       3       2       1       1       3       2       1       1
       3       2       1       1       3       2       1       1       3       2
       1       1       3       2       1       1       3       2       1       1
       3       2       1       1       3       2       1       1       3       2
       1       1       3       2       1       1       3       2       1       1
       3       2       1       1       3       2       1       1       3       2
       1       1       3       2       1       1       3       2       1       1
       3       2       1       1       3       2       1       1       3       2
       1       1       3       2       1       1       3       2       1       1
       3       2       1       1       3       2       1       1       3       2
       1       1       3       2       1       1       3       2       1       1
       3       2       1       1       3       2       1       1       3       2
       1       1       3       2       1       1       3       2       1       1
       3       2       1       1       3       2       1       1       3       2
       1       1       3       2       1       1       3       2       1       1
       3       2       1       1       3       2       1       1       3       2
       1       1       3       2       1       1       3       2       1       1
       3       2       1       1       3       2       1       1       3       2
       1       1       3       2       1       1       3       2       1       1
       3       2       1       1       3       2       1       1       3       2
       1       1       3       2       1       1       3       2       1       1
       3       2       1       1       3       2       1       1       3       2
       1       1       3       2       1       1       3       2       1       1
       3       2       1       1       3       2       1       1       3       2
       1       1       3       2       1       1       3       2       1       1
       3       2       1       1       3       2       1       1       3       2
       1       1       3       2       1       1       3       2       1       1
       3       2       1       1       3       2       1       1       3       2
       1       1       3       2       1       1       3       2       1       1
       3       2       1       1       3       2       1       1       3       2
       1       1       3       2       1       1       3       2       1       1
       3       2       1       1       3       2       1       1       3       2
       1       1       3       2       1       1       3       2       1       1
       3       2       1       1       3       2       1       1       3       2
       1       1       3       2       1       1       3       2       1       1
       3       2       1       1       3       2       1       1       3       2
       1       1       3       2       1       1       3       2       1       1
       3       2       1       1       3       2       1       1       3       2
       1       1       3       2       1       1       3       2       1       1
       3       2       1       1       3       2       1       1       3       2
       1       1       3       2       1       1       3       2       1       1
       3       2       1       1       3       2       1       1       3       2
       1       1       3       2       1       1       3       2       1       1
       3       2       1       1       3       2       1       1       3       2
       1       1       3       2       1       1       3       2       1       1
       3       2       1       1       3       2       1       1       3       2
       1       1       3       2       1       1       3       2       1       1
       3       2       1       1       3       2       1       1       3       2
       1       1       3       2       1       1       3       2       1       1
       3       2       1       1       3       2       1       1       3       2
       1       1       3       2       1       1       3       2       1       1
       3       2       1       1       3       2       1       1       3       2
       1       1       3       2       1       1       3       2       1       1
       3       2       1       1       3       2       1       1       3       2
       1       1       3       2       1       1       3       2       1       1
       3       2       1       1       3       2       1       1       3       2
       1       1       3       2       1       1       3       2       1       1
       3       2       1       1       3       2       1       1       3       2
       1       1       3       2       1       1       3       2       1       1
       3       2       1       1       3       2       1       1       3       2
       1       1       3       2       1       1       3       2       1       1
       3       2       1       1       3       2       1       1       3       2
       1       1       3       2       1       1       3       2       1       1
       3       2       1       1       3       2       1       1       3       2
       1       1       3       2       1       1       3       2       1       1
       3       2       1       1       3       2       1       1       3       2
       1       1       3       2       1       1       3       2       1       1
       3       2       1       1       3       2       1       1       3       2
       1       1       3       2       1       1       3       2       1       1
       3       2       1       1       3       2       1       1       3       2
       1       1       3       2       1       1       3       2       1       1
       3       2       1       1       3       2       1       1       3       2
       1       1       3       2       1       1       3       2       1       1
       3       2       1       1       3       2       1       1       3       2
       1       1       3       2       1       1       3       2       1       1
       3       2       1       1       3       2       1       1       3       2
       1       1       3       2       1       1       3       2       1       1
       3       2       1       1       3       2       1       1       3       2
       1       1       3       2       1       1       3       2       1       1
       3       2       1       1       3       2       1       1       3       2
       1       1       3       2       1       1       3       2       1       1
       3       2       1       1       3       2       1       1       3       2
       1       1       3       2       1       1       3       2       1       1
       3       2       1       1       3       2       1       1       3       2
       1       1       3       2       1       1       3       2       1       1
       3       2       1       1       3       2       1       1       3       2
       1       1       3       2       1       1       3       2       1       1
       3       2       1       1       3       2       1       1       3       2
       1       1       3       2       1       1       3       2       1       1
       3       2       1       1       3       2       1       1       3       2
       1       1       3       2       1       1       3       2       1       1
       3       2       1       1       3       2       1       1       3       2
       1       1       3       2       1       1       3       2       1       1
       3       2       1       1       3       2       1       1       3       2
       1       1       3       2       1       1       3       2       1       1
       3       2       1       1       3       2       1       1       3       2
       1       1       3       2       1       1       3       2       1       1
       3       2       1       1       3       2       1       1       3       2
       1       1       3       2       1       1       3       2       1       1
       3       2       1       1       3       2       1       1       3       2
       1       1       3       2       1       1       3       2       1       1
       3       2       1       1       3       2       1       1       3       2
       1       1       3       2       1       1       3       2       1       1
       3       2       1       1       3       2       1       1       3       2
       1       1       3       2       1       1       3       2       1       1
       3       2       1       1       3       2       1       1       3       2
       1       1       3       2       1       1       3       2       1       1
       3       2       1       1       3       2       1       1       3       2
       1       1       3       2       1       1       3       2       1       1
       3       2       1       1       3       2       1       1       3       2
       1       1       3       2       1       1       3       2       1       1
       3       2       1       1       3       2       1       1       3       2
       1       1       3       2       1       1       3       2       1       1
       3       2       1       1       3       2       1       1       3       2
       1       1       3       2       1       1       3       2       1       1
       3       2       1       1       3       2       1       1       3       2
       1       1       3       2       1       1       3       2       1       1
       3       2       1       1       3       2       1       1       3       2
       1       1       3       2       1       1       3       2       1       1
       3       2       1       1       3       2       1       1       3       2
       1       1       3       2       1       1       3       2       1       1
       3       2       1       1       3       2       1       1       3       2
       1       1       3       2       1       1       3       2       1       1
       3       2       1       1       3       2       1       1       3       2
       1       1       3       2       1       1       3       2       1       1
       3       2       1       1       3       2       1       1       3       2
       1       1       3       2       1       1       3       2       1       1
       3       2       1       1       3       2       1       1       3       2
       1       1       3       2       1       1       3       2       1       1
       3       2       1       1       3       2       1       1       3       2
       1       1       3       2       1       1       3       2       1       1
       3       2       1       1       3       2       1       1       3       2
       1       1       3       2       1       1       3       2       1       1
       3       2       1       1       3       2       1       1       3       2
       1       1       3       2       1       1       3       2       1       1
       3       2       1       1       3       2       1       1       3       2
       1       1       3       2       1       1       3       2       1       1
       3       2       1       1       3       2       1       1       3       2
       1       1       3       2       1       1       3       2       1       1
       3       2       1       1       3       2       1       1       3       2
       1       1       3       2       1       1       3       2       1       1
       3       2       1       1       3       2       1       1       3       2
       1       1       3       2       1       1       3       2       1       1
       3       2       1       1       3       2       1       1       3       2
       1       1       3       2       1       1       3       2       1       1
       3       2       1       1       3       2       1       1       3       2
       1       1       3       2       1       1       3       2       1       1
       3       2       1       1       3       2       1       1       3       2
       1       1       3       2       1       1       3       2       1       1
       3       2       1       1       3       2       1       1       3       2
       1       1       3       2       1       1       3       2       1       1
       3       2       1       1       3       2       1       1       3       2
       1       1       3       2       1       1       3       2       1       1
       3       2       1       1       3       2       1       1       3       2
       1       1       3       2       1       1       3       2       1       1
       3       2       1       1       3       2       1       1       3       2
       1       1       3       2       1       1       3       2       1       1
       3       2       1       1       3       2       1       1       3       2
       1       1       3       2       1       1       3       2       1       1
       3       2       1       1       3       2       1       1       3       2
       1       1       3       2       1       1       3       2       1       1
       3       2       1       1       3       2       1       1       3       2
       1       1       3       2       1       1       3       2       1       1
       3       2       1       1       3       2       1       1       3       2
       1       1       3       2       1       1       3       2       1       1
       3       2       1       1       3       2       1       1       3       2
       1       1       3       2       1       1       3       2       1       1
       3       2       1       1       3       2       1       1       3       2
       1       1       3       2       1       1       3       2       1       1
       3       2       1       1       3       2       1       1       3       2
       1       1       3       2       1       1       3       2       1       1
       3       2       1       1       3       2       1       1       3       2
       1       1       3       2       1       1       3       2       1       1
       3       2       1       1       3       2       1       1       3       2
       1       1       3       2       1       1       3       2       1       1
       3       2       1       1       3       2       1       1       3       2
       1       1       3       2       1       1       3       2       1       1
       3       2       1       1       3       2       1       1       3       2
       1       1       3       2       1       1       3       2       1       1
       3       2       1       1       3       2       1       1       3       2
       1       1       3       2       1       1       3       2       1       1
       3       2       1       1       3       2       1       1       3       2
       1       1       3       2       1       1       3       2       1       1
       3       2       1       1       3       2       1       1       3       2
       1       1       3       2       1       1       3       2       1       1
       3       2       1       1       3       2       1       1       3       2
       1       1       3       2       1       1       3       2       1       1
       3       2       1       1       3       2       1       1       3       2
       1       1       3       2       1       1       3       2       1       1
       3       2       1       1       3       2       1       1       3       2
       1       1       3       2       1       1       3       2       1       1
       3       2       1       1       3       2       1       1       3       2
       1       1       3       2       1       1       3       2       1       1
       3       2       1       1       3       2       1       1       3       2
       1       1       3       2       1       1       3       2       1       1
       3       2       1       1       3       2       1       1       3       2
       1       1       3       2       1       1       3       2       1       1
       3       2       1       1       3       2       1       1       3       2
       1       1       3       2       1       1       3       2       1       1
       3       2       1       1       3       2       1       1       3       2
       1       1       3       2       1       1       3       2       1       1
       3       2       1       1       3       2       1       1       3       2
       1       1       3       2       1       1       3       2       1       1
       3       2       1       1       3       2       1       1       3       2
       1       1       3       2       1       1       3       2       1       1
       3       2       1       1       3       2       1       1       3       2
       1       1       3       2       1       1       3       2       1       1
       3       2       1       1       3       2       1       1       3       2
       1       1       3       2       1       1       3       2       1       1
       3       2       1       1       3       2       1       1       3       2
       1       1       3       2       1       1       3       2       1       1
       3       2       1       1       3       2       1       1       3       2
       1       1       3       2       1       1       3       2       1       1
       3       2       1       1       3       2       1       1       3       2
       1       1       3       2       1       1       3       2       1       1
       3       2       1       1       3       2       1       1       3       2
       1       1       3       2       1       1       3       2       1       1
       3       2       1       1       3       2       1       1       3       2
       1       1       3       2       1       1       3       2       1       1
       3       2       1       1       3       2       1       1       3       2
       1       1       3       2       1       1       3       2       1       1
       3       2       1       1       3       2       1       1       3       2
       1       1       3       2       1       1       3       2       1       1
       3       2       1       1       3       2       1       1       3       2
       1       1       3       2       1       1       3       2       1       1
       3       2       1       1       3       2       1       1       3       2
       1       1       3       2       1       1       3       2       1       1
       3       2       1       1       3       2       1       1       3       2
       1       1       3       2       1       1       3       2       1       1
       3       2       1       1       3       2       1       1       3       2
       1       1       3       2       1       1       3       2       1       1
       3       2       1       1       3       2       1       1       3       2
       1       1       3       2       1       1       3       2       1       1
       3       2       1       1       3       2       1       1       3       2
       1       1       3       2       1       1       3       2       1       1
       3       2       1       1       3       2       1       1       3       2
       1       1       3       2       1       1       3       2       1       1
       3       2       1       1       3       2       1       1       3       2
       1       1       3       2       1       1       3       2       1       1
       3       2       1       1       3       2       1       1       3       2
       1       1       3       2       1       1       3       2       1       1
       3       2       1       1       3       2       1       1       3       2
       1       1       3       2       1       1       3       2       1       1
       3       2       1       1       3       2       1       1       3       2
       1       1       3       2       1       1       3       2       1       1
       3       2       1       1       3       2       1       1       3       2
       1       1       3       2       1       1       3       2       1       1
       3       2       1       1       3       2       1       1       3       2
       1       1       3       2       1       1       3       2       1       1
       3       2       1       1       3       2       1       1       3       2
       1       1       3       2       1       1       3       2       1       1
       3       2       1       1       3       2       1       1       3       2
       1       1       3       2       1       1       3       2       1       1
       3       2       1       1       3       2       1       1       3       2
       1       1       3       2       1       1       3       2       1       1
       3       2       1       1       3       2       1       1       3       2
       1       1       3       2       1       1       3       2       1       1
       3       2       1       1       3       2       1       1       3       2
       1       1       3       2       1       1       3       2       1       1
       3       2       1       1       3       2       1       1       3       2
       1       1       3       2       1       1       3       2       1       1
       3       2       1       1       3       2       1       1       3       2
       1       1       3       2       1       1       3       2       1       1
       3       2       1       1       3       2       1       1       3       2
       1       1       3       2       1       1       3       2       1       1
       3       2       1       1       3       2       1       1       3       2
       1       1       3       2       1       1       3       2       1       1
       3       2       1       1       3       2       1       1       3       2
       1       1       3       2       1       1       3       2       1       1
       3       2       1       1       3       2       1       1       3       2
       1       1       3       2       1       1       3       2       1       1
       3       2       1       1       3       2       1       1       3       2
       1       1       3       2       1       1       3       2       1       1
       3       2       1       1       3       2       1       1       3       2
       1       1       3       2       1       1       3       2       1       1
       3       2       1       1       3       2       1       1       3       2
       1       1       3       2       1       1       3       2       1       1
       3       2       1       1       3       2       1       1       3       2
       1       1       3       2       1       1       3       2       1       1
       3       2       1       1       3       2       1       1       3       2
       1       1       3       2       1       1       3       2       1       1
       3       2       1       1       3       2       1       1       3       2
       1       1       3       2       1       1       3       2       1       1
       3       2       1       1       3       2       1       1       3       2
       1       1       3       2       1       1       3       2       1       1
       3       2       1       1       3       2       1       1       3       2
       1       1       3       2       1       1       3       2       1       1
       3       2       1       1       3       2       1       1       3       2
       1       1       3       2       1       1       3       2       1       1
       3       2       1       1       3       2       1       1       3       2
       1       1       3       2       1       1       3       2       1       1
       3       2       1       1       3       2       1       1       3       2
       1       1       3       2       1       1       3       2       1       1
       3       2       1       1       3       2       1       1       3       2
       1       1       3       2       1       1       3       2       1       1
       3       2       1       1       3       2       1       1       3       2
       1       1       3       2       1       1       3       2       1       1
       3       2       1       1       3       2       1       1       3       2
       1       1       3       2       1       1       3       2       1       1
       3       2       1       1       3       2       1       1       3       2
       1       1       3       2       1       1       3       2       1       1
       3       2       1       1       3       2       1       1       3       2
       1       1       3       2       1       1       3       2       1       1
       3       2       1       1       3       2       1       1       3       2
       1       1       3       2       1       1       3       2       1       1
       3       2       1       1       3       2       1       1       3       2
       1       1       3       2       1       1       3       2       1       1
       3       2       1       1       3       2       1       1       3       2
       1       1       3       2       1       1       3       2       1       1
       3       2       1       1       3       2       1       1       3       2
       1       1       3       2       1       1       3       2       1       1
       3       2       1       1       3       2       1       1       3       2
       1       1       3       2       1       1       3       2       1       1
       3       2       1       1       3       2       1       1       3       2
       1       1       3       2       1       1       3       2       1       1
       3       2       1       1       3       2       1       1       3       2
       1       1       3       2       1       1       3       2       1       1
       3       2       1       1       3       2       1       1       3       2
       1       1       3       2       1       1       3       2       1       1
       3       2       1       1       3       2       1       1       3       2
       1       1       3       2       1       1       3       2       1       1
       3       2       1       1       3       2       1       1       3       2
       1       1       3       2       1       1       3       2       1       1
       3       2       1       1       3       2       1       1       3       2
       1       1       3       2       1       1       3       2       1       1
       3       2       1       1       3       2       1       1       3       2
       1       1       3       2       1       1       3       2       1       1
       3       2       1       1       3       2       1       1       3       2
       1       1       3       2       1       1       3       2       1       1
       3       2       1       1       3       2       1       1       3       2
       1       1       3       2       1       1       3       2       1       1
       3       2       1       1       3       2       1       1       3       2
       1       1       3       2       1       1       3       2       1       1
       3       2       1       1       3       2       1       1       3       2
       1       1       3       2       1       1       3       2       1       1
       3       2       1       1       3       2       1       1       3       2
       1       1       3       2       1       1       3       2       1       1
       3       2       1       1       3       2       1       1       3       2
       1       1       3       2       1       1       3       2       1       1
       3       2       1       1       3       2       1       1       3       2
       1       1       3       2       1       1       3       2       1       1
       3       2       1       1       3       2       1       1       3       2
       1       1       3       2       1       1       3       2       1       1
       3       2       1       1       3       2       1       1       3       2
       1       1       3       2       1       1       3       2       1       1
       3       2       1       1       3       2       1       1       3       2
       1       1       3       2       1       1       3       2       1       1
       3       2       1       1       3       2       1       1       3       2
       1       1       3       2       1       1       3       2       1       1
       3       2       1       1       3       2       1       1       3       2
       1       1       3       2       1       1       3       2       1       1
       3       2       1       1       3       2       1       1       3       2
       1       1       3       2       1       1       3       2       1       1
       3       2       1       1       3       2       1       1       3       2
       1       1       3       2       1       1       3       2       1       1
       3       2       1       1       3       2       1       1       3       2
       1       1       3       2       1       1       3       2       1       1
       3       2       1       1       3       2       1       1       3       2
       1       1       3       2       1       1       3       2       1       1
       3       2       1       1       3       2       1       1       3       2
       1       1       3       2       1       1       3       2       1       1
       3       2       1       1       3       2       1       1       3       2
       1       1       3       2       1       1       3       2       1       1
       3       2       1       1       3       2       1       1       3       2
       1       1       3       2       1       1       3       2       1       1
       3       2       1       1       3       2       1       1       3       2
       1       1       3       2       1       1       3       2       1       1
       3       2       1       1       3       2       1       1       3       2
       1       1       3       2       1       1       3       2       1       1
       3       2       1       1       3       2       1       1       3       2
       1       1       3       2       1       1       3       2       1       1
       3       2       1       1       3       2       1       1       3       2
       1       1       3       2       1       1       3       2       1       1
       3       2       1       1       3       2       1       1       3       2
       1       1       3       2       1       1       3       2       1       1
       3       2       1       1       3       2       1       1       3       2
       1       1       3       2       1       1       3       2       1       1
       3       2       1       1       3       2       1       1       3       2
       1       1       3       2       1       1       3       2       1       1
       3       2       1       1       3       2       1       1       3       2
       1       1       3       2       1       1       3       2       1       1
       3       2       1       1       3       2       1       1       3       2
       1       1       3       2       1       1       3       2       1       1
       3       2       1       1       3       2       1       1       3       2
       1       1       3       2       1       1       3       2       1       1
       3       2       1       1       3       2       1       1       3       2
       1       1       3       2       1       1       3       2       1       1
       3       2       1       1       3       2       1       1       3       2
       1       1       3       2       1       1       3       2       1       1
       3       2       1       1       3       2       1       1       3       2
       1       1       3       2       1       1       3       2       1       1
       3       2       1       1       3       2       1       1       3       2
       1       1       3       2       1       1       3       2       1       1
       3       2       1       1       3       2       1       1       3       2
       1       1       3       2       1       1       3       2       1       1
       3       2       1       1       3       2       1       1       3       2
       1       1       3       2       1       1       3       2       1       1
       3       2       1       1       3       2       1       1       3       2
       1       1       3       2       1       1       3       2       1       1
       3       2       1       1       3       2       1       1       3       2
       1       1       3       2       1       1       3       2       1       1
       3       2       1       1       3       2       1       1       3       2
       1       1       3       2       1       1       3       2       1       1
       3       2       1       1       3       2       1       1       3       2
       1       1       3       2       1       1       3       2       1       1
       3       2       1       1       3       2       1       1       3       2
       1       1       3       2       1       1       3       2       1       1
       3       2       1       1       3       2       1       1       3       2
       1       1       3       2       1       1       3       2       1       1
       3       2       1       1       3       2       1       1       3       2
       1       1       3       2       1       1       3       2       1       1
       3       2       1       1       3       2       1       1       3       2
       1       1       3       2       1       1       3       2       1       1
       3       2       1       1       3       2       1       1       3       2
       1       1       3       2       1       1       3       2       1       1
       3       2       1       1       3       2       1       1       3       2
       1       1       3       2       1       1       3       2       1       1
       3       2       1       1       3       2       1       1       3       2
       1       1       3       2       1       1       3       2       1       1
       3       2       1       1       3       2       1       1       3       2
       1       1       3       2       1       1       3       2       1       1
       3       2       1       1       3       2       1       1       3       2
       1       1       3       2       1       1       3       2       1       1
       3       2       1       1       3       2       1       1       3       2
       1       1       3       2       1       1       3       2       1       1
       3       2       1       1       3       2       1       1       3       2
       1       1       3       2       1       1       3       2       1       1
       3       2       1       1       3       2       1       1       3       2
       1       1       3       2       1       1       3       2       1       1
       3       2       1       1       3       2       1       1       3       2
       1       1       3       2       1       1       3       2       1       1
       3       2       1       1       3       2       1       1       3       2
       1       1       3       2       1       1       3       2       1       1
       3       2       1       1       3       2       1       1       3       2
       1       1       3       2       1       1       3       2       1       1
       3       2       1       1       3       2       1       1       3       2
       1       1       3       2       1       1       3       2       1       1
       3       2       1       1       3       2       1       1       3       2
       1       1       3       2       1       1       3       2       1       1
       3       2       1       1       3       2       1       1       3       2
       1       1       3       2       1       1       3       2       1       1
       3       2       1       1       3       2       1       1       3       2
       1       1       3       2       1       1       3       2       1       1
       3       2       1       1       3       2       1       1       3       2
       1       1       3       2       1       1       3       2       1       1
       3       2       1       1       3       2       1       1       3       2
       1       1       3       2       1       1       3       2       1       1
       3       2       1       1       3       2       1       1       3       2
       1       1       3       2       1       1       3       2       1       1
       3       2       1       1       3       2       1       1       3       2
       1       1       3       2       1       1       3       2       1       1
       3       2       1       1       3       2       1       1       3       2
       1       1       3       2       1       1       3       2       1       1
       3       2       1       1       3       2       1       1       3       2
       1       1       3       2       1       1       3       2       1       1
       3       2       1       1       3       2       1       1       3       2
       1       1       3       2       1       1       3       2       1       1
       3       2       1       1       3       2       1       1       3       2
       1       1       3       2       1       1       3       2       1       1
       3       2       1       1       3       2       1       1       3       2
       1       1       3       2       1       1       3       2       1       1
       3       2       1       1       3       2       1       1       3       2
       1       1       3       2       1       1       3       2       1       1
       3       2       1       1       3       2       1       1       3       2
       1       1       3       2       1       1       3       2       1       1
       3       2       1       1       3       2       1       1       3       2
       1       1       3       2       1       1       3       2       1       1
       3       2       1       1       3       2       1       1       3       2
       1       1       3       2       1       1       3       2       1       1
       3       2       1       1       3       2       1       1       3       2
       1       1       3       2       1       1       3       2       1       1
       3       2       1       1       3       2       1       1       3       2
       1       1       3       2       1       1       3       2       1       1
       3       2       1       1       3       2       1       1       3       2
       1       1       3       2       1       1       3       2       1       1
       3       2       1       1       3       2       1       1       3       2
       1       1       3       2       1       1       3       2       1       1
       3       2       1       1       3       2       1       1       3       2
       1       1       3       2       1       1       3       2       1       1
       3       2       1       1       3       2       1       1       3       2
       1       1       3       2       1       1       3       2       1       1
       3       2       1       1       3       2       1       1       3       2
       1       1       3       2       1       1       3       2       1       1
       3       2       1       1       3       2       1       1       3       2
       1       1       3       2       1       1       3       2       1       1
       3       2       1       1       3       2       1       1       3       2
       1       1       3       2       1       1       3       2       1       1
       3       2       1       1       3       2       1       1       3       2
       1       1       3       2       1       1       3       2       1       1
       3       2       1       1       3       2       1       1       3       2
       1       1       3       2       1       1       3       2       1       1
       3       2       1       1       3       2       1       1       3       2
       1       1       3       2       1       1       3       2       1       1
       3       2       1       1       3       2       1       1       3       2
       1       1       3       2       1       1       3       2       1       1
       3       2       1       1       3       2       1       1       3       2
       1       1       3       2       1       1       3       2       1       1
       3       2       1       1       3       2       1       1       3       2
       1       1       3       2       1       1       3       2       1       1
       3       2       1       1       3       2       1       1       3       2
       1       1       3       2       1       1       3       2       1       1
       3       2       1       1       3       2       1       1       3       2
       1       1       3       2       1       1       3       2       1       1
       3       2       1       1       3       2       1       1       3       2
       1       1       3       2       1       1       3       2       1       1
       3       2       1       1       3       2       1       1       3       2
       1       1       3       2       1       1       3       2       1       1
       3       2       1       1       3       2       1       1       3       2
       1       1       3       2       1       1       3       2       1       1
       3       2       1       1       3       2       1       1       3       2
       1       1       3       2       1       1       3       2       1       1
       3       2       1       1       3       2       1       1       3       2
       1       1       3       2       1       1       3       2       1       1
       3       2       1       1       3       2       1       1       3       2
       1       1       3       2       1       1       3       2       1       1
       3       2       1       1       3       2       1       1       3       2
       1       1       3       2       1       1       3       2       1       1
       3       2       1       1       3       2       1       1       3       2
       1       1       3       2       1       1       3       2       1       1
       3       2       1       1       3       2       1       1       3       2
       1       1       3       2       1       1       3       2       1       1
       3       2       1       1       3       2       1       1       3       2
       1       1       3       2       1       1       3       2       1       1
       3       2       1       1       3       2       1       1       3       2
       1       1       3       2       1       1       3       2       1       1
       3       2       1       1       3       2       1       1       3       2
       1       1       3       2       1       1       3       2       1       1
       3       2       1       1       3       2       1       1       3       2
       1       1       3       2       1       1       3       2       1       1
       3       2       1       1       3       2       1       1       3       2
       1       1       3       2       1       1       3       2       1       1
       3       2       1       1       3       2       1       1       3       2
       1       1       3       2       1       1       3       2       1       1
       3       2       1       1       3       2       1       1       3       2
       1       1       3       2       1       1       3       2       1       1
       3       2       1       1       3       2       1       1       3       2
       1       1       3       2       1       1       3       2       1       1
       3       2       1       1       3       2       1       1       3       2
       1       1       3       2       1       1       3       2       1       1
       3       2       1       1       3       2       1       1       3       2
       1       1       3       2       1       1       3       2       1       1
       3       2       1       1       3       2       1       1       3       2
       1       1       3       2       1       1       3       2       1       1
       3       2       1       1       3       2       1       1       3       2
       1       1       3       2       1       1       3       2       1       1
       3       2       1       1       3       2       1       1       3       2
       1       1       3       2       1       1       3       2       1       1
       3       2       1       1       3       2       1       1       3       2
       1       1       3       2       1       1       3       2       1       1
       3       2       1       1       3       2       1       1       3       2
       1       1       3       2       1       1       3       2       1       1
       3       2       1       1       3       2       1       1       3       2
       1       1       3       2       1       1       3       2       1       1
       3       2       1       1       3       2       1       1       3       2
       1       1       3       2       1       1       3       2       1       1
       3       2       1       1       3       2       1       1       3       2
       1       1       3       2       1       1       3       2       1       1
       3       2       1       1       3       2       1       1       3       2
       1       1       3       2       1       1       3       2       1       1
       3       2       1       1       3       2       1       1       3       2
       1       1       3       2       1       1       3       2       1       1
       3       2       1       1       3       2       1       1       3       2
       1       1       3       2       1       1       3       2       1       1
       3       2       1       1       3       2       1       1       3       2
       1       1       3       2       1       1       3       2       1       1
       3       2       1       1       3       2       1       1       3       2
       1       1       3       2       1       1       3       2       1       1
       3       2       1       1       3       2       1       1       3       2
       1       1       3       2       1       1       3       2       1       1
       3       2       1       1       3       2       1       1       3       2
       1       1       3       2       1       1       3       2       1       1
       3       2       1       1       3       2       1       1       3       2
       1       1       3       2       1       1       3       2       1       1
       3       2       1       1       3       2       1       1       3       2
       1       1       3       2       1       1       3       2       1       1
       3       2       1       1       3       2       1       1       3       2
       1       1       3       2       1       1       3       2       1       1
       3       2       1       1       3       2       1       1       3       2
       1       1       3       2       1       1       3       2       1       1
       3       2       1       1       3       2       1       1       3       2
       1       1       3       2       1       1       3       2       1       1
       3       2       1       1       3       2       1       1       3       2
       1       1       3       2       1       1       3       2       1       1
       3       2       1       1       3       2       1       1       3       2
       1       1       3       2       1       1       3       2       1       1
       3       2       1       1       3       2       1       1       3       2
       1       1       3       2       1       1       3       2       1       1
       3       2       1       1       3       2       1       1       3       2
       1       1       3       2       1       1       3       2       1       1
       3       2       1       1       3       2       1       1       3       2
       1       1       3       2       1       1       3       2       1       1
       3       2       1       1       3       2       1       1       3       2
       1       1       3       2       1       1       3       2       1       1
       3       2       1       1       3       2       1       1       3       2
       1       1       3       2       1       1       3       2       1       1
       3       2       1       1       3       2       1       1       3       2
       1       1       3       2       1       1       3       2       1       1
       3       2       1       1       3       2       1       1       3       2
       1       1       3       2       1       1       3       2       1       1
       3       2       1       1       3       2       1       1       3       2
       1       1       3       2       1       1       3       2       1       1
       3       2       1       1       3       2       1       1       3       2
       1       1       3       2       1       1       3       2       1       1
       3       2       1       1       3       2       1       1       3       2
       1       1       3       2       1       1       3       2       1       1
       3       2       1       1       3       2       1       1       3       2
       1       1       3       2       1       1       3       2       1       1
       3       2       1       1       3       2       1       1       3       2
       1       1       3       2       1       1       3       2       1       1
       3       2       1       1       3       2       1       1       3       2
       1       1       3       2       1       1       3       2       1       1
       3       2       1       1       3       2       1       1       3       2
       1       1       3       2       1       1       3       2       1       1
       3       2       1       1       3       2       1       1       3       2
       1       1       3       2       1       1       3       2       1       1
       3       2       1       1       3       2       1       1       3       2
       1       1       3       2       1       1       3       2       1       1
       3       2       1       1       3       2       1       1       3       2
       1       1       3       2       1       1       3       2       1       1
       3       2       1       1       3       2       1       1       3       2
       1       1       3       2       1       1       3       2       1       1
       3       2       1       1       3       2       1       1       3       2
       1       1       3       2       1       1       3       2       1       1
       3       2       1       1       3       2       1       1       3       2
       1       1       3       2       1       1       3       2       1       1
       3       2       1       1       3       2       1       1       3       2
       1       1       3       2       1       1       3       2       1       1
       3       2       1       1       3       2       1       1       3       2
       1       1       3       2       1       1       3       2       1       1
       3       2       1       1       3       2       1       1       3       2
       1       1       3       2       1       1       3       2       1       1
       3       2       1       1       3       2       1       1       3       2
       1       1       3       2       1       1       3       2       1       1
       3       2       1       1       3       2       1       1       3       2
       1       1       3       2       1       1       3       2       1       1
       3       2       1       1       3       2       1       1       3       2
       1       1       3       2       1       1       3       2       1       1
       3       2       1       1       3       2       1       1       3       2
       1       1       3       2       1       1       3       2       1       1
       3       2       1       1       3       2       1       1       3       2
       1       1       3       2       1       1       3       2       1       1
       3       2       1       1       3       2       1       1       3       2
       1       1       3       2       1       1       3       2       1       1
       3       2       1       1       3       2       1       1       3       2
       1       1       3       2       1       1       3       2       1       1
       3       2       1       1       3       2       1       1       3       2
       1       1       3       2       1       1       3       2       1       1
       3       2       1       1       3       2       1       1       3       2
       1       1       3       2       1       1       3       2       1       1
       3       2       1       1       3       2       1       1       3       2
       1       1       3       2       1       1       3       2       1       1
       3       2       1       1       3       2       1       1       3       2
       1       1       3       2       1       1       3       2       1       1
       3       2       1       1       3       2       1       1       3       2
       1       1       3       2       1       1       3       2       1       1
       3       2       1       1       3       2       1       1       3       2
       1       1       3       2       1       1       3       2       1       1
       3       2       1       1       3       2       1       1       3       2
       1       1       3       2       1       1       3       2       1       1
       3       2       1       1       3       2       1       1       3       2
       1       1       3       2       1       1       3       2       1       1
       3       2       1       1       3       2       1       1       3       2
       1       1       3       2       1       1       3       2       1       1
       3       2       1       1       3       2       1       1       3       2
       1       1       3       2       1       1       3       2       1       1
       3       2       1       1       3       2       1       1       3       2
       1       1       3       2       1       1       3       2       1       1
       3       2       1       1       3       2       1       1       3       2
       1       1       3       2       1       1       3       2       1       1
       3       2       1       1       3       2       1       1       3       2
       1       1       3       2       1       1       3       2       1       1
       3       2       1       1       3       2       1       1       3       2
       1       1       3       2       1       1       3       2       1       1
       3       2       1       1       3       2       1       1       3       2
       1       1       3       2       1       1       3       2       1       1
       3       2       1       1       3       2       1       1       3       2
       1       1       3       2       1       1       3       2       1       1
       3       2       1       1       3       2       1       1       3       2
       1       1       3       2       1       1       3       2       1       1
       3       2       1       1       3       2       1       1       3       2
       1       1       3       2       1       1       3       2       1       1
       3       2       1       1       3       2       1       1       3       2
       1       1       3       2       1       1       3       2       1       1
       3       2       1       1       3       2       1       1       3       2
       1       1       3       2       1       1       3       2       1       1
       3       2       1       1       3       2       1       1       3       2
       1       1       3       2       1       1       3       2       1       1
       3       2       1       1       3       2       1       1       3       2
       1       1       3       2       1       1       3       2       1       1
       3       2       1       1       3       2       1       1       3       2
       1       1       3       2       1       1       3       2       1       1
       3       2       1       1       3       2       1       1       3       2
       1       1       3       2       1       1       3       2       1       1
       3       2       1       1       3       2       1       1       3       2
       1       1       3       2       1       1       3       2       1       1
       3       2       1       1       3       2       1       1       3       2
       1       1       3       2       1       1       3       2       1       1
       3       2       1       1       3       2       1       1       3       2
       1       1       3       2       1       1       3       2       1       1
       3       2       1       1       3       2       1       1       3       2
       1       1       3       2       1       1       3       2       1       1
       3       2       1       1       3       2       1       1       3       2
       1       1       3       2       1       1       3       2       1       1
       3       2       1       1       3       2       1       1       3       2
       1       1       3       2       1       1       3       2       1       1
       3       2       1       1       3       2       1       1       3       2
       1       1       3       2       1       1       3       2       1       1
       3       2       1       1       3       2       1       1       3       2
       1       1       3       2       1       1       3       2       1       1
       3       2       1       1       3       2       1       1       3       2
       1       1       3       2       1       1       3       2       1       1
       3       2       1       1       3       2       1       1       3       2
       1       1       3       2       1       1       3       2       1       1
       3       2       1       1       3       2       1       1       3       2
       1       1       3       2       1       1       3       2       1       1
       3       2       1       1       3       2       1       1       3       2
       1       1       3       2       1       1       3       2       1       1
       3       2       1       1       3       2       1       1       3       2
       1       1       3       2       1       1       3       2       1       1
       3       2       1       1       3       2       1       1       3       2
       1       1       3       2       1       1       3       2       1       1
       3       2       1       1       3       2       1       1       3       2
       1       1       3       2       1       1       3       2       1       1
       3       2       1       1       3       2       1       1       3       2
       1       1       3       2       1       1       3       2       1       1
       3       2       1       1       3       2       1       1       3       2
       1       1       3       2       1       1       3       2       1       1
       3       2       1       1       3       2       1       1       3       2
       1       1       3       2       1       1       3       2       1       1
       3       2       1       1       3       2       1       1       3       2
       1       1       3       2       1       1       3       2       1       1
       3       2       1       1       3       2       1       1       3       2
       1       1       3       2       1       1       3       2       1       1
       3       2       1       1       3       2       1       1       3       2
       1       1       3       2       1       1       3       2       1       1
       3       2       1       1       3       2       1       1       3       2
       1       1       3       2       1       1       3       2       1       1
       3       2       1       1       3       2       1       1       3       2
       1       1       3       2       1       1       3       2       1       1
       3       2       1       1       3       2       1       1       3       2
       1       1       3       2       1       1       3       2       1       1
       3       2       1       1       3       2       1       1       3       2
       1       1       3       2       1       1       3       2       1       1
       3       2       1       1       3       2       1       1       3       2
       1       1       3       2       1       1       3       2       1       1
       3       2       1       1       3       2       1       1       3       2
       1       1       3       2       1       1       3       2       1       1
       3       2       1       1       3       2       1       1       3       2
       1       1       3       2       1       1       3       2       1       1
       3       2       1       1       3       2       1       1       3       2
       1       1       3       2       1       1       3       2       1       1
       3       2       1       1       3       2       1       1       3       2
       1       1       3       2       1       1       3       2       1       1
       3       2       1       1       3       2       1       1       3       2
       1       1       3       2       1       1       3       2       1       1
       3       2       1       1       3       2       1       1       3       2
       1       1       3       2       1       1       3       2       1       1
       3       2       1       1       3       2       1       1       3       2
       1       1       3       2       1       1       3       2       1       1
       3       2       1       1       3       2       1       1       3       2
       1       1       3       2       1       1       3       2       1       1
       3       2       1       1       3       2       1       1       3       2
       1       1       3       2       1       1       3       2       1       1
       3       2       1       1       3       2       1       1       3       2
       1       1       3       2       1       1       3       2       1       1
       3       2       1       1       3       2       1       1       3       2
       1       1       3       2       1       1       3       2       1       1
       3       2       1       1       3       2       1       1       3       2
       1       1       3       2       1       1       3       2       1       1
       3       2       1       1       3       2       1       1       3       2
       1       1       3       2       1       1       3       2       1       1
       3       2       1       1       3       2       1       1       3       2
       1       1       3       2       1       1       3       2       1       1
       3       2       1       1       3       2       1       1       3       2
       1       1       3       2       1       1       3       2       1       1
       3       2       1       1       3       2       1       1       3       2
       1       1       3       2       1       1       3       2       1       1
       3       2       1       1       3       2       1       1       3       2
       1       1       3       2       1       1       3       2       1       1
       3       2       1       1       3       2       1       1       3       2
       1       1       3       2       1       1       3       2       1       1
       3       2       1       1       3       2       1       1       3       2
       1       1       3       2       1       1       3       2       1       1
       3       2       1       1       3       2       1       1       3       2
       1       1       3       2       1       1       3       2       1       1
       3       2       1       1       3       2       1       1       3       2
       1       1       3       2       1       1       3       2       1       1
       3       2       1       1       3       2       1       1       3       2
       1       1       3       2       1       1       3       2       1       1
       3       2       1       1       3       2       1       1       3       2
       1       1       3       2       1       1       3       2       1       1
       3       2       1       1       3       2       1       1       3       2
       1       1       3       2       1       1       3       2       1       1
       3       2       1       1       3       2       1       1       3       2
       1       1       3       2       1       1       3       2       1       1
       3       2       1       1       3       2       1       1       3       2
       1       1       3       2       1       1       3       2       1       1
       3       2       1       1       3       2       1       1       3       2
       1       1       3       2       1       1       3       2       1       1
       3       2       1       1       3       2       1       1       3       2
       1       1       3       2       1       1       3       2       1       1
       3       2       1       1       3       2       1       1       3       2
       1       1       3       2       1       1       3       2       1       1
       3       2       1       1       3       2       1       1       3       2
       1       1       3       2       1       1       3       2       1       1
       3       2       1       1       3       2       1       1       3       2
       1       1       3       2       1       1       3       2       1       1
       3       2       1       1       3       2       1       1       3       2
       1       1       3       2       1       1       3       2       1       1
       3       2       1       1       3       2       1       1       3       2
       1       1       3       2       1       1       3       2       1       1
       3       2       1       1       3       2       1       1       3       2
       1       1       3       2       1       1       3       2       1       1
       3       2       1       1       3       2       1       1       3       2
       1       1       3       2       1       1       3       2       1       1
       3       2       1       1       3       2       1       1       3       2
       1       1       3       2       1       1       3       2       1       1
       3       2       1       1       3       2       1       1       3       2
       1       1       3       2       1       1       3       2       1       1
       3       2       1       1       3       2       1       1       3       2
       1       1       3       2       1       1       3       2       1       1
       3       2       1       1       3       2       1       1       3       2
       1       1       3       2       1       1       3       2       1       1
       3       2       1       1       3       2       1       1       3       2
       1       1       3       2       1       1       3       2       1       1
       3       2       1       1       3       2       1       1       3       2
       1       1       3       2       1       1       3       2       1       1
       3       2       1       1       3       2       1       1       3       2
       1       1       3       2       1       1       3       2       1       1
       3       2       1       1       3       2       1       1       3       2
       1       1       3       2       1       1       3       2       1       1
       3       2       1       1       3       2       1       1       3       2
       1       1       3       2       1       1       3       2       1       1
       3       2       1       1       3       2       1       1       3       2
       1       1       3       2       1       1       3       2       1       1
       3       2       1       1       3       2       1       1       3       2
       1       1       3       2       1       1       3       2       1       1
       3       2       1       1       3       2       1       1       3       2
       1       1       3       2       1       1       3       2       1       1
       3       2       1       1       3       2       1       1       3       2
       1       1       3       2       1       1       3       2       1       1
       3       2       1       1       3       2       1       1       3       2
       1       1       3       2       1       1       3       2       1       1
       3       2       1       1       3       2       1       1       3       2
       1       1       3       2       1       1       3       2       1       1
       3       2       1       1       3       2       1       1       3       2
       1       1       3       2       1       1       3       2       1       1
       3       2       1       1       3       2       1       1       3       2
       1       1       3       2       1       1       3       2       1       1
       3       2       1       1       3       2       1       1       3       2
       1       1       3       2       1       1       3       2       1       1
       3       2       1       1       3       2       1       1       3       2
       1       1       3       2       1       1       3       2       1       1
       3       2       1       1       3       2       1       1       3       2
       1       1       3       2       1       1       3       2       1       1
       3       2       1       1       3       2       1       1       3       2
       1       1       3       2       1       1       3       2       1       1
       3       2       1       1       3       2       1       1       3       2
       1       1       3       2       1       1       3       2       1       1
       3       2       1       1       3       2       1       1       3       2
       1       1       3       2       1       1       3       2       1       1
       3       2       1       1       3       2       1       1       3       2
       1       1       3       2       1       1       3       2       1       1
       3       2       1       1       3       2       1       1       3       2
       1       1       3       2       1       1       3       2       1       1
       3       2       1       1       3       2       1       1       3       2
       1       1       3       2       1       1       3       2       1       1
       3       2       1       1       3       2       1       1       3       2
       1       1       3       2       1       1       3       2       1       1
       3       2       1       1       3       2       1       1       3       2
       1       1       3       2       1       1       3       2       1       1
       3       2       1       1       3       2       1       1       3       2
       1       1       3       2       1       1       3       2       1       1
       3       2       1       1       3       2       1       1       3       2
       1       1       3       2       1       1       3       2       1       1
       3       2       1       1       3       2       1       1       3       2
       1       1       3       2       1       1       3       2       1       1
       3       2       1       1       3       2       1       1       3       2
       1       1       3       2       1       1       3       2       1       1
       3       2       1       1       3       2       1       1       3       2
       1       1       3       2       1       1       3       2       1       1
       3       2       1       1       3       2       1       1       3       2
       1       1       3       2       1       1       3       2       1       1
       3       2       1       1       3       2       1       1       3       2
       1       1       3       2       1       1       3       2       1       1
       3       2       1       1       3       2       1       1       3       2
       1       1       3       2       1       1       3       2       1       1
       3       2       1       1       3       2       1       1       3       2
       1       1       3       2       1       1       3       2       1       1
       3       2       1       1       3       2       1       1       3       2
       1       1       3       2       1       1       3       2       1       1
       3       2       1       1       3       2       1       1       3       2
       1       1       3       2       1       1       3       2       1       1
       3       2       1       1       3       2       1       1       3       2
       1       1       3       2       1       1       3       2       1       1
       3       2       1       1       3       2       1       1       3       2
       1       1       3       2       1       1       3       2       1       1
       3       2       1       1       3       2       1       1       3       2
       1       1       3       2       1       1       3       2       1       1
       3       2       1       1       3       2       1       1       3       2
       1       1       3       2       1       1       3       2       1       1
       3       2       1       1       3       2       1       1       3       2
       1       1       3       2       1       1       3       2       1       1
       3       2       1       1       3       2       1       1       3       2
       1       1       3       2       1       1       3       2       1       1
       3       2       1       1       3       2       1       1       3       2
       1       1       3       2       1       1       3       2       1       1
       3       2       1       1       3       2       1       1       3       2
       1       1       3       2       1       1       3       2       1       1
       3       2       1       1       3       2       1       1       3       2
       1       1       3       2       1       1       3       2       1       1
       3       2       1       1       3       2       1       1       3       2
       1       1       3       2       1       1       3       2       1       1
       3       2       1       1       3       2       1       1       3       2
       1       1       3       2       1       1       3       2       1       1
       3       2       1       1       3       2       1       1       3       2
       1       1       3       2       1       1       3       2       1       1
       3       2       1       1       3       2       1       1       3       2
       1       1       3       2       1       1       3       2       1       1
       3       2       1       1       3       2       1       1       3       2
       1       1       3       2       1       1       3       2       1       1
       3       2       1       1       3       2       1       1       3       2
       1       1       3       2       1       1       3       2       1       1
       3       2       1       1       3       2       1       1       3       2
       1       1       3       2       1       1       3       2       1       1
       3       2       1       1       3       2       1       1       3       2
       1       1       3       2       1       1       3       2       1       1
       3       2       1       1       3       2       1       1       3       2
       1       1       3       2       1       1       3       2       1       1
       3       2       1       1       3       2       1       1       3       2
       1       1       3       2       1       1       3       2       1       1
       3       2       1       1       3       2       1       1       3       2
       1       1       3       2       1       1       3       2       1       1
       3       2       1       1       3       2       1       1       3       2
       1       1       3       2       1       1       3       2       1       1
       3       2       1       1       3       2       1       1       3       2
       1       1       3       2       1       1       3       2       1       1
       3       2       1       1       3       2       1       1       3       2
       1       1       3       2       1       1       3       2       1       1
       3       2       1       1       3       2       1       1       3       2
       1       1       3       2       1       1       3       2       1       1
       3       2       1       1       3       2       1       1       3       2
       1       1       3       2       1       1       3       2       1       1
       3       2       1       1       3       2       1       1       3       2
       1       1       3       2       1       1       3       2       1       1
       3       2       1       1       3       2       1       1       3       2
       1       1       3       2       1       1       3       2       1       1
       3       2       1       1       3       2       1       1       3       2
       1       1       3       2       1       1       3       2       1       1
       3       2       1       1       3       2       1       1       3       2
       1       1       3       2       1       1       3       2       1       1
       3       2       1       1       3       2       1       1       3       2
       1       1       3       2       1       1       3       2       1       1
       3       2       1       1       3       2       1       1       3       2
       1       1       3       2       1       1       3       2       1       1
       3       2       1       1       3       2       1       1       3       2
       1       1       3       2       1       1       3       2       1       1
       3       2       1       1       3       2       1       1       3       2
       1       1       3       2       1       1       3       2       1       1
       3       2       1       1       3       2       1       1       3       2
       1       1       3       2       1       1       3       2       1       1
       3       2       1       1       3       2       1       1       3       2
       1       1       3       2       1       1       3       2       1       1
       3       2       1       1       3       2       1       1       3       2
       1       1       3       2       1       1       3       2       1       1
       3       2       1       1       3       2       1       1       3       2
       1       1       3       2       1       1       3       2       1       1
       3       2       1       1       3       2       1       1       3       2
       1       1       3       2       1       1       3       2       1       1
       3       2       1       1       3       2       1       1       3       2
       1       1       3       2       1       1       3       2       1       1
       3       2       1       1       3       2       1       1       3       2
       1       1       3       2       1       1       3       2       1       1
       3       2       1       1       3       2       1       1       3       2
       1       1       3       2       1       1       3       2       1       1
       3       2       1       1       3       2       1       1       3       2
       1       1       3       2       1       1       3       2       1       1
       3       2       1       1       3       2       1       1       3       2
       1       1       3       2       1       1       3       2       1       1
       3       2       1       1       3       2       1       1       3       2
       1       1       3       2       1       1       3       2       1       1
       3       2       1       1       3       2       1       1       3       2
       1       1       3       2       1       1       3       2       1       1
       3       2       1       1       3       2       1       1       3       2
       1       1       3       2       1       1       3       2       1       1
       3       2       1       1       3       2       1       1       3       2
       1       1       3       2       1       1       3       2       1       1
       3       2       1       1       3       2       1       1       3       2
       1       1       3       2       1       1       3       2       1       1
       3       2       1       1       3       2       1       1       3       2
       1       1       3       2       1       1       3       2       1       1
       3       2       1       1       3       2       1       1       3       2
       1       1       3       2       1       1       3       2       1       1
       3       2       1       1       3       2       1       1       3       2
       1       1       3       2       1       1       3       2       1       1
       3       2       1       1       3       2       1       1       3       2
       1       1       3       2       1       1       3       2       1       1
       3       2       1       1       3       2       1       1       3       2
       1       1       3       2       1       1       3       2       1       1
       3       2       1       1       3       2       1       1       3       2
       1       1       3       2       1       1       3       2       1       1
       3       2       1       1       3       2       1       1       3       2
       1       1       3       2       1       1       3       2       1       1
       3       2       1       1       3       2       1       1       3       2
       1       1       3       2       1       1       3       2       1       1
       3       2       1       1       3       2       1       1       3       2
       1       1       3       2       1       1       3       2       1       1
       3       2       1       1       3       2       1       1       3       2
       1       1       3       2       1       1       3       2       1       1
       3       2       1       1       3       2       1       1       3       2
       1       1       3       2       1       1       3       2       1       1
       3       2       1       1       3       2       1       1       3       2
       1       1       3       2       1       1       3       2       1       1
       3       2       1       1       3       2       1       1       3       2
       1       1       3       2       1       1       3       2       1       1
       3       2       1       1       3       2       1       1       3       2
       1       1       3       2       1       1       3       2       1       1
       3       2       1       1       3       2       1       1       3       2
       1       1       3       2       1       1       3       2       1       1
       3       2       1       1       3       2       1       1       3       2
       1       1       3       2       1       1       3       2       1       1
       3       2       1       1       3       2       1       1       3       2
       1       1       3       2       1       1       3       2       1       1
       3       2       1       1       3       2       1       1       3       2
       1       1       3       2       1       1       3       2       1       1
       3       2       1       1       3       2       1       1       3       2
       1       1       3       2       1       1       3       2       1       1
       3       2       1       1       3       2       1       1       3       2
       1       1       3       2       1       1       3       2       1       1
       3       2       1       1       3       2       1       1       3       2
       1       1       3       2       1       1       3       2       1       1
       3       2       1       1       3       2       1       1       3       2
       1       1       3       2       1       1       3       2       1       1
       3       2       1       1       3       2       1       1       3       2
       1       1       3       2       1       1       3       2       1       1
       3       2       1       1       3       2       1       1       3       2
       1       1       3       2       1       1       3       2       1       1
       3       2       1       1       3       2       1       1       3       2
       1       1       3       2       1       1       3       2       1       1
       3       2       1       1       3       2       1       1       3       2
       1       1       3       2       1       1       3       2       1       1
       3       2       1       1       3       2       1       1       3       2
       1       1       3       2       1       1       3       2       1       1
       3       2       1       1       3       2       1       1       3       2
       1       1       3       2       1       1       3       2       1       1
       3       2       1       1       3       2       1       1       3       2
       1       1       3       2       1       1       3       2       1       1
       3       2       1       1       3       2       1       1       3       2
       1       1       3       2       1       1       3       2       1       1
       3       2       1       1       3       2       1       1       3       2
       1       1       3       2       1       1       3       2       1       1
       3       2       1       1       3       2       1       1       3       2
       1       1       3       2       1       1       3       2       1       1
       3       2       1       1       3       2       1       1       3       2
       1       1       3       2       1       1       3       2       1       1
       3       2       1       1       3       2       1       1       3       2
       1       1       3       2       1       1       3       2       1       1
       3       2       1       1       3       2       1       1       3       2
       1       1       3       2       1       1       3       2       1       1
       3       2       1       1       3       2       1       1       3       2
       1       1       3       2       1       1       3       2       1       1
       3       2       1       1       3       2       1       1       3       2
       1       1       3       2       1       1       3       2       1       1
       3       2       1       1       3       2       1       1       3       2
       1       1       3       2       1       1       3       2       1       1
       3       2       1       1       3       2       1       1       3       2
       1       1       3       2       1       1       3       2       1       1
       3       2       1       1       3       2       1       1       3       2
       1       1       3       2       1       1       3       2       1       1
       3       2       1       1       3       2       1       1       3       2
       1       1       3       2       1       1       3       2       1       1
       3       2       1       1       3       2       1       1       3       2
       1       1       3       2       1       1       3       2       1       1
       3       2       1       1       3       2       1       1       3       2
       1       1       3       2       1       1       3       2       1       1
       3       2       1       1       3       2       1       1       3       2
       1       1       3       2       1       1       3       2       1       1
       3       2       1       1       3       2       1       1       3       2
       1       1       3       2       1       1       3       2       1       1
       3       2       1       1       3       2       1       1       3       2
       1       1       3       2       1       1       3       2       1       1
       3       2       1       1       3       2       1       1       3       2
       1       1       3       2       1       1       3       2       1       1
       3       2       1       1       3       2       1       1       3       2
       1       1       3       2       1       1       3       2       1       1
       3       2       1       1       3       2       1       1       3       2
       1       1       3       2       1       1       3       2       1       1
       3       2       1       1       3       2       1       1       3       2
       1       1       3       2       1       1       3       2       1       1
       3       2       1       1       3       2       1       1       3       2
       1       1       3       2       1       1       3       2       1       1
       3       2       1       1       3       2       1       1       3       2
       1       1       3       2       1       1       3       2       1       1
       3       2       1       1       3       2       1       1       3       2
       1       1       3       2       1       1       3       2       1       1
       3       2       1       1       3       2       1       1       3       2
       1       1       3       2       1       1       3       2       1       1
       3       2       1       1       3       2       1       1       3       2
       1       1       3       2       1       1       3       2       1       1
       3       2       1       1       3       2       1       1       3       2
       1       1       3       2       1       1       3       2       1       1
       3       2       1       1       3       2       1       1       3       2
       1       1       3       2       1       1       3       2       1       1
       3       2       1       1       3       2       1       1       3       2
       1       1       3       2       1       1       3       2       1       1
       3       2       1       1       3       2       1       1       3       2
       1       1       3       2       1       1       3       2       1       1
       3       2       1       1       3       2       1       1       3       2
       1       1       3       2       1       1       3       2       1       1
       3       2       1       1       3       2       1       1       3       2
       1       1       3       2       1       1       3       2       1       1
       3       2       1       1       3       2       1       1       3       2
       1       1       3       2       1       1       3       2       1       1
       3       2       1       1       3       2       1       1       3       2
       1       1       3       2       1       1       3       2       1       1
       3       2       1       1       3       2       1       1       3       2
       1       1       3       2       1       1       3       2       1       1
       3       2       1       1       3       2       1       1       3       2
       1       1       3       2       1       1       3       2       1       1
       3       2       1       1       3       2       1       1       3       2
       1       1       3       2       1       1       3       2       1       1
       3       2       1       1       3       2       1       1       3       2
       1       1       3       2       1       1       3       2       1       1
       3       2       1       1       3       2       1       1       3       2
       1       1       3       2       1       1       3       2       1       1
       3       2       1       1       3       2       1       1       3       2
       1       1       3       2       1       1       3       2       1       1
       3       2       1       1       3       2       1       1       3       2
       1       1       3       2       1       1       3       2       1       1
       3       2       1       1       3       2       1       1       3       2
       1       1       3       2       1       1       3       2       1       1
       3       2       1       1       3       2       1       1       3       2
       1       1       3       2       1       1       3       2       1       1
       3       2       1       1       3       2       1       1       3       2
       1       1       3       2       1       1       3       2       1       1
       3       2       1       1       3       2       1       1       3       2
       1       1       3       2       1       1       3       2       1       1
       3       2       1       1       3       2       1       1       3       2
       1       1       3       2       1       1       3       2       1       1
       3       2       1       1       3       2       1       1       3       2
       1       1       3       2       1       1       3       2       1       1
       3       2       1       1       3       2       1       1       3       2
       1       1       3       2       1       1       3       2       1       1
       3       2       1       1       3       2       1       1       3       2
       1       1       3       2       1       1       3       2       1       1
       3       2       1       1       3       2       1       1       3       2
       1       1       3       2       1       1       3       2       1       1
       3       2       1       1       3       2       1       1       3       2
       1       1       3       2       1       1       3       2       1       1
       3       2       1       1       3       2       1       1       3       2
       1       1       3       2       1       1       3       2       1       1
       3       2       1       1       3       2       1       1       3       2
       1       1       3       2       1       1       3       2       1       1
       3       2       1       1       3       2       1       1       3       2
       1       1       3       2       1       1       3       2       1       1
       3       2       1       1       3       2       1       1       3       2
       1       1       3       2       1       1       3       2       1       1
       3       2       1       1       3       2       1       1       3       2
       1       1       3       2       1       1       3       2       1       1
       3       2       1       1       3       2       1       1       3       2
       1       1       3       2       1       1       3       2       1       1
       3       2       1       1       3       2       1       1       3       2
       1       1       3       2       1       1       3       2       1       1
       3       2       1       1       3       2       1       1       3       2
       1       1       3       2       1       1       3       2       1       1
       3       2       1       1       3       2       1       1       3       2
       1       1       3       2       1       1       3       2       1       1
       3       2       1       1       3       2       1       1       3       2
       1       1       3       2       1       1       3       2       1       1
       3       2       1       1       3       2       1       1       3       2
       1       1       3       2       1       1       3       2       1       1
       3       2       1       1       3       2       1       1       3       2
       1       1       3       2       1       1       3       2       1       1
       3       2       1       1       3       2       1       1       3       2
       1       1       3       2       1       1       3       2       1       1
       3       2       1       1       3       2       1       1       3       2
       1       1       3       2       1       1       3       2       1       1
       3       2       1       1       3       2       1       1       3       2
       1       1       3       2       1       1       3       2       1       1
       3       2       1       1       3       2       1       1       3       2
       1       1       3       2       1       1       3       2       1       1
       3       2       1       1       3       2       1       1       3       2
       1       1       3       2       1       1       3       2       1       1
       3       2       1       1       3       2       1       1       3       2
       1       1       3       2       1       1       3       2       1       1
       3       2       1       1       3       2       1       1       3       2
       1       1       3       2       1       1       3       2       1       1
       3       2       1       1       3       2       1       1       3       2
       1       1       3       2       1       1       3       2       1       1
       3       2       1       1       3       2       1       1       3       2
       1       1       3       2       1       1       3       2       1       1
       3       2       1       1       3       2       1       1       3       2
       1       1       3       2       1       1       3       2       1       1
       3       2       1       1       3       2       1       1       3       2
       1       1       3       2       1       1       3       2       1       1
       3       2       1       1       3       2       1       1       3       2
       1       1       3       2       1       1       3       2       1       1
       3       2       1       1       3       2       1       1       3       2
       1       1       3       2       1       1       3       2       1       1
       3       2       1       1       3       2       1       1       3       2
       1       1       3       2       1       1       3       2       1       1
       3       2       1       1       3       2       1       1       3       2
       1       1       3       2       1       1       3       2       1       1
       3       2       1       1       3       2       1       1       3       2
       1       1       3       2       1       1       3       2       1       1
       3       2       1       1       3       2       1       1       3       2
       1       1       3       2       1       1       3       2       1       1
       3       2       1       1       3       2       1       1       3       2
       1       1       3       2       1       1       3       2       1       1
       3       2       1       1       3       2       1       1       3       2
       1       1       3       2       1       1       3       2       1       1
       3       2       1       1       3       2       1       1       3       2
       1       1       3       2       1       1       3       2       1       1
       3       2       1       1       3       2       1       1       3       2
       1       1       3       2       1       1       3       2       1       1
       3       2       1       1       3       2       1       1       3       2
       1       1       3       2       1       1       3       2       1       1
       3       2       1       1       3       2       1       1       3       2
       1       1       3       2       1       1       3       2       1       1
       3       2       1       1       3       2       1       1       3       2
       1       1       3       2       1       1       3       2       1       1
       3       2       1       1       3       2       1       1       3       2
       1       1       3       2       1       1       3       2       1       1
       3       2       1       1       3       2       1       1       3       2
       1       1       3       2       1       1       3       2       1       1
       3       2       1       1       3       2       1       1       3       2
       1       1       3       2       1       1       3       2       1       1
       3       2       1       1       3       2       1       1       3       2
       1       1       3       2       1       1       3       2       1       1
       3       2       1       1       3       2       1       1       3       2
       1       1       3       2       1       1       3       2       1       1
       3       2       1       1       3       2       1       1       3       2
       1       1       3       2       1       1       3       2       1       1
       3       2       1       1       3       2       1       1       3       2
       1       1       3       2       1       1       3       2       1       1
       3       2       1       1       3       2       1       1       3       2
       1       1       3       2       1       1       3       2       1       1
       3       2       1       1       3       2       1       1       3       2
       1       1       3       2       1       1       3       2       1       1
       3       2       1       1       3       2       1       1       3       2
       1       1       3       2       1       1       3       2       1       1
       3       2       1       1       3       2       1       1       3       2
       1       1       3       2       1       1       3       2       1       1
       3       2       1       1       3       2       1       1       3       2
       1       1       3       2       1       1       3       2       1       1
       3       2       1       1       3       2       1       1       3       2
       1       1       3       2       1       1       3       2       1       1
       3       2       1       1       3       2       1       1       3       2
       1       1       3       2       1       1       3       2       1       1
       3       2       1       1       3       2       1       1       3       2
       1       1       3       2       1       1       3       2       1       1
       3       2       1       1       3       2       1       1       3       2
       1       1       3       2       1       1       3       2       1       1
       3       2       1       1       3       2       1       1       3       2
       1       1       3       2       1       1       3       2       1       1
       3       2       1       1       3       2       1       1       3       2
       1       1       3       2       1       1       3       2       1       1
       3       2       1       1       3       2       1       1       3       2
       1       1       3       2       1       1       3       2       1       1
       3       2       1       1       3       2       1       1       3       2
       1       1       3       2       1       1       3       2       1       1
       3       2       1       1       3       2       1       1       3       2
       1       1       3       2       1       1       3       2       1       1
       3       2       1       1       3       2       1       1       3       2
       1       1       3       2       1       1       3       2       1       1
       3       2       1       1       3       2       1       1       3       2
       1       1       3       2       1       1       3       2       1       1
       3       2       1       1       3       2       1       1       3       2
       1       1       3       2       1       1       3       2       1       1
       3       2       1       1       3       2       1       1       3       2
       1       1       3       2       1       1       3       2       1       1
       3       2       1       1       3       2       1       1       3       2
       1       1       3       2       1       1       3       2       1       1
       3       2       1       1       3       2       1       1       3       2
       1       1       3       2       1       1       3       2       1       1
       3       2       1       1       3       2       1       1       3       2
       1       1       3       2       1       1       3       2       1       1
       3       2       1       1       3       2       1       1       3       2
       1       1       3       2       1       1       3       2       1       1
       3       2       1       1       3       2       1       1       3       2
       1       1       3       2       1       1       3       2       1       1
       3       2       1       1       3       2       1       1       3       2
       1       1       3       2       1       1       3       2       1       1
       3       2       1       1       3       2       1       1       3       2
       1       1       3       2       1       1       3       2       1       1
       3       2       1       1       3       2       1       1       3       2
       1       1       3       2       1       1       3       2       1       1
       3       2       1       1       3       2       1       1       3       2
       1       1       3       2       1       1       3       2       1       1
       3       2       1       1       3       2       1       1       3       2
       1       1       3       2       1       1       3       2       1       1
       3       2       1       1       3       2       1       1       3       2
       1       1       3       2       1       1       3       2       1       1
       3       2       1       1       3       2       1       1       3       2
       1       1       3       2       1       1       3       2       1       1
       3       2       1       1       3       2       1       1       3       2
       1       1       3       2       1       1       3       2       1       1
       3       2       1       1       3       2       1       1       3       2
       1       1       3       2       1       1       3       2       1       1
       3       2       1       1       3       2       1       1       3       2
       1       1       3       2       1       1       3       2       1       1
       3       2       1       1       3       2       1       1       3       2
       1       1       3       2       1       1       3       2       1       1
       3       2       1       1       3       2       1       1       3       2
       1       1       3       2       1       1       3       2       1       1
       3       2       1       1       3       2       1       1       3       2
       1       1       3       2       1       1       3       2       1       1
       3       2       1       1       3       2       1       1       3       2
       1       1       3       2       1       1       3       2       1       1
       3       2       1       1       3       2       1       1       3       2
       1       1       3       2       1       1       3       2       1       1
       3       2       1       1       3       2       1       1       3       2
       1       1       3       2       1       1       3       2       1       1
       3       2       1       1       3       2       1       1       3       2
       1       1       3       2       1       1       3       2       1       1
       3       2       1       1       3       2       1       1       3       2
       1       1       3       2       1       1       3       2       1       1
       3       2       1       1       3       2       1       1       3       2
       1       1       3       2       1       1       3       2       1       1
       3       2       1       1       3       2       1       1       3       2
       1       1       3       2       1       1       3       2       1       1
       3       2       1       1       3       2       1       1       3       2
       1       1       3       2       1       1       3       2       1       1
       3       2       1       1       3       2       1       1       3       2
       1       1       3       2       1       1       3       2       1       1
       3       2       1       1       3       2       1       1       3       2
       1       1       3       2       1       1       3       2       1       1
       3       2       1       1       3       2       1       1       3       2
       1       1       3       2       1       1       3       2       1       1
       3       2       1       1       3       2       1       1       3       2
       1       1       3       2       1       1       3       2       1       1
       3       2       1       1       3       2       1       1       3       2
       1       1       3       2       1       1       3       2       1       1
       3       2       1       1       3       2       1       1       3       2
       1       1       3       2       1       1       3       2       1       1
       3       2       1       1       3       2       1       1       3       2
       1       1       3       2       1       1       3       2       1       1
       3       2       1       1       3       2       1       1       3       2
       1       1       3       2       1       1       3       2       1       1
       3       2       1       1       3       2       1       1       3       2
       1       1       3       2       1       1       3       2       1       1
       3       2       1       1       3       2       1       1       3       2
       1       1       3       2       1       1       3       2       1       1
       3       2       1       1       3       2       1       1       3       2
       1       1       3       2       1       1       3       2       1       1
       3       2       1       1       3       2       1       1       3       2
       1       1       3       2       1       1       3       2       1       1
       3       2       1       1       3       2       1       1       3       2
       1       1       3       2       1       1       3       2       1       1
       3       2       1       1       3       2       1       1       3       2
       1       1       3       2       1       1       3       2       1       1
       3       2       1       1       3       2       1       1       3       2
       1       1       3       2       1       1       3       2       1       1
       3       2       1       1       3       2       1       1       3       2
       1       1       3       2       1       1       3       2       1       1
       3       2       1       1       3       2       1       1       3       2
       1       1       3       2       1       1       3       2       1       1
       3       2       1       1       3       2       1       1       3       2
       1       1       3       2       1       1       3       2       1       1
       3       2       1       1       3       2       1       1       3       2
       1       1       3       2       1       1       3       2       1       1
       3       2       1       1       3       2       1       1       3       2
       1       1       3       2       1       1       3       2       1       1
       3       2       1       1       3       2       1       1       3       2
       1       1       3       2       1       1       3       2       1       1
       3       2       1       1       3       2       1       1       3       2
       1       1       3       2       1       1       3       2       1       1
       3       2       1       1       3       2       1       1       3       2
       1       1       3       2       1       1       3       2       1       1
       3       2       1       1       3       2       1       1       3       2
       1       1       3       2       1       1       3       2       1       1
       3       2       1       1       3       2       1       1       3       2
       1       1       3       2       1       1       3       2       1       1
       3       2       1       1       3       2       1       1       3       2
       1       1       3       2       1       1       3       2       1       1
       3       2       1       1       3       2       1       1       3       2
       1       1       3       2       1       1       3       2       1       1
       3       2       1       1       3       2       1       1       3       2
       1       1       3       2       1       1       3       2       1       1
       3       2       1       1       3       2       1       1       3       2
       1       1       3       2       1       1       3       2       1       1
       3       2       1       1       3       2       1       1       3       2
       1       1       3       2       1       1       3       2       1       1
       3       2       1       1       3       2       1       1       3       2
       1       1       3       2       1       1       3       2       1       1
       3       2       1       1       3       2       1       1       3       2
       1       1       3       2       1       1       3       2       1       1
       3       2       1       1       3       2       1       1       3       2
       1       1       3       2       1       1       3       2       1       1
       3       2       1       1       3       2       1       1       3       2
       1       1       3       2       1       1       3       2       1       1
       3       2       1       1       3       2       1       1       3       2
       1       1       3       2       1       1       3       2       1       1
       3       2       1       1       3       2       1       1       3       2
       1       1       3       2       1       1       3       2       1       1
       3       2       1       1       3       2       1       1       3       2
       1       1       3       2       1       1       3       2       1       1
       3       2       1       1       3       2       1       1       3       2
       1       1       3       2       1       1       3       2       1       1
       3       2       1       1       3       2       1       1       3       2
       1       1       3       2       1       1       3       2       1       1
       3       2       1       1       3       2       1       1       3       2
       1       1       3       2       1       1       3       2       1       1
       3       2       1       1       3       2       1       1       3       2
       1       1       3       2       1       1       3       2       1       1
       3       2       1       1       3       2       1       1       3       2
       1       1       3       2       1       1       3       2       1       1
       3       2       1       1       3       2       1       1       3       2
       1       1       3       2       1       1       3       2       1       1
       3       2       1       1       3       2       1       1       3       2
       1       1       3       2       1       1       3       2       1       1
       3       2       1       1       3       2       1       1       3       2
       1       1       3       2       1       1       3       2       1       1
       3       2       1       1       3       2       1       1       3       2
       1       1       3       2       1       1       3       2       1       1
       3       2       1       1       3       2       1       1       3       2
       1       1       3       2       1       1       3       2       1       1
       3       2       1       1       3       2       1       1       3       2
       1       1       3       2       1       1       3       2       1       1
       3       2       1       1       3       2       1       1       3       2
       1       1       3       2       1       1       3       2       1       1
       3       2       1       1       3       2       1       1       3       2
       1       1       3       2       1       1       3       2       1       1
       3       2       1       1       3       2       1       1       3       2
       1       1       3       2       1       1       3       2       1       1
       3       2       1       1       3       2       1       1       3       2
       1       1       3       2       1       1       3       2       1       1
       3       2       1       1       3       2       1       1       3       2
       1       1       3       2       1       1       3       2       1       1
       3       2       1       1       3       2       1       1       3       2
       1       1       3       2       1       1       3       2       1       1
       3       2       1       1       3       2       1       1       3       2
       1       1       3       2       1       1       3       2       1       1
       3       2       1       1       3       2       1       1       3       2
       1       1       3       2       1       1       3       2       1       1
       3       2       1       1       3       2       1       1       3       2
       1       1       3       2       1       1       3       2       1       1
       3       2       1       1       3       2       1       1       3       2
       1       1       3       2       1       1       3       2       1       1
       3       2       1       1       3       2       1       1       3       2
       1       1       3       2       1       1       3       2       1       1
       3       2       1       1       3       2       1       1       3       2
       1       1       3       2       1       1       3       2       1       1
       3       2       1       1       3       2       1       1       3       2
       1       1       3       2       1       1       3       2       1       1
       3       2       1       1       3       2       1       1       3       2
       1       1       3       2       1       1       3       2       1       1
       3       2       1       1       3       2       1       1       3       2
       1       1       3       2       1       1       3       2       1       1
       3       2       1       1       3       2       1       1       3       2
       1       1       3       2       1       1       3       2       1       1
       3       2       1       1       3       2       1       1       3       2
       1       1       3       2       1       1       3       2       1       1
       3       2       1       1       3       2       1       1       3       2
       1       1       3       2       1       1       3       2       1       1
       3       2       1       1       3       2       1       1       3       2
       1       1       3       2       1       1       3       2       1       1
       3       2       1       1       3       2       1       1       3       2
       1       1       3       2       1       1       3       2       1       1
       3       2       1       1       3       2       1       1       3       2
       1       1       3       2       1       1       3       2       1       1
       3       2       1       1       3       2       1       1       3       2
       1       1       3       2       1       1       3       2       1       1
       3       2       1       1       3       2       1       1       3       2
       1       1       3       2       1       1       3       2       1       1
       3       2       1       1       3       2       1       1       3       2
       1       1       3       2       1       1       3       2       1       1
       3       2       1       1       3       2       1       1       3       2
       1       1       3       2       1       1       3       2       1       1
       3       2       1       1       3       2       1       1       3       2
       1       1       3       2       1       1       3       2       1       1
       3       2       1       1       3       2       1       1       3       2
       1       1       3       2       1       1       3       2       1       1
       3       2       1       1       3       2       1       1       3       2
       1       1       3       2       1       1       3       2       1       1
       3       2       1       1       3       2       1       1       3       2
       1       1       3       2       1       1       3       2       1       1
       3       2       1       1       3       2       1       1       3       2
       1       1       3       2       1       1       3       2       1       1
       3       2       1       1       3       2       1       1       3       2
       1       1       3       2       1       1       3       2       1       1
       3       2       1       1       3       2       1       1       3       2
       1       1       3       2       1       1       3       2       1       1
       3       2       1       1       3       2       1       1       3       2
       1       1       3       2       1       1       3       2       1       1
       3       2       1       1       3       2       1       1       3       2
       1       1       3       2       1       1       3       2       1       1
       3       2       1       1       3       2       1       1       3       2
       1       1       3       2       1       1       3       2       1       1
       3       2       1       1       3       2       1       1       3       2
       1       1       3       2       1       1       3       2       1       1
       3       2       1       1       3       2       1       1       3       2
       1       1       3       2       1       1       3       2       1       1
       3       2       1       1       3       2       1       1       3       2
       1       1       3       2       1       1       3       2       1       1
       3       2       1       1       3       2       1       1       3       2
       1       1       3       2       1       1       3       2       1       1
       3       2       1       1       3       2       1       1       3       2
       1       1       3       2       1       1       3       2       1       1
       3       2       1       1       3       2       1       1       3       2
       1       1       3       2       1       1       3       2       1       1
       3       2       1       1       3       2       1       1       3       2
       1       1       3       2       1       1       3       2       1       1
       3       2       1       1       3       2       1       1       3       2
       1       1       3       2       1       1       3       2       1       1
       3       2       1       1       3       2       1       1       3       2
       1       1       3       2       1       1       3       2       1       1
       3       2       1       1       3       2       1       1       3       2
       1       1       3       2       1       1       3       2       1       1
       3       2       1       1       3       2       1       1       3       2
       1       1       3       2       1       1       3       2       1       1
       3       2       1       1       3       2       1       1       3       2
       1       1       3       2       1       1       3       2       1       1
       3       2       1       1       3       2       1       1       3       2
       1       1       3       2       1       1       3       2       1       1
       3       2       1       1       3       2       1       1       3       2
       1       1       3       2       1       1       3       2       1       1
       3       2       1       1       3       2       1       1       3       2
       1       1       3       2       1       1       3       2       1       1
       3       2       1       1       3       2       1       1       3       2
       1       1       3       2       1       1       3       2       1       1
       3       2       1       1       3       2       1       1       3       2
       1       1       3       2       1       1       3       2       1       1
       3       2       1       1       3       2       1       1       3       2
       1       1       3       2       1       1       3       2       1       1
       3       2       1       1       3       2       1       1       3       2
       1       1       3       2       1       1       3       2       1       1
       3       2       1       1       3       2       1       1       3       2
       1       1       3       2       1       1       3       2       1       1
       3       2       1       1       3       2       1       1       3       2
       1       1       3       2       1       1       3       2       1       1
       3       2       1       1       3       2       1       1       3       2
       1       1       3       2       1       1       3       2       1       1
       3       2       1       1       3       2       1       1       3       2
       1       1       3       2       1       1
%FLAG NONBONDED_PARM_INDEX                                                      
%FORMAT(10I8)                                                                   
       1       2       4       7      11      16      22      29      37      46
      56      67      79      92     106     121     137     154     172     191
     211     232     254     277     301     326     352       2       3       5
       8      12      17      23      30      38      47      57      68      80
      93     107     122     138     155     173     192     212     233     255
     278     302     327     353       4       5       6       9      13      18
      24      31      39      48      58      69      81      94     108     123
     139     156     174     193     213     234     256     279     303     328
     354       7       8       9      10      14      19      25      32      40
      49      59      70      82      95     109     124     140     157     175
     194     214     235     257     280     304     329     355      11      12
      13      14      15      20      26      33      41      50      60      71
      83      96     110     125     141     158     176     195     215     236
     258     281     305     330     356      16      17      18      19      20
      21      27      34      42      51      61      72      84      97     111
     126     142     159     177     196     216     237     259     282     306
     331     357      22      23      24      25      26      27      28      35
      43      52      62      73      85      98     112     127     143     160
     178     197     217     238     260     283     307     332     358      29
      30      31      32      33      34      35      36      44      53      63
      74      86      99     113     128     144     161     179     198     218
     239     261     284     308     333     359      37      38      39      40
      41      42      43      44      45      54      64      75      87     100
     114     129     145     162     180     199     219     240     262     285
     309     334     360      46      47      48      49      50      51      52
      53      54      55      65      76      88     101     115     130     146
     163     181     200     220     241     263     286     310     335     361
      56      57      58      59      60      61      62      63      64      65
      66      77      89     102     116     131     147     164     182     201
     221     242     264     287     311     336     362      67      68      69
      70      71      72      73      74      75      76      77      78      90
     103     117     132     148     165     183     202     222     243     265
     288     312     337     363      79      80      81      82      83      84
      85      86      87      88      89      90      91     104     118     133
     149     166     184     203     223     244     266     289     313     338
     364      92      93      94      95      96      97      98      99     100
     101     102     103     104     105     119     134     150     167     185
     204     224     245     267     290     314     339     365     106     107
     108     109     110     111     112     113     114     115     116     117
     118     119     120     135     151     168     186     205     225     246
     268     291     315     340     366     121     122     123     124     125
     126     127     128     129     130     131     132     133     134     135
     136     152     169     187     206     226     247     269     292     316
     341     367     137     138     139     140     141     142     143     144
     145     146     147     148     149     150     151     152     153     170
     188     207     227     248     270     293     317     342     368     154
     155     156     157     158     159     160     161     162     163     164
     165     166     167     168     169     170     171     189     208     228
     249     271     294     318     343     369     172     173     174     175
     176     177     178     179     180     181     182     183     184     185
     186     187     188     189     190     209     229     250     272     295
     319     344     370     191     192     193     194     195     196     197
     198     199     200     201     202     203     204     205     206     207
     208     209     210     230     251     273     296     320     345     371
     211     212     213     214     215     216     217     218     219     220
     221     222     223     224     225     226     227     228     229     230
     231     252     274     297     321     346     372     232     233     234
     235     236     237     238     239     240     241     242     243     244
     245     246     247     248     249     250     251     252     253     275
     298     322     347     373     254     255     256     257     258     259
     260     261     262     263     264     265     266     267     268     269
     270     271     272     273     274     275     276     299     323     348
     374     277     278     279     280     281     282     283     284     285
     286     287     288     289     290     291     292     293     294     295
     296     297     298     299     300     324     349     375     301     302
     303     304     305     306     307     308     309     310     311     312
     313     314     315     316     317     318     319     320     321     322
     323     324     325     350     376     326     327     328     329     330
     331     332     333     334     335     336     337     338     339     340
     341     342     343     344     345     346     347     348     349     350
     351     377     352     353     354     355     356     357     358     359
     360     361     362     363     364     365     366     367     368     369
     370     371     372     373     374     375     376     377     378
%FLAG RESIDUE_LABEL                                                             
%FORMAT(20a4)                                                                   
G5  G   A   U   C   A   U   A   U   A   A   U   C   G   C   G   U   G   G   A   
U   A   U   G   G   C   A   C   G   C   A   A   G   U   U   U   C   U   A   C   
C   G   G   G   C   A   C   C   G   U   A   A   A   U   G   U   C   C   G   A   
C   U   A   U   G   G   U   C3  Na+ Na+ Na+ Na+ Na+ Na+ Na+ Na+ Na+ Na+ Na+ Na+ 
Na+ Na+ Na+ Na+ Na+ Na+ Na+ Na+ Na+ Na+ Na+ Na+ Na+ Na+ Na+ Na+ Na+ Na+ Na+ Na+ 
Na+ Na+ Na+ Na+ Na+ Na+ Na+ Na+ Na+ Na+ Na+ Na+ Na+ Na+ Na+ Na+ Na+ Na+ Na+ Na+ 
Na+ Na+ Na+ Na+ Na+ Na+ Na+ Na+ Na+ Na+ Na+ Na+ Na+ Na+ Na+ Na+ Cl- Na+ Cl- Na+ 
Cl- Na+ Cl- Na+ Cl- Na+ Cl- Na+ Cl- Na+ Cl- Na+ Cl- Na+ Cl- Na+ Cl- Na+ Cl- Na+ 
Cl- Na+ Cl- Na+ Cl- Na+ Cl- Na+ Cl- Na+ Cl- Na+ Cl- Na+ Cl- Na+ Cl- Na+ Cl- Na+ 
Cl- Na+ Cl- Na+ Cl- Na+ Cl- Na+ Cl- Na+ Cl- Na+ Cl- Na+ Cl- Na+ Cl- Na+ Cl- LIG 
WAT WAT WAT WAT WAT WAT WAT WAT WAT WAT WAT WAT WAT WAT WAT WAT WAT WAT WAT WAT 
WAT WAT WAT WAT WAT WAT WAT WAT WAT WAT WAT WAT WAT WAT WAT WAT WAT WAT WAT WAT 
WAT WAT WAT WAT WAT WAT WAT WAT WAT WAT WAT WAT WAT WAT WAT WAT WAT WAT WAT WAT 
WAT WAT WAT WAT WAT WAT WAT WAT WAT WAT WAT WAT WAT WAT WAT WAT WAT WAT WAT WAT 
WAT WAT WAT WAT WAT WAT WAT WAT WAT WAT WAT WAT WAT WAT WAT WAT WAT WAT WAT WAT 
WAT WAT WAT WAT WAT WAT WAT WAT WAT WAT WAT WAT WAT WAT WAT WAT WAT WAT WAT WAT 
WAT WAT WAT WAT WAT WAT WAT WAT WAT WAT WAT WAT WAT WAT WAT WAT WAT WAT WAT WAT 
WAT WAT WAT WAT WAT WAT WAT WAT WAT WAT WAT WAT WAT WAT WAT WAT WAT WAT WAT WAT 
WAT WAT WAT WAT WAT WAT WAT WAT WAT WAT WAT WAT WAT WAT WAT WAT WAT WAT WAT WAT 
WAT WAT WAT WAT WAT WAT WAT WAT WAT WAT WAT WAT WAT WAT WAT WAT WAT WAT WAT WAT 
WAT WAT WAT WAT WAT WAT WAT WAT WAT WAT WAT WAT WAT WAT WAT WAT WAT WAT WAT WAT 
WAT WAT WAT WAT WAT WAT WAT WAT WAT WAT WAT WAT WAT WAT WAT WAT WAT WAT WAT WAT 
WAT WAT WAT WAT WAT WAT WAT WAT WAT WAT WAT WAT WAT WAT WAT WAT WAT WAT WAT WAT 
WAT WAT WAT WAT WAT WAT WAT WAT WAT WAT WAT WAT WAT WAT WAT WAT WAT WAT WAT WAT 
WAT WAT WAT WAT WAT WAT WAT WAT WAT WAT WAT WAT WAT WAT WAT WAT WAT WAT WAT WAT 
WAT WAT WAT WAT WAT WAT WAT WAT WAT WAT WAT WAT WAT WAT WAT WAT WAT WAT WAT WAT 
WAT WAT WAT WAT WAT WAT WAT WAT WAT WAT WAT WAT WAT WAT WAT WAT WAT WAT WAT WAT 
WAT WAT WAT WAT WAT WAT WAT WAT WAT WAT WAT WAT WAT WAT WAT WAT WAT WAT WAT WAT 
WAT WAT WAT WAT WAT WAT WAT WAT WAT WAT WAT WAT WAT WAT WAT WAT WAT WAT WAT WAT 
WAT WAT WAT WAT WAT WAT WAT WAT WAT WAT WAT WAT WAT WAT WAT WAT WAT WAT WAT WAT 
WAT WAT WAT WAT WAT WAT WAT WAT WAT WAT WAT WAT WAT WAT WAT WAT WAT WAT WAT WAT 
WAT WAT WAT WAT WAT WAT WAT WAT WAT WAT WAT WAT WAT WAT WAT WAT WAT WAT WAT WAT 
WAT WAT WAT WAT WAT WAT WAT WAT WAT WAT WAT WAT WAT WAT WAT WAT WAT WAT WAT WAT 
WAT WAT WAT WAT WAT WAT WAT WAT WAT WAT WAT WAT WAT WAT WAT WAT WAT WAT WAT WAT 
WAT WAT WAT WAT WAT WAT WAT WAT WAT WAT WAT WAT WAT WAT WAT WAT WAT WAT WAT WAT 
WAT WAT WAT WAT WAT WAT WAT WAT WAT WAT WAT WAT WAT WAT WAT WAT WAT WAT WAT WAT 
WAT WAT WAT WAT WAT WAT WAT WAT WAT WAT WAT WAT WAT WAT WAT WAT WAT WAT WAT WAT 
WAT WAT WAT WAT WAT WAT WAT WAT WAT WAT WAT WAT WAT WAT WAT WAT WAT WAT WAT WAT 
WAT WAT WAT WAT WAT WAT WAT WAT WAT WAT WAT WAT WAT WAT WAT WAT WAT WAT WAT WAT 
WAT WAT WAT WAT WAT WAT WAT WAT WAT WAT WAT WAT WAT WAT WAT WAT WAT WAT WAT WAT 
WAT WAT WAT WAT WAT WAT WAT WAT WAT WAT WAT WAT WAT WAT WAT WAT WAT WAT WAT WAT 
WAT WAT WAT WAT WAT WAT WAT WAT WAT WAT WAT WAT WAT WAT WAT WAT WAT WAT WAT WAT 
WAT WAT WAT WAT WAT WAT WAT WAT WAT WAT WAT WAT WAT WAT WAT WAT WAT WAT WAT WAT 
WAT WAT WAT WAT WAT WAT WAT WAT WAT WAT WAT WAT WAT WAT WAT WAT WAT WAT WAT WAT 
WAT WAT WAT WAT WAT WAT WAT WAT WAT WAT WAT WAT WAT WAT WAT WAT WAT WAT WAT WAT 
WAT WAT WAT WAT WAT WAT WAT WAT WAT WAT WAT WAT WAT WAT WAT WAT WAT WAT WAT WAT 
WAT WAT WAT WAT WAT WAT WAT WAT WAT WAT WAT WAT WAT WAT WAT WAT WAT WAT WAT WAT 
WAT WAT WAT WAT WAT WAT WAT WAT WAT WAT WAT WAT WAT WAT WAT WAT WAT WAT WAT WAT 
WAT WAT WAT WAT WAT WAT WAT WAT WAT WAT WAT WAT WAT WAT WAT WAT WAT WAT WAT WAT 
WAT WAT WAT WAT WAT WAT WAT WAT WAT WAT WAT WAT WAT WAT WAT WAT WAT WAT WAT WAT 
WAT WAT WAT WAT WAT WAT WAT WAT WAT WAT WAT WAT WAT WAT WAT WAT WAT WAT WAT WAT 
WAT WAT WAT WAT WAT WAT WAT WAT WAT WAT WAT WAT WAT WAT WAT WAT WAT WAT WAT WAT 
WAT WAT WAT WAT WAT WAT WAT WAT WAT WAT WAT WAT WAT WAT WAT WAT WAT WAT WAT WAT 
WAT WAT WAT WAT WAT WAT WAT WAT WAT WAT WAT WAT WAT WAT WAT WAT WAT WAT WAT WAT 
WAT WAT WAT WAT WAT WAT WAT WAT WAT WAT WAT WAT WAT WAT WAT WAT WAT WAT WAT WAT 
WAT WAT WAT WAT WAT WAT WAT WAT WAT WAT WAT WAT WAT WAT WAT WAT WAT WAT WAT WAT 
WAT WAT WAT WAT WAT WAT WAT WAT WAT WAT WAT WAT WAT WAT WAT WAT WAT WAT WAT WAT 
WAT WAT WAT WAT WAT WAT WAT WAT WAT WAT WAT WAT WAT WAT WAT WAT WAT WAT WAT WAT 
WAT WAT WAT WAT WAT WAT WAT WAT WAT WAT WAT WAT WAT WAT WAT WAT WAT WAT WAT WAT 
WAT WAT WAT WAT WAT WAT WAT WAT WAT WAT WAT WAT WAT WAT WAT WAT WAT WAT WAT WAT 
WAT WAT WAT WAT WAT WAT WAT WAT WAT WAT WAT WAT WAT WAT WAT WAT WAT WAT WAT WAT 
WAT WAT WAT WAT WAT WAT WAT WAT WAT WAT WAT WAT WAT WAT WAT WAT WAT WAT WAT WAT 
WAT WAT WAT WAT WAT WAT WAT WAT WAT WAT WAT WAT WAT WAT WAT WAT WAT WAT WAT WAT 
WAT WAT WAT WAT WAT WAT WAT WAT WAT WAT WAT WAT WAT WAT WAT WAT WAT WAT WAT WAT 
WAT WAT WAT WAT WAT WAT WAT WAT WAT WAT WAT WAT WAT WAT WAT WAT WAT WAT WAT WAT 
WAT WAT WAT WAT WAT WAT WAT WAT WAT WAT WAT WAT WAT WAT WAT WAT WAT WAT WAT WAT 
WAT WAT WAT WAT WAT WAT WAT WAT WAT WAT WAT WAT WAT WAT WAT WAT WAT WAT WAT WAT 
WAT WAT WAT WAT WAT WAT WAT WAT WAT WAT WAT WAT WAT WAT WAT WAT WAT WAT WAT WAT 
WAT WAT WAT WAT WAT WAT WAT WAT WAT WAT WAT WAT WAT WAT WAT WAT WAT WAT WAT WAT 
WAT WAT WAT WAT WAT WAT WAT WAT WAT WAT WAT WAT WAT WAT WAT WAT WAT WAT WAT WAT 
WAT WAT WAT WAT WAT WAT WAT WAT WAT WAT WAT WAT WAT WAT WAT WAT WAT WAT WAT WAT 
WAT WAT WAT WAT WAT WAT WAT WAT WAT WAT WAT WAT WAT WAT WAT WAT WAT WAT WAT WAT 
WAT WAT WAT WAT WAT WAT WAT WAT WAT WAT WAT WAT WAT WAT WAT WAT WAT WAT WAT WAT 
WAT WAT WAT WAT WAT WAT WAT WAT WAT WAT WAT WAT WAT WAT WAT WAT WAT WAT WAT WAT 
WAT WAT WAT WAT WAT WAT WAT WAT WAT WAT WAT WAT WAT WAT WAT WAT WAT WAT WAT WAT 
WAT WAT WAT WAT WAT WAT WAT WAT WAT WAT WAT WAT WAT WAT WAT WAT WAT WAT WAT WAT 
WAT WAT WAT WAT WAT WAT WAT WAT WAT WAT WAT WAT WAT WAT WAT WAT WAT WAT WAT WAT 
WAT WAT WAT WAT WAT WAT WAT WAT WAT WAT WAT WAT WAT WAT WAT WAT WAT WAT WAT WAT 
WAT WAT WAT WAT WAT WAT WAT WAT WAT WAT WAT WAT WAT WAT WAT WAT WAT WAT WAT WAT 
WAT WAT WAT WAT WAT WAT WAT WAT WAT WAT WAT WAT WAT WAT WAT WAT WAT WAT WAT WAT 
WAT WAT WAT WAT WAT WAT WAT WAT WAT WAT WAT WAT WAT WAT WAT WAT WAT WAT WAT WAT 
WAT WAT WAT WAT WAT WAT WAT WAT WAT WAT WAT WAT WAT WAT WAT WAT WAT WAT WAT WAT 
WAT WAT WAT WAT WAT WAT WAT WAT WAT WAT WAT WAT WAT WAT WAT WAT WAT WAT WAT WAT 
WAT WAT WAT WAT WAT WAT WAT WAT WAT WAT WAT WAT WAT WAT WAT WAT WAT WAT WAT WAT 
WAT WAT WAT WAT WAT WAT WAT WAT WAT WAT WAT WAT WAT WAT WAT WAT WAT WAT WAT WAT 
WAT WAT WAT WAT WAT WAT WAT WAT WAT WAT WAT WAT WAT WAT WAT WAT WAT WAT WAT WAT 
WAT WAT WAT WAT WAT WAT WAT WAT WAT WAT WAT WAT WAT WAT WAT WAT WAT WAT WAT WAT 
WAT WAT WAT WAT WAT WAT WAT WAT WAT WAT WAT WAT WAT WAT WAT WAT WAT WAT WAT WAT 
WAT WAT WAT WAT WAT WAT WAT WAT WAT WAT WAT WAT WAT WAT WAT WAT WAT WAT WAT WAT 
WAT WAT WAT WAT WAT WAT WAT WAT WAT WAT WAT WAT WAT WAT WAT WAT WAT WAT WAT WAT 
WAT WAT WAT WAT WAT WAT WAT WAT WAT WAT WAT WAT WAT WAT WAT WAT WAT WAT WAT WAT 
WAT WAT WAT WAT WAT WAT WAT WAT WAT WAT WAT WAT WAT WAT WAT WAT WAT WAT WAT WAT 
WAT WAT WAT WAT WAT WAT WAT WAT WAT WAT WAT WAT WAT WAT WAT WAT WAT WAT WAT WAT 
WAT WAT WAT WAT WAT WAT WAT WAT WAT WAT WAT WAT WAT WAT WAT WAT WAT WAT WAT WAT 
WAT WAT WAT WAT WAT WAT WAT WAT WAT WAT WAT WAT WAT WAT WAT WAT WAT WAT WAT WAT 
WAT WAT WAT WAT WAT WAT WAT WAT WAT WAT WAT WAT WAT WAT WAT WAT WAT WAT WAT WAT 
WAT WAT WAT WAT WAT WAT WAT WAT WAT WAT WAT WAT WAT WAT WAT WAT WAT WAT WAT WAT 
WAT WAT WAT WAT WAT WAT WAT WAT WAT WAT WAT WAT WAT WAT WAT WAT WAT WAT WAT WAT 
WAT WAT WAT WAT WAT WAT WAT WAT WAT WAT WAT WAT WAT WAT WAT WAT WAT WAT WAT WAT 
WAT WAT WAT WAT WAT WAT WAT WAT WAT WAT WAT WAT WAT WAT WAT WAT WAT WAT WAT WAT 
WAT WAT WAT WAT WAT WAT WAT WAT WAT WAT WAT WAT WAT WAT WAT WAT WAT WAT WAT WAT 
WAT WAT WAT WAT WAT WAT WAT WAT WAT WAT WAT WAT WAT WAT WAT WAT WAT WAT WAT WAT 
WAT WAT WAT WAT WAT WAT WAT WAT WAT WAT WAT WAT WAT WAT WAT WAT WAT WAT WAT WAT 
WAT WAT WAT WAT WAT WAT WAT WAT WAT WAT WAT WAT WAT WAT WAT WAT WAT WAT WAT WAT 
WAT WAT WAT WAT WAT WAT WAT WAT WAT WAT WAT WAT WAT WAT WAT WAT WAT WAT WAT WAT 
WAT WAT WAT WAT WAT WAT WAT WAT WAT WAT WAT WAT WAT WAT WAT WAT WAT WAT WAT WAT 
WAT WAT WAT WAT WAT WAT WAT WAT WAT WAT WAT WAT WAT WAT WAT WAT WAT WAT WAT WAT 
WAT WAT WAT WAT WAT WAT WAT WAT WAT WAT WAT WAT WAT WAT WAT WAT WAT WAT WAT WAT 
WAT WAT WAT WAT WAT WAT WAT WAT WAT WAT WAT WAT WAT WAT WAT WAT WAT WAT WAT WAT 
WAT WAT WAT WAT WAT WAT WAT WAT WAT WAT WAT WAT WAT WAT WAT WAT WAT WAT WAT WAT 
WAT WAT WAT WAT WAT WAT WAT WAT WAT WAT WAT WAT WAT WAT WAT WAT WAT WAT WAT WAT 
WAT WAT WAT WAT WAT WAT WAT WAT WAT WAT WAT WAT WAT WAT WAT WAT WAT WAT WAT WAT 
WAT WAT WAT WAT WAT WAT WAT WAT WAT WAT WAT WAT WAT WAT WAT WAT WAT WAT WAT WAT 
WAT WAT WAT WAT WAT WAT WAT WAT WAT WAT WAT WAT WAT WAT WAT WAT WAT WAT WAT WAT 
WAT WAT WAT WAT WAT WAT WAT WAT WAT WAT WAT WAT WAT WAT WAT WAT WAT WAT WAT WAT 
WAT WAT WAT WAT WAT WAT WAT WAT WAT WAT WAT WAT WAT WAT WAT WAT WAT WAT WAT WAT 
WAT WAT WAT WAT WAT WAT WAT WAT WAT WAT WAT WAT WAT WAT WAT WAT WAT WAT WAT WAT 
WAT WAT WAT WAT WAT WAT WAT WAT WAT WAT WAT WAT WAT WAT WAT WAT WAT WAT WAT WAT 
WAT WAT WAT WAT WAT WAT WAT WAT WAT WAT WAT WAT WAT WAT WAT WAT WAT WAT WAT WAT 
WAT WAT WAT WAT WAT WAT WAT WAT WAT WAT WAT WAT WAT WAT WAT WAT WAT WAT WAT WAT 
WAT WAT WAT WAT WAT WAT WAT WAT WAT WAT WAT WAT WAT WAT WAT WAT WAT WAT WAT WAT 
WAT WAT WAT WAT WAT WAT WAT WAT WAT WAT WAT WAT WAT WAT WAT WAT WAT WAT WAT WAT 
WAT WAT WAT WAT WAT WAT WAT WAT WAT WAT WAT WAT WAT WAT WAT WAT WAT WAT WAT WAT 
WAT WAT WAT WAT WAT WAT WAT WAT WAT WAT WAT WAT WAT WAT WAT WAT WAT WAT WAT WAT 
WAT WAT WAT WAT WAT WAT WAT WAT WAT WAT WAT WAT WAT WAT WAT WAT WAT WAT WAT WAT 
WAT WAT WAT WAT WAT WAT WAT WAT WAT WAT WAT WAT WAT WAT WAT WAT WAT WAT WAT WAT 
WAT WAT WAT WAT WAT WAT WAT WAT WAT WAT WAT WAT WAT WAT WAT WAT WAT WAT WAT WAT 
WAT WAT WAT WAT WAT WAT WAT WAT WAT WAT WAT WAT WAT WAT WAT WAT WAT WAT WAT WAT 
WAT WAT WAT WAT WAT WAT WAT WAT WAT WAT WAT WAT WAT WAT WAT WAT WAT WAT WAT WAT 
WAT WAT WAT WAT WAT WAT WAT WAT WAT WAT WAT WAT WAT WAT WAT WAT WAT WAT WAT WAT 
WAT WAT WAT WAT WAT WAT WAT WAT WAT WAT WAT WAT WAT WAT WAT WAT WAT WAT WAT WAT 
WAT WAT WAT WAT WAT WAT WAT WAT WAT WAT WAT WAT WAT WAT WAT WAT WAT WAT WAT WAT 
WAT WAT WAT WAT WAT WAT WAT WAT WAT WAT WAT WAT WAT WAT WAT WAT WAT WAT WAT WAT 
WAT WAT WAT WAT WAT WAT WAT WAT WAT WAT WAT WAT WAT WAT WAT WAT WAT WAT WAT WAT 
WAT WAT WAT WAT WAT WAT WAT WAT WAT WAT WAT WAT WAT WAT WAT WAT WAT WAT WAT WAT 
WAT WAT WAT WAT WAT WAT WAT WAT WAT WAT WAT WAT WAT WAT WAT WAT WAT WAT WAT WAT 
WAT WAT WAT WAT WAT WAT WAT WAT WAT WAT WAT WAT WAT WAT WAT WAT WAT WAT WAT WAT 
WAT WAT WAT WAT WAT WAT WAT WAT WAT WAT WAT WAT WAT WAT WAT WAT WAT WAT WAT WAT 
WAT WAT WAT WAT WAT WAT WAT WAT WAT WAT WAT WAT WAT WAT WAT WAT WAT WAT WAT WAT 
WAT WAT WAT WAT WAT WAT WAT WAT WAT WAT WAT WAT WAT WAT WAT WAT WAT WAT WAT WAT 
WAT WAT WAT WAT WAT WAT WAT WAT WAT WAT WAT WAT WAT WAT WAT WAT WAT WAT WAT WAT 
WAT WAT WAT WAT WAT WAT WAT WAT WAT WAT WAT WAT WAT WAT WAT WAT WAT WAT WAT WAT 
WAT WAT WAT WAT WAT WAT WAT WAT WAT WAT WAT WAT WAT WAT WAT WAT WAT WAT WAT WAT 
WAT WAT WAT WAT WAT WAT WAT WAT WAT WAT WAT WAT WAT WAT WAT WAT WAT WAT WAT WAT 
WAT WAT WAT WAT WAT WAT WAT WAT WAT WAT WAT WAT WAT WAT WAT WAT WAT WAT WAT WAT 
WAT WAT WAT WAT WAT WAT WAT WAT WAT WAT WAT WAT WAT WAT WAT WAT WAT WAT WAT WAT 
WAT WAT WAT WAT WAT WAT WAT WAT WAT WAT WAT WAT WAT WAT WAT WAT WAT WAT WAT WAT 
WAT WAT WAT WAT WAT WAT WAT WAT WAT WAT WAT WAT WAT WAT WAT WAT WAT WAT WAT WAT 
WAT WAT WAT WAT WAT WAT WAT WAT WAT WAT WAT WAT WAT WAT WAT WAT WAT WAT WAT WAT 
WAT WAT WAT WAT WAT WAT WAT WAT WAT WAT WAT WAT WAT WAT WAT WAT WAT WAT WAT WAT 
WAT WAT WAT WAT WAT WAT WAT WAT WAT WAT WAT WAT WAT WAT WAT WAT WAT WAT WAT WAT 
WAT WAT WAT WAT WAT WAT WAT WAT WAT WAT WAT WAT WAT WAT WAT WAT WAT WAT WAT WAT 
WAT WAT WAT WAT WAT WAT WAT WAT WAT WAT WAT WAT WAT WAT WAT WAT WAT WAT WAT WAT 
WAT WAT WAT WAT WAT WAT WAT WAT WAT WAT WAT WAT WAT WAT WAT WAT WAT WAT WAT WAT 
WAT WAT WAT WAT WAT WAT WAT WAT WAT WAT WAT WAT WAT WAT WAT WAT WAT WAT WAT WAT 
WAT WAT WAT WAT WAT WAT WAT WAT WAT WAT WAT WAT WAT WAT WAT WAT WAT WAT WAT WAT 
WAT WAT WAT WAT WAT WAT WAT WAT WAT WAT WAT WAT WAT WAT WAT WAT WAT WAT WAT WAT 
WAT WAT WAT WAT WAT WAT WAT WAT WAT WAT WAT WAT WAT WAT WAT WAT WAT WAT WAT WAT 
WAT WAT WAT WAT WAT WAT WAT WAT WAT WAT WAT WAT WAT WAT WAT WAT WAT WAT WAT WAT 
WAT WAT WAT WAT WAT WAT WAT WAT WAT WAT WAT WAT WAT WAT WAT WAT WAT WAT WAT WAT 
WAT WAT WAT WAT WAT WAT WAT WAT WAT WAT WAT WAT WAT WAT WAT WAT WAT WAT WAT WAT 
WAT WAT WAT WAT WAT WAT WAT WAT WAT WAT WAT WAT WAT WAT WAT WAT WAT WAT WAT WAT 
WAT WAT WAT WAT WAT WAT WAT WAT WAT WAT WAT WAT WAT WAT WAT WAT WAT WAT WAT WAT 
WAT WAT WAT WAT WAT WAT WAT WAT WAT WAT WAT WAT WAT WAT WAT WAT WAT WAT WAT WAT 
WAT WAT WAT WAT WAT WAT WAT WAT WAT WAT WAT WAT WAT WAT WAT WAT WAT WAT WAT WAT 
WAT WAT WAT WAT WAT WAT WAT WAT WAT WAT WAT WAT WAT WAT WAT WAT WAT WAT WAT WAT 
WAT WAT WAT WAT WAT WAT WAT WAT WAT WAT WAT WAT WAT WAT WAT WAT WAT WAT WAT WAT 
WAT WAT WAT WAT WAT WAT WAT WAT WAT WAT WAT WAT WAT WAT WAT WAT WAT WAT WAT WAT 
WAT WAT WAT WAT WAT WAT WAT WAT WAT WAT WAT WAT WAT WAT WAT WAT WAT WAT WAT WAT 
WAT WAT WAT WAT WAT WAT WAT WAT WAT WAT WAT WAT WAT WAT WAT WAT WAT WAT WAT WAT 
WAT WAT WAT WAT WAT WAT WAT WAT WAT WAT WAT WAT WAT WAT WAT WAT WAT WAT WAT WAT 
WAT WAT WAT WAT WAT WAT WAT WAT WAT WAT WAT WAT WAT WAT WAT WAT WAT WAT WAT WAT 
WAT WAT WAT WAT WAT WAT WAT WAT WAT WAT WAT WAT WAT WAT WAT WAT WAT WAT WAT WAT 
WAT WAT WAT WAT WAT WAT WAT WAT WAT WAT WAT WAT WAT WAT WAT WAT WAT WAT WAT WAT 
WAT WAT WAT WAT WAT WAT WAT WAT WAT WAT WAT WAT WAT WAT WAT WAT WAT WAT WAT WAT 
WAT WAT WAT WAT WAT WAT WAT WAT WAT WAT WAT WAT WAT WAT WAT WAT WAT WAT WAT WAT 
WAT WAT WAT WAT WAT WAT WAT WAT WAT WAT WAT WAT WAT WAT WAT WAT WAT WAT WAT WAT 
WAT WAT WAT WAT WAT WAT WAT WAT WAT WAT WAT WAT WAT WAT WAT WAT WAT WAT WAT WAT 
WAT WAT WAT WAT WAT WAT WAT WAT WAT WAT WAT WAT WAT WAT WAT WAT WAT WAT WAT WAT 
WAT WAT WAT WAT WAT WAT WAT WAT WAT WAT WAT WAT WAT WAT WAT WAT WAT WAT WAT WAT 
WAT WAT WAT WAT WAT WAT WAT WAT WAT WAT WAT WAT WAT WAT WAT WAT WAT WAT WAT WAT 
WAT WAT WAT WAT WAT WAT WAT WAT WAT WAT WAT WAT WAT WAT WAT WAT WAT WAT WAT WAT 
WAT WAT WAT WAT WAT WAT WAT WAT WAT WAT WAT WAT WAT WAT WAT WAT WAT WAT WAT WAT 
WAT WAT WAT WAT WAT WAT WAT WAT WAT WAT WAT WAT WAT WAT WAT WAT WAT WAT WAT WAT 
WAT WAT WAT WAT WAT WAT WAT WAT WAT WAT WAT WAT WAT WAT WAT WAT WAT WAT WAT WAT 
WAT WAT WAT WAT WAT WAT WAT WAT WAT WAT WAT WAT WAT WAT WAT WAT WAT WAT WAT WAT 
WAT WAT WAT WAT WAT WAT WAT WAT WAT WAT WAT WAT WAT WAT WAT WAT WAT WAT WAT WAT 
WAT WAT WAT WAT WAT WAT WAT WAT WAT WAT WAT WAT WAT WAT WAT WAT WAT WAT WAT WAT 
WAT WAT WAT WAT WAT WAT WAT WAT WAT WAT WAT WAT WAT WAT WAT WAT WAT WAT WAT WAT 
WAT WAT WAT WAT WAT WAT WAT WAT WAT WAT WAT WAT WAT WAT WAT WAT WAT WAT WAT WAT 
WAT WAT WAT WAT WAT WAT WAT WAT WAT WAT WAT WAT WAT WAT WAT WAT WAT WAT WAT WAT 
WAT WAT WAT WAT WAT WAT WAT WAT WAT WAT WAT WAT WAT WAT WAT WAT WAT WAT WAT WAT 
WAT WAT WAT WAT WAT WAT WAT WAT WAT WAT WAT WAT WAT WAT WAT WAT WAT WAT WAT WAT 
WAT WAT WAT WAT WAT WAT WAT WAT WAT WAT WAT WAT WAT WAT WAT WAT WAT WAT WAT WAT 
WAT WAT WAT WAT WAT WAT WAT WAT WAT WAT WAT WAT WAT WAT WAT WAT WAT WAT WAT WAT 
WAT WAT WAT WAT WAT WAT WAT WAT WAT WAT WAT WAT WAT WAT WAT WAT WAT WAT WAT WAT 
WAT WAT WAT WAT WAT WAT WAT WAT WAT WAT WAT WAT WAT WAT WAT WAT WAT WAT WAT WAT 
WAT WAT WAT WAT WAT WAT WAT WAT WAT WAT WAT WAT WAT WAT WAT WAT WAT WAT WAT WAT 
WAT WAT WAT WAT WAT WAT WAT WAT WAT WAT WAT WAT WAT WAT WAT WAT WAT WAT WAT WAT 
WAT WAT WAT WAT WAT WAT WAT WAT WAT WAT WAT WAT WAT WAT WAT WAT WAT WAT WAT WAT 
WAT WAT WAT WAT WAT WAT WAT WAT WAT WAT WAT WAT WAT WAT WAT WAT WAT WAT WAT WAT 
WAT WAT WAT WAT WAT WAT WAT WAT WAT WAT WAT WAT WAT WAT WAT WAT WAT WAT WAT WAT 
WAT WAT WAT WAT WAT WAT WAT WAT WAT WAT WAT WAT WAT WAT WAT WAT WAT WAT WAT WAT 
WAT WAT WAT WAT WAT WAT WAT WAT WAT WAT WAT WAT WAT WAT WAT WAT WAT WAT WAT WAT 
WAT WAT WAT WAT WAT WAT WAT WAT WAT WAT WAT WAT WAT WAT WAT WAT WAT WAT WAT WAT 
WAT WAT WAT WAT WAT WAT WAT WAT WAT WAT WAT WAT WAT WAT WAT WAT WAT WAT WAT WAT 
WAT WAT WAT WAT WAT WAT WAT WAT WAT WAT WAT WAT WAT WAT WAT WAT WAT WAT WAT WAT 
WAT WAT WAT WAT WAT WAT WAT WAT WAT WAT WAT WAT WAT WAT WAT WAT WAT WAT WAT WAT 
WAT WAT WAT WAT WAT WAT WAT WAT WAT WAT WAT WAT WAT WAT WAT WAT WAT WAT WAT WAT 
WAT WAT WAT WAT WAT WAT WAT WAT WAT WAT WAT WAT WAT WAT WAT WAT WAT WAT WAT WAT 
WAT WAT WAT WAT WAT WAT WAT WAT WAT WAT WAT WAT WAT WAT WAT WAT WAT WAT WAT WAT 
WAT WAT WAT WAT WAT WAT WAT WAT WAT WAT WAT WAT WAT WAT WAT WAT WAT WAT WAT WAT 
WAT WAT WAT WAT WAT WAT WAT WAT WAT WAT WAT WAT WAT WAT WAT WAT WAT WAT WAT WAT 
WAT WAT WAT WAT WAT WAT WAT WAT WAT WAT WAT WAT WAT WAT WAT WAT WAT WAT WAT WAT 
WAT WAT WAT WAT WAT WAT WAT WAT WAT WAT WAT WAT WAT WAT WAT WAT WAT WAT WAT WAT 
WAT WAT WAT WAT WAT WAT WAT WAT WAT WAT WAT WAT WAT WAT WAT WAT WAT WAT WAT WAT 
WAT WAT WAT WAT WAT WAT WAT WAT WAT WAT WAT WAT WAT WAT WAT WAT WAT WAT WAT WAT 
WAT WAT WAT WAT WAT WAT WAT WAT WAT WAT WAT WAT WAT WAT WAT WAT WAT WAT WAT WAT 
WAT WAT WAT WAT WAT WAT WAT WAT WAT WAT WAT WAT WAT WAT WAT WAT WAT WAT WAT WAT 
WAT WAT WAT WAT WAT WAT WAT WAT WAT WAT WAT WAT WAT WAT WAT WAT WAT WAT WAT WAT 
WAT WAT WAT WAT WAT WAT WAT WAT WAT WAT WAT WAT WAT WAT WAT WAT WAT WAT WAT WAT 
WAT WAT WAT WAT WAT WAT WAT WAT WAT WAT WAT WAT WAT WAT WAT WAT WAT WAT WAT WAT 
WAT WAT WAT WAT WAT WAT WAT WAT WAT WAT WAT WAT WAT WAT WAT WAT WAT WAT WAT WAT 
WAT WAT WAT WAT WAT WAT WAT WAT WAT WAT WAT WAT WAT WAT WAT WAT WAT WAT WAT WAT 
WAT WAT WAT WAT WAT WAT WAT WAT WAT WAT WAT WAT WAT WAT WAT WAT WAT WAT WAT WAT 
WAT WAT WAT WAT WAT WAT WAT WAT WAT WAT WAT WAT WAT WAT WAT WAT WAT WAT WAT WAT 
WAT WAT WAT WAT WAT WAT WAT WAT WAT WAT WAT WAT WAT WAT WAT WAT WAT WAT WAT WAT 
WAT WAT WAT WAT WAT WAT WAT WAT WAT WAT WAT WAT WAT WAT WAT WAT WAT WAT WAT WAT 
WAT WAT WAT WAT WAT WAT WAT WAT WAT WAT WAT WAT WAT WAT WAT WAT WAT WAT WAT WAT 
WAT WAT WAT WAT WAT WAT WAT WAT WAT WAT WAT WAT WAT WAT WAT WAT WAT WAT WAT WAT 
WAT WAT WAT WAT WAT WAT WAT WAT WAT WAT WAT WAT WAT WAT WAT WAT WAT WAT WAT WAT 
WAT WAT WAT WAT WAT WAT WAT WAT WAT WAT WAT WAT WAT WAT WAT WAT WAT WAT WAT WAT 
WAT WAT WAT WAT WAT WAT WAT WAT WAT WAT WAT WAT WAT WAT WAT WAT WAT WAT WAT WAT 
WAT WAT WAT WAT WAT WAT WAT WAT WAT WAT WAT WAT WAT WAT WAT WAT WAT WAT WAT WAT 
WAT WAT WAT WAT WAT WAT WAT WAT WAT WAT WAT WAT WAT WAT WAT WAT WAT WAT WAT WAT 
WAT WAT WAT WAT WAT WAT WAT WAT WAT WAT WAT WAT WAT WAT WAT WAT WAT WAT WAT WAT 
WAT WAT WAT WAT WAT WAT WAT WAT WAT WAT WAT WAT WAT WAT WAT WAT WAT WAT WAT WAT 
WAT WAT WAT WAT WAT WAT WAT WAT WAT WAT WAT WAT WAT WAT WAT WAT WAT WAT WAT WAT 
WAT WAT WAT WAT WAT WAT WAT WAT WAT WAT WAT WAT WAT WAT WAT WAT WAT WAT WAT WAT 
WAT WAT WAT WAT WAT WAT WAT WAT WAT WAT WAT WAT WAT WAT WAT WAT WAT WAT WAT WAT 
WAT WAT WAT WAT WAT WAT WAT WAT WAT WAT WAT WAT WAT WAT WAT WAT WAT WAT WAT WAT 
WAT WAT WAT WAT WAT WAT WAT WAT WAT WAT WAT WAT WAT WAT WAT WAT WAT WAT WAT WAT 
WAT WAT WAT WAT WAT WAT WAT WAT WAT WAT WAT WAT WAT WAT WAT WAT WAT WAT WAT WAT 
WAT WAT WAT WAT WAT WAT WAT WAT WAT WAT WAT WAT WAT WAT WAT WAT WAT WAT WAT WAT 
WAT WAT WAT WAT WAT WAT WAT WAT WAT WAT WAT WAT WAT WAT WAT WAT WAT WAT WAT WAT 
WAT WAT WAT WAT WAT WAT WAT WAT WAT WAT WAT WAT WAT WAT WAT WAT WAT WAT WAT WAT 
WAT WAT WAT WAT WAT WAT WAT WAT WAT WAT WAT WAT WAT WAT WAT WAT WAT WAT WAT WAT 
WAT WAT WAT WAT WAT WAT WAT WAT WAT WAT WAT WAT WAT WAT WAT WAT WAT WAT WAT WAT 
WAT WAT WAT WAT WAT WAT WAT WAT WAT WAT WAT WAT WAT WAT WAT WAT WAT WAT WAT WAT 
WAT WAT WAT WAT WAT WAT WAT WAT WAT WAT WAT WAT WAT WAT WAT WAT WAT WAT WAT WAT 
WAT WAT WAT WAT WAT WAT WAT WAT WAT WAT WAT WAT WAT WAT WAT WAT WAT WAT WAT WAT 
WAT WAT WAT WAT WAT WAT WAT WAT WAT WAT WAT WAT WAT WAT WAT WAT WAT WAT WAT WAT 
WAT WAT WAT WAT WAT WAT WAT WAT WAT WAT WAT WAT WAT WAT WAT WAT WAT WAT WAT WAT 
WAT WAT WAT WAT WAT WAT WAT WAT WAT WAT WAT WAT WAT WAT WAT WAT WAT WAT WAT WAT 
WAT WAT WAT WAT WAT WAT WAT WAT WAT WAT WAT WAT WAT WAT WAT WAT WAT WAT WAT WAT 
WAT WAT WAT WAT WAT WAT WAT WAT WAT WAT WAT WAT WAT WAT WAT WAT WAT WAT WAT WAT 
WAT WAT WAT WAT WAT WAT WAT WAT WAT WAT WAT WAT WAT WAT WAT WAT WAT WAT WAT WAT 
WAT WAT WAT WAT WAT WAT WAT WAT WAT WAT WAT WAT WAT WAT WAT WAT WAT WAT WAT WAT 
WAT WAT WAT WAT WAT WAT WAT WAT WAT WAT WAT WAT WAT WAT WAT WAT WAT WAT WAT WAT 
WAT WAT WAT WAT WAT WAT WAT WAT WAT WAT WAT WAT WAT WAT WAT WAT WAT WAT WAT WAT 
WAT WAT WAT WAT WAT WAT WAT WAT WAT WAT WAT WAT WAT WAT WAT WAT WAT WAT WAT WAT 
WAT WAT WAT WAT WAT WAT WAT WAT WAT WAT WAT WAT WAT WAT WAT WAT WAT WAT WAT WAT 
WAT WAT WAT WAT WAT WAT WAT WAT WAT WAT WAT WAT WAT WAT WAT WAT WAT WAT WAT WAT 
WAT WAT WAT WAT WAT WAT WAT WAT WAT WAT WAT WAT WAT WAT WAT WAT WAT WAT WAT WAT 
WAT WAT WAT WAT WAT WAT WAT WAT WAT WAT WAT WAT WAT WAT WAT WAT WAT WAT WAT WAT 
WAT WAT WAT WAT WAT WAT WAT WAT WAT WAT WAT WAT WAT WAT WAT WAT WAT WAT WAT WAT 
WAT WAT WAT WAT WAT WAT WAT WAT WAT WAT WAT WAT WAT WAT WAT WAT WAT WAT WAT WAT 
WAT WAT WAT WAT WAT WAT WAT WAT WAT WAT WAT WAT WAT WAT WAT WAT WAT WAT WAT WAT 
WAT WAT WAT WAT WAT WAT WAT WAT WAT WAT WAT WAT WAT WAT WAT WAT WAT WAT WAT WAT 
WAT WAT WAT WAT WAT WAT WAT WAT WAT WAT WAT WAT WAT WAT WAT WAT WAT WAT WAT WAT 
WAT WAT WAT WAT WAT WAT WAT WAT WAT WAT WAT WAT WAT WAT WAT WAT WAT WAT WAT WAT 
WAT WAT WAT WAT WAT WAT WAT WAT WAT WAT WAT WAT WAT WAT WAT WAT WAT WAT WAT WAT 
WAT WAT WAT WAT WAT WAT WAT WAT WAT WAT WAT WAT WAT WAT WAT WAT WAT WAT WAT WAT 
WAT WAT WAT WAT WAT WAT WAT WAT WAT WAT WAT WAT WAT WAT WAT WAT WAT WAT WAT WAT 
WAT WAT WAT WAT WAT WAT WAT WAT WAT WAT WAT WAT WAT WAT WAT WAT WAT WAT WAT WAT 
WAT WAT WAT WAT WAT WAT WAT WAT WAT WAT WAT WAT WAT WAT WAT WAT WAT WAT WAT WAT 
WAT WAT WAT WAT WAT WAT WAT WAT WAT WAT WAT WAT WAT WAT WAT WAT WAT WAT WAT WAT 
WAT WAT WAT WAT WAT WAT WAT WAT WAT WAT WAT WAT WAT WAT WAT WAT WAT WAT WAT WAT 
WAT WAT WAT WAT WAT WAT WAT WAT WAT WAT WAT WAT WAT WAT WAT WAT WAT WAT WAT WAT 
WAT WAT WAT WAT WAT WAT WAT WAT WAT WAT WAT WAT WAT WAT WAT WAT WAT WAT WAT WAT 
WAT WAT WAT WAT WAT WAT WAT WAT WAT WAT WAT WAT WAT WAT WAT WAT WAT WAT WAT WAT 
WAT WAT WAT WAT WAT WAT WAT WAT WAT WAT WAT WAT WAT WAT WAT WAT WAT WAT WAT WAT 
WAT WAT WAT WAT WAT WAT WAT WAT WAT WAT WAT WAT WAT WAT WAT WAT WAT WAT WAT WAT 
WAT WAT WAT WAT WAT WAT WAT WAT WAT WAT WAT WAT WAT WAT WAT WAT WAT WAT WAT WAT 
WAT WAT WAT WAT WAT WAT WAT WAT WAT WAT WAT WAT WAT WAT WAT WAT WAT WAT WAT WAT 
WAT WAT WAT WAT WAT WAT WAT WAT WAT WAT WAT WAT WAT WAT WAT WAT WAT WAT WAT WAT 
WAT WAT WAT WAT WAT WAT WAT WAT WAT WAT WAT WAT WAT WAT WAT WAT WAT WAT WAT WAT 
WAT WAT WAT WAT WAT WAT WAT WAT WAT WAT WAT WAT WAT WAT WAT WAT WAT WAT WAT WAT 
WAT WAT WAT WAT WAT WAT WAT WAT WAT WAT WAT WAT WAT WAT WAT WAT WAT WAT WAT WAT 
WAT WAT WAT WAT WAT WAT WAT WAT WAT WAT WAT WAT WAT WAT WAT WAT WAT WAT WAT WAT 
WAT WAT WAT WAT WAT WAT WAT WAT WAT WAT WAT WAT WAT WAT WAT WAT WAT WAT WAT WAT 
WAT WAT WAT WAT WAT WAT WAT WAT WAT WAT WAT WAT WAT WAT WAT WAT WAT WAT WAT WAT 
WAT WAT WAT WAT WAT WAT WAT WAT WAT WAT WAT WAT WAT WAT WAT WAT WAT WAT WAT WAT 
WAT WAT WAT WAT WAT WAT WAT WAT WAT WAT WAT WAT WAT WAT WAT WAT WAT WAT WAT WAT 
WAT WAT WAT WAT WAT WAT WAT WAT WAT WAT WAT WAT WAT WAT WAT WAT WAT WAT WAT WAT 
WAT WAT WAT WAT WAT WAT WAT WAT WAT WAT WAT WAT WAT WAT WAT WAT WAT WAT WAT WAT 
WAT WAT WAT WAT WAT WAT WAT WAT WAT WAT WAT WAT WAT WAT WAT WAT WAT WAT WAT WAT 
WAT WAT WAT WAT WAT WAT WAT WAT WAT WAT WAT WAT WAT WAT WAT WAT WAT WAT WAT WAT 
WAT WAT WAT WAT WAT WAT WAT WAT WAT WAT WAT WAT WAT WAT WAT WAT WAT WAT WAT WAT 
WAT WAT WAT WAT WAT WAT WAT WAT WAT WAT WAT WAT WAT WAT WAT WAT WAT WAT WAT WAT 
WAT WAT WAT WAT WAT WAT WAT WAT WAT WAT WAT WAT WAT WAT WAT WAT WAT WAT WAT WAT 
WAT WAT WAT WAT WAT WAT WAT WAT WAT WAT WAT WAT WAT WAT WAT WAT WAT WAT WAT WAT 
WAT WAT WAT WAT WAT WAT WAT WAT WAT WAT WAT WAT WAT WAT WAT WAT WAT WAT WAT WAT 
WAT WAT WAT WAT WAT WAT WAT WAT WAT WAT WAT WAT WAT WAT WAT WAT WAT WAT WAT WAT 
WAT WAT WAT WAT WAT WAT WAT WAT WAT WAT WAT WAT WAT WAT WAT WAT WAT WAT WAT WAT 
WAT WAT WAT WAT WAT WAT WAT WAT WAT WAT WAT WAT WAT WAT WAT WAT WAT WAT WAT WAT 
WAT WAT WAT WAT WAT WAT WAT WAT WAT WAT WAT WAT WAT WAT WAT WAT WAT WAT WAT WAT 
WAT WAT WAT WAT WAT WAT WAT WAT WAT WAT WAT WAT WAT WAT WAT WAT WAT WAT WAT WAT 
WAT WAT WAT WAT WAT WAT WAT WAT WAT WAT WAT WAT WAT WAT WAT WAT WAT WAT WAT WAT 
WAT WAT WAT WAT WAT WAT WAT WAT WAT WAT WAT WAT WAT WAT WAT WAT WAT WAT WAT WAT 
WAT WAT WAT WAT WAT WAT WAT WAT WAT WAT WAT WAT WAT WAT WAT WAT WAT WAT WAT WAT 
WAT WAT WAT WAT WAT WAT WAT WAT WAT WAT WAT WAT WAT WAT WAT WAT WAT WAT WAT WAT 
WAT WAT WAT WAT WAT WAT WAT WAT WAT WAT WAT WAT WAT WAT WAT WAT WAT WAT WAT WAT 
WAT WAT WAT WAT WAT WAT WAT WAT WAT WAT WAT WAT WAT WAT WAT WAT WAT WAT WAT WAT 
WAT WAT WAT WAT WAT WAT WAT WAT WAT WAT WAT WAT WAT WAT WAT WAT WAT WAT WAT WAT 
WAT WAT WAT WAT WAT WAT WAT WAT WAT WAT WAT WAT WAT WAT WAT WAT WAT WAT WAT WAT 
WAT WAT WAT WAT WAT WAT WAT WAT WAT WAT WAT WAT WAT WAT WAT WAT WAT WAT WAT WAT 
WAT WAT WAT WAT WAT WAT WAT WAT WAT WAT WAT WAT WAT WAT WAT WAT WAT WAT WAT WAT 
WAT WAT WAT WAT WAT WAT WAT WAT WAT WAT WAT WAT WAT WAT WAT WAT WAT WAT WAT WAT 
WAT WAT WAT WAT WAT WAT WAT WAT WAT WAT WAT WAT WAT WAT WAT WAT WAT WAT WAT WAT 
WAT WAT WAT WAT WAT WAT WAT WAT WAT WAT WAT WAT WAT WAT WAT WAT WAT WAT WAT WAT 
WAT WAT WAT WAT WAT WAT WAT WAT WAT WAT WAT WAT WAT WAT WAT WAT WAT WAT WAT WAT 
WAT WAT WAT WAT WAT WAT WAT WAT WAT WAT WAT WAT WAT WAT WAT WAT WAT WAT WAT WAT 
WAT WAT WAT WAT WAT WAT WAT WAT WAT WAT WAT WAT WAT WAT WAT WAT WAT WAT WAT WAT 
WAT WAT WAT WAT WAT WAT WAT WAT WAT WAT WAT WAT WAT WAT WAT WAT WAT WAT WAT WAT 
WAT WAT WAT WAT WAT WAT WAT WAT WAT WAT WAT WAT WAT WAT WAT WAT WAT WAT WAT WAT 
WAT WAT WAT WAT WAT WAT WAT WAT WAT WAT WAT WAT WAT WAT WAT WAT WAT WAT WAT WAT 
WAT WAT WAT WAT WAT WAT WAT WAT WAT WAT WAT WAT WAT WAT WAT WAT WAT WAT WAT WAT 
WAT WAT WAT WAT WAT WAT WAT WAT WAT WAT WAT WAT WAT WAT WAT WAT WAT WAT WAT WAT 
WAT WAT WAT WAT WAT WAT WAT WAT WAT WAT WAT WAT WAT WAT WAT WAT WAT WAT WAT WAT 
WAT WAT WAT WAT WAT WAT WAT WAT WAT WAT WAT WAT WAT WAT WAT WAT WAT WAT WAT WAT 
WAT WAT WAT WAT WAT WAT WAT WAT WAT WAT WAT WAT WAT WAT WAT WAT WAT WAT WAT WAT 
WAT WAT WAT WAT WAT WAT WAT WAT WAT WAT WAT WAT WAT WAT WAT WAT WAT WAT WAT WAT 
WAT WAT WAT WAT WAT WAT WAT WAT WAT WAT WAT WAT WAT WAT WAT WAT WAT WAT WAT WAT 
WAT WAT WAT WAT WAT WAT WAT WAT WAT WAT WAT WAT WAT WAT WAT WAT WAT WAT WAT WAT 
WAT WAT WAT WAT WAT WAT WAT WAT WAT WAT WAT WAT WAT WAT WAT WAT WAT WAT WAT WAT 
WAT WAT WAT WAT WAT WAT WAT WAT WAT WAT WAT WAT WAT WAT WAT WAT WAT WAT WAT WAT 
WAT WAT WAT WAT WAT WAT WAT WAT WAT WAT WAT WAT WAT WAT WAT WAT WAT WAT WAT WAT 
WAT WAT WAT WAT WAT WAT WAT WAT WAT WAT WAT WAT WAT WAT WAT WAT WAT WAT WAT WAT 
WAT WAT WAT WAT WAT WAT WAT WAT WAT WAT WAT WAT WAT WAT WAT WAT WAT WAT WAT WAT 
WAT WAT WAT WAT WAT WAT WAT WAT WAT WAT WAT WAT WAT WAT WAT WAT WAT WAT WAT WAT 
WAT WAT WAT WAT WAT WAT WAT WAT WAT WAT WAT WAT WAT WAT WAT WAT WAT WAT WAT WAT 
WAT WAT WAT WAT WAT WAT WAT WAT WAT WAT WAT WAT WAT WAT WAT WAT WAT WAT WAT WAT 
WAT WAT WAT WAT WAT WAT WAT WAT WAT WAT WAT WAT WAT WAT WAT WAT WAT WAT WAT WAT 
WAT WAT WAT WAT WAT WAT WAT WAT WAT WAT WAT WAT WAT WAT WAT WAT WAT WAT WAT WAT 
WAT WAT WAT WAT WAT WAT WAT WAT WAT WAT WAT WAT WAT WAT WAT WAT WAT WAT WAT WAT 
WAT WAT WAT WAT WAT WAT WAT WAT WAT WAT WAT WAT WAT WAT WAT WAT WAT WAT WAT WAT 
WAT WAT WAT WAT WAT WAT WAT WAT WAT WAT WAT WAT WAT WAT WAT WAT WAT WAT WAT WAT 
WAT WAT WAT WAT WAT WAT WAT WAT WAT WAT WAT WAT WAT WAT WAT WAT WAT WAT WAT WAT 
WAT WAT WAT WAT WAT WAT WAT WAT WAT WAT WAT WAT WAT WAT WAT WAT WAT WAT WAT WAT 
WAT WAT WAT WAT WAT WAT WAT WAT WAT WAT WAT WAT WAT WAT WAT WAT WAT WAT WAT WAT 
WAT WAT WAT WAT WAT WAT WAT WAT WAT WAT WAT WAT WAT WAT WAT WAT WAT WAT WAT WAT 
WAT WAT WAT WAT WAT WAT WAT WAT WAT WAT WAT WAT WAT WAT WAT WAT WAT WAT WAT WAT 
WAT WAT WAT WAT WAT WAT WAT WAT WAT WAT WAT WAT WAT WAT WAT WAT WAT WAT WAT WAT 
WAT WAT WAT WAT WAT WAT WAT WAT WAT WAT WAT WAT WAT WAT WAT WAT WAT WAT WAT WAT 
WAT WAT WAT WAT WAT WAT WAT WAT WAT WAT WAT WAT WAT WAT WAT WAT WAT WAT WAT WAT 
WAT WAT WAT WAT WAT WAT WAT WAT WAT WAT WAT WAT WAT WAT WAT WAT WAT WAT WAT WAT 
WAT WAT WAT WAT WAT WAT WAT WAT WAT WAT WAT WAT WAT WAT WAT WAT WAT WAT WAT WAT 
WAT WAT WAT WAT WAT WAT WAT WAT WAT WAT WAT WAT WAT WAT WAT WAT WAT WAT WAT WAT 
WAT WAT WAT WAT WAT WAT WAT WAT WAT WAT WAT WAT WAT WAT WAT WAT WAT WAT WAT WAT 
WAT WAT WAT WAT WAT WAT WAT WAT WAT WAT WAT WAT WAT WAT WAT WAT WAT WAT WAT WAT 
WAT WAT WAT WAT WAT WAT WAT WAT WAT WAT WAT WAT WAT WAT WAT WAT WAT WAT WAT WAT 
WAT WAT WAT WAT WAT WAT WAT WAT WAT WAT WAT WAT WAT WAT WAT WAT WAT WAT WAT WAT 
WAT WAT WAT WAT WAT WAT WAT WAT WAT WAT WAT WAT WAT WAT WAT WAT WAT WAT WAT WAT 
WAT WAT WAT WAT WAT WAT WAT WAT WAT WAT WAT WAT WAT WAT WAT WAT WAT WAT WAT WAT 
WAT WAT WAT WAT WAT WAT WAT WAT WAT WAT WAT WAT WAT WAT WAT WAT WAT WAT WAT WAT 
WAT WAT WAT WAT WAT WAT WAT WAT WAT WAT WAT WAT WAT WAT WAT WAT WAT WAT WAT WAT 
WAT WAT WAT WAT WAT WAT WAT WAT WAT WAT WAT WAT WAT WAT WAT WAT WAT WAT WAT WAT 
WAT WAT WAT WAT WAT WAT WAT WAT WAT WAT WAT WAT WAT WAT WAT WAT WAT WAT WAT WAT 
WAT WAT WAT WAT WAT WAT WAT WAT WAT WAT WAT WAT WAT WAT WAT WAT WAT WAT WAT WAT 
WAT WAT WAT WAT WAT WAT WAT WAT WAT WAT WAT WAT WAT WAT WAT WAT WAT WAT WAT WAT 
WAT WAT WAT WAT WAT WAT WAT WAT WAT WAT WAT WAT WAT WAT WAT WAT WAT WAT WAT WAT 
WAT WAT WAT WAT WAT WAT WAT WAT WAT WAT WAT WAT WAT WAT WAT WAT WAT WAT WAT WAT 
WAT WAT WAT WAT WAT WAT WAT WAT WAT WAT WAT WAT WAT WAT WAT WAT WAT WAT WAT WAT 
WAT WAT WAT WAT WAT WAT WAT WAT WAT WAT WAT WAT WAT WAT WAT WAT WAT WAT WAT WAT 
WAT WAT WAT WAT WAT WAT WAT WAT WAT WAT WAT WAT WAT WAT WAT WAT WAT WAT WAT WAT 
WAT WAT WAT WAT WAT WAT WAT WAT WAT WAT WAT WAT WAT WAT WAT WAT WAT WAT WAT WAT 
WAT WAT WAT WAT WAT WAT WAT WAT WAT WAT WAT WAT WAT WAT WAT WAT WAT WAT WAT WAT 
WAT WAT WAT WAT WAT WAT WAT WAT WAT WAT WAT WAT WAT WAT WAT WAT WAT WAT WAT WAT 
WAT WAT WAT WAT WAT WAT WAT WAT WAT WAT WAT WAT WAT WAT WAT WAT WAT WAT WAT WAT 
WAT WAT WAT WAT WAT WAT WAT WAT WAT WAT WAT WAT WAT WAT WAT WAT WAT WAT WAT WAT 
WAT WAT WAT WAT WAT WAT WAT WAT WAT WAT WAT WAT WAT WAT WAT WAT WAT WAT WAT WAT 
WAT WAT WAT WAT WAT WAT WAT WAT WAT WAT WAT WAT WAT WAT WAT WAT WAT WAT WAT WAT 
WAT WAT WAT WAT WAT WAT WAT WAT WAT WAT WAT WAT WAT WAT WAT WAT WAT WAT WAT WAT 
WAT WAT WAT WAT WAT WAT WAT WAT WAT WAT WAT WAT WAT WAT WAT WAT WAT WAT WAT WAT 
WAT WAT WAT WAT WAT WAT WAT WAT WAT WAT WAT WAT WAT WAT WAT WAT WAT WAT WAT WAT 
WAT WAT WAT WAT WAT WAT WAT WAT WAT WAT WAT WAT WAT WAT WAT WAT WAT WAT WAT WAT 
WAT WAT WAT WAT WAT WAT WAT WAT WAT WAT WAT WAT WAT WAT WAT WAT WAT WAT WAT WAT 
WAT WAT WAT WAT WAT WAT WAT WAT WAT WAT WAT WAT WAT WAT WAT WAT WAT WAT WAT WAT 
WAT WAT WAT WAT WAT WAT WAT WAT WAT WAT WAT WAT WAT WAT WAT WAT WAT WAT WAT WAT 
WAT WAT WAT WAT WAT WAT WAT WAT WAT WAT WAT WAT WAT WAT WAT WAT WAT WAT WAT WAT 
WAT WAT WAT WAT WAT WAT WAT WAT WAT WAT WAT WAT WAT WAT WAT WAT WAT WAT WAT WAT 
WAT WAT WAT WAT WAT WAT WAT WAT WAT WAT WAT WAT WAT WAT WAT WAT WAT WAT WAT WAT 
WAT WAT WAT WAT WAT WAT WAT WAT WAT WAT WAT WAT WAT WAT WAT WAT WAT WAT WAT WAT 
WAT WAT WAT WAT WAT WAT WAT WAT WAT WAT WAT WAT WAT WAT WAT WAT WAT WAT WAT WAT 
WAT WAT WAT WAT WAT WAT WAT WAT WAT WAT WAT WAT WAT WAT WAT WAT WAT WAT WAT WAT 
WAT WAT WAT WAT WAT WAT WAT WAT WAT WAT WAT WAT WAT WAT WAT WAT WAT WAT WAT WAT 
WAT WAT WAT WAT WAT WAT WAT WAT WAT WAT WAT WAT WAT WAT WAT WAT WAT WAT WAT WAT 
WAT WAT WAT WAT WAT WAT WAT WAT WAT WAT WAT WAT WAT WAT WAT WAT WAT WAT WAT WAT 
WAT WAT WAT WAT WAT WAT WAT WAT WAT WAT WAT WAT WAT WAT WAT WAT WAT WAT WAT WAT 
WAT WAT WAT WAT WAT WAT WAT WAT WAT WAT WAT WAT WAT WAT WAT WAT WAT WAT WAT WAT 
WAT WAT WAT WAT WAT WAT WAT WAT WAT WAT WAT WAT WAT WAT WAT WAT WAT WAT WAT WAT 
WAT WAT WAT WAT WAT WAT WAT WAT WAT WAT WAT WAT WAT WAT WAT WAT WAT WAT WAT WAT 
WAT WAT WAT WAT WAT WAT WAT WAT WAT WAT WAT WAT WAT WAT WAT WAT WAT WAT WAT WAT 
WAT WAT WAT WAT WAT WAT WAT WAT WAT WAT WAT WAT WAT WAT WAT WAT WAT WAT WAT WAT 
WAT WAT WAT WAT WAT WAT WAT WAT WAT WAT WAT WAT WAT WAT WAT WAT WAT WAT WAT WAT 
WAT WAT WAT WAT WAT WAT WAT WAT WAT WAT WAT WAT WAT WAT WAT WAT WAT WAT WAT WAT 
WAT WAT WAT WAT WAT WAT WAT WAT WAT WAT WAT WAT WAT WAT WAT WAT WAT WAT WAT WAT 
WAT WAT WAT WAT WAT WAT WAT WAT WAT WAT WAT WAT WAT WAT WAT WAT WAT WAT WAT WAT 
WAT WAT WAT WAT WAT WAT WAT WAT WAT WAT WAT WAT WAT WAT WAT WAT WAT WAT WAT WAT 
WAT WAT WAT WAT WAT WAT WAT WAT WAT WAT WAT WAT WAT WAT WAT WAT WAT WAT WAT WAT 
WAT WAT WAT WAT WAT WAT WAT WAT WAT WAT WAT WAT WAT WAT WAT WAT WAT WAT WAT WAT 
WAT WAT WAT WAT WAT WAT WAT WAT WAT WAT WAT WAT WAT WAT WAT WAT WAT WAT WAT WAT 
WAT WAT WAT WAT WAT WAT WAT WAT WAT WAT WAT WAT WAT WAT WAT WAT WAT WAT WAT WAT 
WAT WAT WAT WAT WAT WAT WAT WAT WAT WAT WAT WAT WAT WAT WAT WAT WAT WAT WAT WAT 
WAT WAT WAT WAT WAT WAT WAT WAT WAT WAT WAT WAT WAT WAT WAT WAT WAT WAT WAT WAT 
WAT WAT WAT WAT WAT WAT WAT WAT WAT WAT WAT WAT WAT WAT WAT WAT WAT WAT WAT WAT 
WAT WAT WAT WAT WAT WAT WAT WAT WAT WAT WAT WAT WAT WAT WAT WAT WAT WAT WAT WAT 
WAT WAT WAT WAT WAT WAT WAT WAT WAT WAT WAT WAT WAT WAT WAT WAT WAT WAT WAT WAT 
WAT WAT WAT WAT WAT WAT WAT WAT WAT WAT WAT WAT WAT WAT WAT WAT WAT WAT WAT WAT 
WAT WAT WAT WAT WAT WAT WAT WAT WAT WAT WAT WAT WAT WAT WAT WAT WAT WAT WAT WAT 
WAT WAT WAT WAT WAT WAT WAT WAT WAT WAT WAT WAT WAT WAT WAT WAT WAT WAT WAT WAT 
WAT WAT WAT WAT WAT WAT WAT WAT WAT WAT WAT WAT WAT WAT WAT WAT WAT WAT WAT WAT 
WAT WAT WAT WAT WAT WAT WAT WAT WAT WAT WAT WAT WAT WAT WAT WAT WAT WAT WAT WAT 
WAT WAT WAT WAT WAT WAT WAT WAT WAT WAT WAT WAT WAT WAT WAT WAT WAT WAT WAT WAT 
WAT WAT WAT WAT WAT WAT WAT WAT WAT WAT WAT WAT WAT WAT WAT WAT WAT WAT WAT WAT 
WAT WAT WAT WAT WAT WAT WAT WAT WAT WAT WAT WAT WAT WAT WAT WAT WAT WAT WAT WAT 
WAT WAT WAT WAT WAT WAT WAT WAT WAT WAT WAT WAT WAT WAT WAT WAT WAT WAT WAT WAT 
WAT WAT WAT WAT WAT WAT WAT WAT WAT WAT WAT WAT WAT WAT WAT WAT WAT WAT WAT WAT 
WAT WAT WAT WAT WAT WAT WAT WAT WAT WAT WAT WAT WAT WAT WAT WAT WAT WAT WAT WAT 
WAT WAT WAT WAT WAT WAT WAT WAT WAT WAT WAT WAT WAT WAT WAT WAT WAT WAT WAT WAT 
WAT WAT WAT WAT WAT WAT WAT WAT WAT WAT WAT WAT WAT WAT WAT WAT WAT WAT WAT WAT 
WAT WAT WAT WAT WAT WAT WAT WAT WAT WAT WAT WAT WAT WAT WAT WAT WAT WAT WAT WAT 
WAT WAT WAT WAT WAT WAT WAT WAT WAT WAT WAT WAT WAT WAT WAT WAT WAT WAT WAT WAT 
WAT WAT WAT WAT WAT WAT WAT WAT WAT WAT WAT WAT WAT WAT WAT WAT WAT WAT WAT WAT 
WAT WAT WAT WAT WAT WAT WAT WAT WAT WAT WAT WAT WAT WAT WAT WAT WAT WAT WAT WAT 
WAT WAT WAT WAT WAT WAT WAT WAT WAT WAT WAT WAT WAT WAT WAT WAT WAT WAT WAT WAT 
WAT WAT WAT WAT WAT WAT WAT WAT WAT WAT WAT WAT WAT WAT WAT WAT WAT WAT WAT WAT 
WAT WAT WAT WAT WAT WAT WAT WAT WAT WAT WAT WAT WAT WAT WAT WAT WAT WAT WAT WAT 
WAT WAT WAT WAT WAT WAT WAT WAT WAT WAT WAT WAT WAT WAT WAT WAT WAT WAT WAT WAT 
WAT WAT WAT WAT WAT WAT WAT WAT WAT WAT WAT WAT WAT WAT WAT WAT WAT WAT WAT WAT 
WAT WAT WAT WAT WAT WAT WAT WAT WAT WAT WAT WAT WAT WAT WAT WAT WAT WAT WAT WAT 
WAT WAT WAT WAT WAT WAT WAT WAT WAT WAT WAT WAT WAT WAT WAT WAT WAT WAT WAT WAT 
WAT WAT WAT WAT WAT WAT WAT WAT WAT WAT WAT WAT WAT WAT WAT WAT WAT WAT WAT WAT 
WAT WAT WAT WAT WAT WAT WAT WAT WAT WAT WAT WAT WAT WAT WAT WAT WAT WAT WAT WAT 
WAT WAT WAT WAT WAT WAT WAT WAT WAT WAT WAT WAT WAT WAT WAT WAT WAT WAT WAT WAT 
WAT WAT WAT WAT WAT WAT WAT WAT WAT WAT WAT WAT WAT WAT WAT WAT WAT WAT WAT WAT 
WAT WAT WAT WAT WAT WAT WAT WAT WAT WAT WAT WAT WAT WAT WAT WAT WAT WAT WAT WAT 
WAT WAT WAT WAT WAT WAT WAT WAT WAT WAT WAT WAT WAT WAT WAT WAT WAT WAT WAT WAT 
WAT WAT WAT WAT WAT WAT WAT WAT WAT WAT WAT WAT WAT WAT WAT WAT WAT WAT WAT WAT 
WAT WAT WAT WAT WAT WAT WAT WAT WAT WAT WAT WAT WAT WAT WAT WAT WAT WAT WAT WAT 
WAT WAT WAT WAT WAT WAT WAT WAT WAT WAT WAT WAT WAT WAT WAT WAT WAT WAT WAT WAT 
WAT WAT WAT WAT WAT WAT WAT WAT WAT WAT WAT WAT WAT WAT WAT WAT WAT WAT WAT WAT 
WAT WAT WAT WAT WAT WAT WAT WAT WAT WAT WAT WAT WAT WAT WAT WAT WAT WAT WAT WAT 
WAT WAT WAT WAT WAT WAT WAT WAT WAT WAT WAT WAT WAT WAT WAT WAT WAT WAT WAT WAT 
WAT WAT WAT WAT WAT WAT WAT WAT WAT WAT WAT WAT WAT WAT WAT WAT WAT WAT WAT WAT 
WAT WAT WAT WAT WAT WAT WAT WAT WAT WAT WAT WAT WAT WAT WAT WAT WAT WAT WAT WAT 
WAT WAT WAT WAT WAT WAT WAT WAT WAT WAT WAT WAT WAT WAT WAT WAT WAT WAT WAT WAT 
WAT WAT WAT WAT WAT WAT WAT WAT WAT WAT WAT WAT WAT WAT WAT WAT WAT WAT WAT WAT 
WAT WAT WAT WAT WAT WAT WAT WAT WAT WAT WAT WAT WAT WAT WAT WAT WAT WAT WAT WAT 
WAT WAT WAT WAT WAT WAT WAT WAT WAT WAT WAT WAT WAT WAT WAT WAT WAT WAT WAT WAT 
WAT WAT WAT WAT WAT WAT WAT WAT WAT WAT WAT WAT WAT WAT WAT WAT WAT WAT WAT WAT 
WAT WAT WAT WAT WAT WAT WAT WAT WAT WAT WAT WAT WAT WAT WAT WAT WAT WAT WAT WAT 
WAT WAT WAT WAT WAT WAT WAT WAT WAT WAT WAT WAT WAT WAT WAT WAT WAT WAT WAT WAT 
WAT WAT WAT WAT WAT WAT WAT WAT WAT WAT WAT WAT WAT WAT WAT WAT WAT WAT WAT WAT 
WAT WAT WAT WAT WAT WAT WAT WAT WAT WAT WAT WAT WAT WAT WAT WAT WAT WAT WAT WAT 
WAT WAT WAT WAT WAT WAT WAT WAT WAT WAT WAT WAT WAT WAT WAT WAT WAT WAT WAT WAT 
WAT WAT WAT WAT WAT WAT WAT WAT WAT WAT WAT WAT WAT WAT WAT WAT WAT WAT WAT WAT 
WAT WAT WAT WAT WAT WAT WAT WAT WAT WAT WAT WAT WAT WAT WAT WAT WAT WAT WAT WAT 
WAT WAT WAT WAT WAT WAT WAT WAT WAT WAT WAT WAT WAT WAT WAT WAT WAT WAT WAT WAT 
WAT WAT WAT WAT WAT WAT WAT WAT WAT WAT WAT WAT WAT WAT WAT WAT WAT WAT WAT WAT 
WAT WAT WAT WAT WAT WAT WAT WAT WAT WAT WAT WAT WAT WAT WAT WAT WAT WAT WAT WAT 
WAT WAT WAT WAT WAT WAT WAT WAT WAT WAT WAT WAT WAT WAT WAT WAT WAT WAT WAT WAT 
WAT WAT WAT WAT WAT WAT WAT WAT WAT WAT WAT WAT WAT WAT WAT WAT WAT WAT WAT WAT 
WAT WAT WAT WAT WAT WAT WAT WAT WAT WAT WAT WAT WAT WAT WAT WAT WAT WAT WAT WAT 
WAT WAT WAT WAT WAT WAT WAT WAT WAT WAT WAT WAT WAT WAT WAT WAT WAT WAT WAT WAT 
WAT WAT WAT WAT WAT WAT WAT WAT WAT WAT WAT WAT WAT WAT WAT WAT WAT WAT WAT WAT 
WAT WAT WAT WAT WAT WAT WAT WAT WAT WAT WAT WAT WAT WAT WAT WAT WAT WAT WAT WAT 
WAT WAT WAT WAT WAT WAT WAT WAT WAT WAT WAT WAT WAT WAT WAT WAT WAT WAT WAT WAT 
WAT WAT WAT WAT WAT WAT WAT WAT WAT WAT WAT WAT WAT WAT WAT WAT WAT WAT WAT WAT 
WAT WAT WAT WAT WAT WAT WAT WAT WAT WAT WAT WAT WAT WAT WAT WAT WAT WAT WAT WAT 
WAT WAT WAT WAT WAT WAT WAT WAT WAT WAT WAT WAT WAT WAT WAT WAT WAT WAT WAT WAT 
WAT WAT WAT WAT WAT WAT WAT WAT WAT WAT WAT WAT WAT WAT WAT WAT WAT WAT WAT WAT 
WAT WAT WAT WAT WAT WAT WAT WAT WAT WAT WAT WAT WAT WAT WAT WAT WAT WAT WAT WAT 
WAT WAT WAT WAT WAT WAT WAT WAT WAT WAT WAT WAT WAT WAT WAT WAT WAT WAT WAT WAT 
WAT WAT WAT WAT WAT WAT WAT WAT WAT WAT WAT WAT WAT WAT WAT WAT WAT WAT WAT WAT 
WAT WAT WAT WAT WAT WAT WAT WAT WAT WAT WAT WAT WAT WAT WAT WAT WAT WAT WAT WAT 
WAT WAT WAT WAT WAT WAT WAT WAT WAT WAT WAT WAT WAT WAT WAT WAT WAT WAT WAT WAT 
WAT WAT WAT WAT WAT WAT WAT WAT WAT WAT WAT WAT WAT WAT WAT WAT WAT WAT WAT WAT 
WAT WAT WAT WAT WAT WAT WAT WAT WAT WAT WAT WAT WAT WAT WAT WAT WAT WAT WAT WAT 
WAT WAT WAT WAT WAT WAT WAT WAT WAT WAT WAT WAT WAT WAT WAT WAT WAT WAT WAT WAT 
WAT WAT WAT WAT WAT WAT WAT WAT WAT WAT WAT WAT WAT WAT WAT WAT WAT WAT WAT WAT 
WAT WAT WAT WAT WAT WAT WAT WAT WAT WAT WAT WAT WAT WAT WAT WAT WAT WAT WAT WAT 
WAT WAT WAT WAT WAT WAT WAT WAT WAT WAT WAT WAT WAT WAT WAT WAT WAT WAT WAT WAT 
WAT WAT WAT WAT WAT WAT WAT WAT WAT WAT WAT WAT WAT WAT WAT WAT WAT WAT WAT WAT 
WAT WAT WAT WAT WAT WAT WAT WAT WAT WAT WAT WAT WAT WAT WAT WAT WAT WAT WAT WAT 
WAT WAT WAT WAT WAT WAT WAT WAT WAT WAT WAT WAT WAT WAT WAT WAT WAT WAT WAT WAT 
WAT WAT WAT WAT WAT WAT WAT WAT WAT WAT WAT WAT WAT WAT WAT WAT WAT WAT WAT WAT 
WAT WAT WAT WAT WAT WAT WAT WAT WAT WAT WAT WAT WAT WAT WAT WAT WAT WAT WAT WAT 
WAT WAT WAT WAT WAT WAT WAT WAT WAT WAT WAT WAT WAT WAT WAT WAT WAT WAT WAT WAT 
WAT WAT WAT WAT WAT WAT WAT WAT WAT WAT WAT WAT WAT WAT WAT WAT WAT WAT WAT WAT 
WAT WAT WAT WAT WAT WAT WAT WAT WAT WAT WAT WAT WAT WAT WAT WAT WAT WAT WAT WAT 
WAT WAT WAT WAT WAT WAT WAT WAT WAT WAT WAT WAT WAT WAT WAT WAT WAT WAT WAT WAT 
WAT WAT WAT WAT WAT WAT WAT WAT WAT WAT WAT WAT WAT WAT WAT WAT WAT WAT WAT WAT 
WAT WAT WAT WAT WAT WAT WAT WAT WAT WAT WAT WAT WAT WAT WAT WAT WAT WAT WAT WAT 
WAT WAT WAT WAT WAT WAT WAT WAT WAT WAT WAT WAT WAT WAT WAT WAT WAT WAT WAT WAT 
WAT WAT WAT WAT WAT WAT WAT WAT WAT WAT WAT WAT WAT WAT WAT WAT WAT WAT WAT WAT 
WAT WAT WAT WAT WAT WAT WAT WAT WAT WAT WAT WAT WAT WAT WAT WAT WAT WAT WAT WAT 
WAT WAT WAT WAT WAT WAT WAT WAT WAT WAT WAT WAT WAT WAT WAT WAT WAT WAT WAT WAT 
WAT WAT WAT WAT WAT WAT WAT WAT WAT WAT WAT WAT WAT WAT WAT WAT WAT WAT WAT WAT 
WAT WAT WAT WAT WAT WAT WAT WAT WAT WAT WAT WAT WAT WAT WAT WAT WAT WAT WAT WAT 
WAT WAT WAT WAT WAT WAT WAT WAT WAT WAT WAT WAT WAT WAT WAT WAT WAT WAT WAT WAT 
WAT WAT WAT WAT WAT WAT WAT WAT WAT WAT WAT WAT WAT WAT WAT WAT WAT WAT WAT WAT 
WAT WAT WAT WAT WAT WAT WAT WAT WAT WAT WAT WAT WAT WAT WAT WAT WAT WAT WAT WAT 
WAT WAT WAT WAT WAT WAT WAT WAT WAT WAT WAT WAT WAT WAT WAT WAT WAT WAT WAT WAT 
WAT WAT WAT WAT WAT WAT WAT WAT WAT WAT WAT WAT WAT WAT WAT WAT WAT WAT WAT WAT 
WAT WAT WAT WAT WAT WAT WAT WAT WAT WAT WAT WAT WAT WAT WAT WAT WAT WAT WAT WAT 
WAT WAT WAT WAT WAT WAT WAT WAT WAT WAT WAT WAT WAT WAT WAT WAT WAT WAT WAT WAT 
WAT WAT WAT WAT WAT WAT WAT WAT WAT WAT WAT WAT WAT WAT WAT WAT WAT WAT WAT WAT 
WAT WAT WAT WAT WAT WAT WAT WAT WAT WAT WAT WAT WAT WAT WAT WAT WAT WAT WAT WAT 
WAT WAT WAT WAT WAT WAT WAT WAT WAT WAT WAT WAT WAT WAT WAT WAT WAT WAT WAT WAT 
WAT WAT WAT WAT WAT WAT WAT WAT WAT WAT WAT WAT WAT WAT WAT WAT WAT WAT WAT WAT 
WAT WAT WAT WAT WAT WAT WAT WAT WAT WAT WAT WAT WAT WAT WAT WAT WAT WAT WAT WAT 
WAT WAT WAT WAT WAT WAT WAT WAT WAT WAT WAT WAT WAT WAT WAT WAT WAT WAT WAT WAT 
WAT WAT WAT WAT WAT WAT WAT WAT WAT WAT WAT WAT WAT WAT WAT WAT WAT WAT WAT WAT 
WAT WAT WAT WAT WAT WAT WAT WAT WAT WAT WAT WAT WAT WAT WAT WAT WAT WAT WAT WAT 
WAT WAT WAT WAT WAT WAT WAT WAT WAT WAT WAT WAT WAT WAT WAT WAT WAT WAT WAT WAT 
WAT WAT WAT WAT WAT WAT WAT WAT WAT WAT WAT WAT WAT WAT WAT WAT WAT WAT WAT WAT 
WAT WAT WAT WAT WAT WAT WAT WAT WAT WAT WAT WAT WAT WAT WAT WAT WAT WAT WAT WAT 
WAT WAT WAT WAT WAT WAT WAT WAT WAT WAT WAT WAT WAT WAT WAT WAT WAT WAT WAT WAT 
WAT WAT WAT WAT WAT WAT WAT WAT WAT WAT WAT WAT WAT WAT WAT WAT WAT WAT WAT WAT 
WAT WAT WAT WAT WAT WAT WAT WAT WAT WAT WAT WAT WAT WAT WAT WAT WAT WAT WAT WAT 
WAT WAT WAT WAT WAT WAT WAT WAT WAT WAT WAT WAT WAT WAT WAT WAT WAT WAT WAT WAT 
WAT WAT WAT WAT WAT WAT WAT WAT WAT WAT WAT WAT WAT WAT WAT WAT WAT WAT WAT WAT 
WAT WAT WAT WAT WAT WAT WAT WAT WAT WAT WAT WAT WAT WAT WAT WAT WAT WAT WAT WAT 
WAT WAT WAT WAT WAT WAT WAT WAT WAT WAT WAT WAT WAT WAT WAT WAT WAT WAT WAT WAT 
WAT WAT WAT WAT WAT WAT WAT WAT WAT WAT WAT WAT WAT WAT WAT WAT WAT WAT WAT WAT 
WAT WAT WAT WAT WAT WAT WAT WAT WAT WAT WAT WAT WAT WAT WAT WAT WAT WAT WAT WAT 
WAT WAT WAT WAT WAT WAT WAT WAT WAT WAT WAT WAT WAT WAT WAT WAT WAT WAT WAT WAT 
WAT WAT WAT WAT WAT WAT WAT WAT WAT WAT WAT WAT WAT WAT WAT WAT WAT WAT WAT WAT 
WAT WAT WAT WAT WAT WAT WAT WAT WAT WAT WAT WAT WAT WAT WAT WAT WAT WAT WAT WAT 
WAT WAT WAT WAT WAT WAT WAT WAT WAT WAT WAT WAT WAT WAT WAT WAT WAT WAT WAT WAT 
WAT WAT WAT WAT WAT WAT WAT WAT WAT WAT WAT WAT WAT WAT WAT WAT WAT WAT WAT WAT 
WAT WAT WAT WAT WAT WAT WAT WAT WAT WAT WAT WAT WAT WAT WAT WAT WAT WAT WAT WAT 
WAT WAT WAT WAT WAT WAT WAT WAT WAT WAT WAT WAT WAT WAT WAT WAT WAT WAT WAT WAT 
WAT WAT WAT WAT WAT WAT WAT WAT WAT WAT WAT WAT WAT WAT WAT WAT WAT WAT WAT WAT 
WAT WAT WAT WAT WAT WAT WAT WAT WAT WAT WAT WAT WAT WAT WAT WAT WAT WAT WAT WAT 
WAT WAT WAT WAT WAT WAT WAT WAT WAT WAT WAT WAT WAT WAT WAT WAT WAT WAT WAT WAT 
WAT WAT WAT WAT WAT WAT WAT WAT WAT WAT WAT WAT WAT WAT WAT WAT WAT WAT WAT WAT 
WAT WAT WAT WAT WAT WAT WAT WAT WAT WAT WAT WAT WAT WAT WAT WAT WAT WAT WAT WAT 
WAT WAT WAT WAT WAT WAT WAT WAT WAT WAT WAT WAT WAT WAT WAT WAT WAT WAT WAT WAT 
WAT WAT WAT WAT WAT WAT WAT WAT WAT WAT WAT WAT WAT WAT WAT WAT WAT WAT WAT WAT 
WAT WAT WAT WAT WAT WAT WAT WAT WAT WAT WAT WAT WAT WAT WAT WAT WAT WAT WAT WAT 
WAT WAT WAT WAT WAT WAT WAT WAT WAT WAT WAT WAT WAT WAT WAT WAT WAT WAT WAT WAT 
WAT WAT WAT WAT WAT WAT WAT WAT WAT WAT WAT WAT WAT WAT WAT WAT WAT WAT WAT WAT 
WAT WAT WAT WAT WAT WAT WAT WAT WAT WAT WAT WAT WAT WAT WAT WAT WAT WAT WAT WAT 
WAT WAT WAT WAT WAT WAT WAT WAT WAT WAT WAT WAT WAT WAT WAT WAT WAT WAT WAT WAT 
WAT WAT WAT WAT WAT WAT WAT WAT WAT WAT WAT WAT WAT WAT WAT WAT WAT WAT WAT WAT 
WAT WAT WAT WAT WAT WAT WAT WAT WAT WAT WAT WAT WAT WAT WAT WAT WAT WAT WAT WAT 
WAT WAT WAT WAT WAT WAT WAT WAT WAT WAT WAT WAT WAT WAT WAT WAT WAT WAT WAT WAT 
WAT WAT WAT WAT WAT WAT WAT WAT WAT WAT WAT WAT WAT WAT WAT WAT WAT WAT WAT WAT 
WAT WAT WAT WAT WAT WAT WAT WAT WAT WAT WAT WAT WAT WAT WAT WAT WAT WAT WAT WAT 
WAT WAT WAT WAT WAT WAT WAT WAT WAT WAT WAT WAT WAT WAT WAT WAT WAT WAT WAT WAT 
WAT WAT WAT WAT WAT WAT WAT WAT WAT WAT WAT WAT WAT WAT WAT WAT WAT WAT WAT WAT 
WAT WAT WAT WAT WAT WAT WAT WAT WAT WAT WAT WAT WAT WAT WAT WAT WAT WAT WAT WAT 
WAT WAT WAT WAT WAT WAT WAT WAT WAT WAT WAT WAT WAT WAT WAT WAT WAT WAT WAT WAT 
WAT WAT WAT WAT WAT WAT WAT WAT WAT WAT WAT WAT WAT WAT WAT WAT WAT WAT WAT WAT 
WAT WAT WAT WAT WAT WAT WAT WAT WAT WAT WAT WAT WAT WAT WAT WAT WAT WAT WAT WAT 
WAT WAT WAT WAT WAT WAT WAT WAT WAT WAT WAT WAT WAT WAT WAT WAT WAT WAT WAT WAT 
WAT WAT WAT WAT WAT WAT WAT WAT WAT WAT WAT WAT WAT WAT WAT WAT WAT WAT WAT WAT 
WAT WAT WAT WAT WAT WAT WAT WAT WAT WAT WAT WAT WAT WAT WAT WAT WAT WAT WAT WAT 
WAT WAT WAT WAT WAT WAT WAT WAT WAT WAT WAT WAT WAT WAT WAT WAT WAT WAT WAT WAT 
WAT WAT WAT WAT WAT WAT WAT WAT WAT WAT WAT WAT WAT WAT WAT WAT WAT WAT WAT WAT 
WAT WAT WAT WAT WAT WAT WAT WAT WAT WAT WAT WAT WAT WAT WAT WAT WAT WAT WAT WAT 
WAT WAT WAT WAT WAT WAT WAT WAT WAT WAT WAT WAT WAT WAT WAT WAT WAT WAT WAT WAT 
WAT WAT WAT WAT WAT WAT WAT WAT WAT WAT WAT WAT WAT WAT WAT WAT WAT WAT WAT WAT 
WAT WAT WAT WAT WAT WAT WAT WAT WAT WAT WAT WAT WAT WAT WAT WAT WAT WAT WAT WAT 
WAT WAT WAT WAT WAT WAT WAT WAT WAT WAT WAT WAT WAT WAT WAT WAT WAT WAT WAT WAT 
WAT WAT WAT WAT WAT WAT WAT WAT WAT WAT WAT WAT WAT WAT WAT WAT WAT WAT WAT WAT 
WAT WAT WAT WAT WAT WAT WAT WAT WAT WAT WAT WAT WAT WAT WAT WAT WAT WAT WAT WAT 
WAT WAT WAT WAT WAT WAT WAT WAT WAT WAT WAT WAT WAT WAT WAT WAT WAT WAT WAT WAT 
WAT WAT WAT WAT WAT WAT WAT WAT WAT WAT WAT WAT WAT WAT WAT WAT WAT WAT WAT WAT 
WAT WAT WAT WAT WAT WAT WAT WAT WAT WAT WAT WAT WAT WAT WAT WAT WAT WAT WAT WAT 
WAT WAT WAT WAT WAT WAT WAT WAT WAT WAT WAT WAT WAT WAT WAT WAT WAT WAT WAT WAT 
WAT WAT WAT WAT WAT WAT WAT WAT WAT WAT WAT WAT WAT WAT WAT WAT WAT WAT WAT WAT 
WAT WAT WAT WAT WAT WAT WAT WAT WAT WAT WAT WAT WAT WAT WAT WAT WAT WAT WAT WAT 
WAT WAT WAT WAT WAT WAT WAT WAT WAT WAT WAT WAT WAT WAT WAT WAT WAT WAT WAT WAT 
WAT WAT WAT WAT WAT WAT WAT WAT WAT WAT WAT WAT WAT WAT WAT WAT WAT WAT WAT WAT 
WAT WAT WAT WAT WAT WAT WAT WAT WAT WAT WAT WAT WAT WAT WAT WAT WAT WAT WAT WAT 
WAT WAT WAT WAT WAT WAT WAT WAT WAT WAT WAT WAT WAT WAT WAT WAT WAT WAT WAT WAT 
WAT WAT WAT WAT WAT WAT WAT WAT WAT WAT WAT WAT WAT WAT WAT WAT WAT WAT WAT WAT 
WAT WAT WAT WAT WAT WAT WAT WAT WAT WAT WAT WAT WAT WAT WAT WAT WAT WAT WAT WAT 
WAT WAT WAT WAT WAT WAT WAT WAT WAT WAT WAT WAT WAT WAT WAT WAT WAT WAT WAT WAT 
WAT WAT WAT WAT WAT WAT WAT WAT WAT WAT WAT WAT WAT WAT WAT WAT WAT WAT WAT WAT 
WAT WAT WAT WAT WAT WAT WAT WAT WAT WAT WAT WAT WAT WAT WAT WAT WAT WAT WAT WAT 
WAT WAT WAT WAT WAT WAT WAT WAT WAT WAT WAT WAT WAT WAT WAT WAT WAT WAT WAT WAT 
WAT WAT WAT WAT WAT WAT WAT WAT WAT WAT WAT WAT WAT WAT WAT WAT WAT WAT WAT WAT 
WAT WAT WAT WAT WAT WAT WAT WAT WAT WAT WAT WAT WAT WAT WAT WAT WAT WAT WAT WAT 
WAT WAT WAT WAT WAT WAT WAT WAT WAT WAT WAT WAT WAT WAT WAT WAT WAT WAT WAT WAT 
WAT WAT WAT WAT WAT WAT WAT WAT WAT WAT WAT WAT WAT WAT WAT WAT WAT WAT WAT WAT 
WAT WAT WAT WAT WAT WAT WAT WAT WAT WAT WAT WAT WAT WAT WAT WAT WAT WAT WAT WAT 
WAT WAT WAT WAT WAT WAT WAT WAT WAT WAT WAT WAT WAT WAT WAT WAT WAT WAT WAT WAT 
WAT WAT WAT WAT WAT WAT WAT WAT WAT WAT WAT WAT WAT WAT WAT WAT WAT WAT WAT WAT 
WAT WAT WAT WAT WAT WAT WAT WAT WAT WAT WAT WAT WAT WAT WAT WAT WAT WAT WAT WAT 
WAT WAT WAT WAT WAT WAT WAT WAT WAT WAT WAT WAT WAT WAT WAT WAT WAT WAT WAT WAT 
WAT WAT WAT WAT WAT WAT WAT WAT WAT WAT WAT WAT WAT WAT WAT WAT WAT WAT WAT WAT 
WAT WAT WAT WAT WAT WAT WAT WAT WAT WAT WAT WAT WAT WAT WAT WAT WAT WAT WAT WAT 
WAT WAT WAT WAT WAT WAT WAT WAT WAT WAT WAT WAT WAT WAT WAT WAT WAT WAT WAT WAT 
WAT WAT WAT WAT WAT WAT WAT WAT WAT WAT WAT WAT WAT WAT WAT WAT WAT WAT WAT WAT 
WAT WAT WAT WAT WAT WAT WAT WAT WAT WAT WAT WAT WAT WAT WAT WAT WAT WAT WAT WAT 
WAT WAT WAT WAT WAT WAT WAT WAT WAT WAT WAT WAT WAT WAT WAT WAT WAT WAT WAT WAT 
WAT WAT WAT WAT WAT WAT WAT WAT WAT WAT WAT WAT WAT WAT WAT WAT WAT WAT WAT WAT 
WAT WAT WAT WAT WAT WAT WAT WAT WAT WAT WAT WAT WAT WAT WAT WAT WAT WAT WAT WAT 
WAT WAT WAT WAT WAT WAT WAT WAT WAT WAT WAT WAT WAT WAT WAT WAT WAT WAT WAT WAT 
WAT WAT WAT WAT WAT WAT WAT WAT WAT WAT WAT WAT WAT WAT WAT WAT WAT WAT WAT WAT 
WAT WAT WAT WAT WAT WAT WAT WAT WAT WAT WAT WAT WAT WAT WAT WAT WAT WAT WAT WAT 
WAT WAT WAT WAT WAT WAT WAT WAT WAT WAT WAT WAT WAT WAT WAT WAT WAT WAT WAT WAT 
WAT WAT WAT WAT WAT WAT WAT WAT WAT WAT WAT WAT WAT WAT WAT WAT WAT WAT WAT WAT 
WAT WAT WAT WAT WAT WAT WAT WAT WAT WAT WAT WAT WAT WAT WAT WAT WAT WAT WAT WAT 
WAT WAT WAT WAT WAT WAT WAT WAT WAT WAT WAT WAT WAT WAT WAT WAT WAT WAT WAT WAT 
WAT WAT WAT WAT WAT WAT WAT WAT WAT WAT WAT WAT WAT WAT WAT WAT WAT WAT WAT WAT 
WAT WAT WAT WAT WAT WAT WAT WAT WAT WAT WAT WAT WAT WAT WAT WAT WAT WAT WAT WAT 
WAT WAT WAT WAT WAT WAT WAT WAT WAT WAT WAT WAT WAT WAT WAT WAT WAT WAT WAT WAT 
WAT WAT WAT WAT WAT WAT WAT WAT WAT WAT WAT WAT WAT WAT WAT WAT WAT WAT WAT WAT 
WAT WAT WAT WAT WAT WAT WAT WAT WAT WAT WAT WAT WAT WAT WAT WAT WAT WAT WAT WAT 
WAT WAT WAT WAT WAT WAT WAT WAT WAT WAT WAT WAT WAT WAT WAT WAT WAT WAT WAT WAT 
WAT WAT WAT WAT WAT WAT WAT WAT WAT WAT WAT WAT WAT WAT WAT WAT WAT WAT WAT WAT 
WAT WAT WAT WAT WAT WAT WAT WAT WAT WAT WAT WAT WAT WAT WAT WAT WAT WAT WAT WAT 
WAT WAT WAT WAT WAT WAT WAT WAT WAT WAT WAT WAT WAT WAT WAT WAT WAT WAT WAT WAT 
WAT WAT WAT WAT WAT WAT WAT WAT WAT WAT WAT WAT WAT WAT WAT WAT WAT WAT WAT WAT 
WAT WAT WAT WAT WAT WAT WAT WAT WAT WAT WAT WAT WAT WAT WAT WAT WAT WAT WAT WAT 
WAT WAT WAT WAT WAT WAT WAT WAT WAT WAT WAT WAT WAT WAT WAT WAT WAT WAT WAT WAT 
WAT WAT WAT WAT WAT WAT WAT WAT WAT WAT WAT WAT WAT WAT WAT WAT WAT WAT WAT WAT 
WAT WAT WAT WAT WAT WAT WAT WAT WAT WAT WAT WAT WAT WAT WAT WAT WAT WAT WAT WAT 
WAT WAT WAT WAT WAT WAT WAT WAT WAT WAT WAT WAT WAT WAT WAT WAT WAT WAT WAT WAT 
WAT WAT WAT WAT WAT WAT WAT WAT WAT WAT WAT WAT WAT WAT WAT WAT WAT WAT WAT WAT 
WAT WAT WAT WAT WAT WAT WAT WAT WAT WAT WAT WAT WAT WAT WAT WAT WAT WAT WAT WAT 
WAT WAT WAT WAT WAT WAT WAT WAT WAT WAT WAT WAT WAT WAT WAT WAT WAT WAT WAT WAT 
WAT WAT WAT WAT WAT WAT WAT WAT WAT WAT WAT WAT WAT WAT WAT WAT WAT WAT WAT WAT 
WAT WAT WAT WAT WAT WAT WAT WAT WAT WAT WAT WAT WAT WAT WAT WAT WAT WAT WAT WAT 
WAT WAT WAT WAT WAT WAT WAT WAT WAT WAT WAT WAT WAT WAT WAT WAT WAT WAT WAT WAT 
WAT WAT WAT WAT WAT WAT WAT WAT WAT WAT WAT WAT WAT WAT WAT 
%FLAG RESIDUE_POINTER                                                           
%FORMAT(10I8)                                                                   
       1      33      67     100     130     161     194     224     257     287
     320     353     383     414     448     479     513     543     577     611
     644     674     707     737     771     805     836     869     900     934
     965     998    1031    1065    1095    1125    1155    1186    1216    1249
    1280    1311    1345    1379    1413    1444    1477    1508    1539    1573
    1603    1636    1669    1702    1732    1766    1796    1827    1858    1892
    1925    1956    1986    2019    2049    2083    2117    2147    2179    2180
    2181    2182    2183    2184    2185    2186    2187    2188    2189    2190
    2191    2192    2193    2194    2195    2196    2197    2198    2199    2200
    2201    2202    2203    2204    2205    2206    2207    2208    2209    2210
    2211    2212    2213    2214    2215    2216    2217    2218    2219    2220
    2221    2222    2223    2224    2225    2226    2227    2228    2229    2230
    2231    2232    2233    2234    2235    2236    2237    2238    2239    2240
    2241    2242    2243    2244    2245    2246    2247    2248    2249    2250
    2251    2252    2253    2254    2255    2256    2257    2258    2259    2260
    2261    2262    2263    2264    2265    2266    2267    2268    2269    2270
    2271    2272    2273    2274    2275    2276    2277    2278    2279    2280
    2281    2282    2283    2284    2285    2286    2287    2288    2289    2290
    2291    2292    2293    2294    2295    2296    2297    2298    2299    2300
    2301    2302    2303    2304    2305    2306    2307    2308    2309    2310
    2327    2331    2335    2339    2343    2347    2351    2355    2359    2363
    2367    2371    2375    2379    2383    2387    2391    2395    2399    2403
    2407    2411    2415    2419    2423    2427    2431    2435    2439    2443
    2447    2451    2455    2459    2463    2467    2471    2475    2479    2483
    2487    2491    2495    2499    2503    2507    2511    2515    2519    2523
    2527    2531    2535    2539    2543    2547    2551    2555    2559    2563
    2567    2571    2575    2579    2583    2587    2591    2595    2599    2603
    2607    2611    2615    2619    2623    2627    2631    2635    2639    2643
    2647    2651    2655    2659    2663    2667    2671    2675    2679    2683
    2687    2691    2695    2699    2703    2707    2711    2715    2719    2723
    2727    2731    2735    2739    2743    2747    2751    2755    2759    2763
    2767    2771    2775    2779    2783    2787    2791    2795    2799    2803
    2807    2811    2815    2819    2823    2827    2831    2835    2839    2843
    2847    2851    2855    2859    2863    2867    2871    2875    2879    2883
    2887    2891    2895    2899    2903    2907    2911    2915    2919    2923
    2927    2931    2935    2939    2943    2947    2951    2955    2959    2963
    2967    2971    2975    2979    2983    2987    2991    2995    2999    3003
    3007    3011    3015    3019    3023    3027    3031    3035    3039    3043
    3047    3051    3055    3059    3063    3067    3071    3075    3079    3083
    3087    3091    3095    3099    3103    3107    3111    3115    3119    3123
    3127    3131    3135    3139    3143    3147    3151    3155    3159    3163
    3167    3171    3175    3179    3183    3187    3191    3195    3199    3203
    3207    3211    3215    3219    3223    3227    3231    3235    3239    3243
    3247    3251    3255    3259    3263    3267    3271    3275    3279    3283
    3287    3291    3295    3299    3303    3307    3311    3315    3319    3323
    3327    3331    3335    3339    3343    3347    3351    3355    3359    3363
    3367    3371    3375    3379    3383    3387    3391    3395    3399    3403
    3407    3411    3415    3419    3423    3427    3431    3435    3439    3443
    3447    3451    3455    3459    3463    3467    3471    3475    3479    3483
    3487    3491    3495    3499    3503    3507    3511    3515    3519    3523
    3527    3531    3535    3539    3543    3547    3551    3555    3559    3563
    3567    3571    3575    3579    3583    3587    3591    3595    3599    3603
    3607    3611    3615    3619    3623    3627    3631    3635    3639    3643
    3647    3651    3655    3659    3663    3667    3671    3675    3679    3683
    3687    3691    3695    3699    3703    3707    3711    3715    3719    3723
    3727    3731    3735    3739    3743    3747    3751    3755    3759    3763
    3767    3771    3775    3779    3783    3787    3791    3795    3799    3803
    3807    3811    3815    3819    3823    3827    3831    3835    3839    3843
    3847    3851    3855    3859    3863    3867    3871    3875    3879    3883
    3887    3891    3895    3899    3903    3907    3911    3915    3919    3923
    3927    3931    3935    3939    3943    3947    3951    3955    3959    3963
    3967    3971    3975    3979    3983    3987    3991    3995    3999    4003
    4007    4011    4015    4019    4023    4027    4031    4035    4039    4043
    4047    4051    4055    4059    4063    4067    4071    4075    4079    4083
    4087    4091    4095    4099    4103    4107    4111    4115    4119    4123
    4127    4131    4135    4139    4143    4147    4151    4155    4159    4163
    4167    4171    4175    4179    4183    4187    4191    4195    4199    4203
    4207    4211    4215    4219    4223    4227    4231    4235    4239    4243
    4247    4251    4255    4259    4263    4267    4271    4275    4279    4283
    4287    4291    4295    4299    4303    4307    4311    4315    4319    4323
    4327    4331    4335    4339    4343    4347    4351    4355    4359    4363
    4367    4371    4375    4379    4383    4387    4391    4395    4399    4403
    4407    4411    4415    4419    4423    4427    4431    4435    4439    4443
    4447    4451    4455    4459    4463    4467    4471    4475    4479    4483
    4487    4491    4495    4499    4503    4507    4511    4515    4519    4523
    4527    4531    4535    4539    4543    4547    4551    4555    4559    4563
    4567    4571    4575    4579    4583    4587    4591    4595    4599    4603
    4607    4611    4615    4619    4623    4627    4631    4635    4639    4643
    4647    4651    4655    4659    4663    4667    4671    4675    4679    4683
    4687    4691    4695    4699    4703    4707    4711    4715    4719    4723
    4727    4731    4735    4739    4743    4747    4751    4755    4759    4763
    4767    4771    4775    4779    4783    4787    4791    4795    4799    4803
    4807    4811    4815    4819    4823    4827    4831    4835    4839    4843
    4847    4851    4855    4859    4863    4867    4871    4875    4879    4883
    4887    4891    4895    4899    4903    4907    4911    4915    4919    4923
    4927    4931    4935    4939    4943    4947    4951    4955    4959    4963
    4967    4971    4975    4979    4983    4987    4991    4995    4999    5003
    5007    5011    5015    5019    5023    5027    5031    5035    5039    5043
    5047    5051    5055    5059    5063    5067    5071    5075    5079    5083
    5087    5091    5095    5099    5103    5107    5111    5115    5119    5123
    5127    5131    5135    5139    5143    5147    5151    5155    5159    5163
    5167    5171    5175    5179    5183    5187    5191    5195    5199    5203
    5207    5211    5215    5219    5223    5227    5231    5235    5239    5243
    5247    5251    5255    5259    5263    5267    5271    5275    5279    5283
    5287    5291    5295    5299    5303    5307    5311    5315    5319    5323
    5327    5331    5335    5339    5343    5347    5351    5355    5359    5363
    5367    5371    5375    5379    5383    5387    5391    5395    5399    5403
    5407    5411    5415    5419    5423    5427    5431    5435    5439    5443
    5447    5451    5455    5459    5463    5467    5471    5475    5479    5483
    5487    5491    5495    5499    5503    5507    5511    5515    5519    5523
    5527    5531    5535    5539    5543    5547    5551    5555    5559    5563
    5567    5571    5575    5579    5583    5587    5591    5595    5599    5603
    5607    5611    5615    5619    5623    5627    5631    5635    5639    5643
    5647    5651    5655    5659    5663    5667    5671    5675    5679    5683
    5687    5691    5695    5699    5703    5707    5711    5715    5719    5723
    5727    5731    5735    5739    5743    5747    5751    5755    5759    5763
    5767    5771    5775    5779    5783    5787    5791    5795    5799    5803
    5807    5811    5815    5819    5823    5827    5831    5835    5839    5843
    5847    5851    5855    5859    5863    5867    5871    5875    5879    5883
    5887    5891    5895    5899    5903    5907    5911    5915    5919    5923
    5927    5931    5935    5939    5943    5947    5951    5955    5959    5963
    5967    5971    5975    5979    5983    5987    5991    5995    5999    6003
    6007    6011    6015    6019    6023    6027    6031    6035    6039    6043
    6047    6051    6055    6059    6063    6067    6071    6075    6079    6083
    6087    6091    6095    6099    6103    6107    6111    6115    6119    6123
    6127    6131    6135    6139    6143    6147    6151    6155    6159    6163
    6167    6171    6175    6179    6183    6187    6191    6195    6199    6203
    6207    6211    6215    6219    6223    6227    6231    6235    6239    6243
    6247    6251    6255    6259    6263    6267    6271    6275    6279    6283
    6287    6291    6295    6299    6303    6307    6311    6315    6319    6323
    6327    6331    6335    6339    6343    6347    6351    6355    6359    6363
    6367    6371    6375    6379    6383    6387    6391    6395    6399    6403
    6407    6411    6415    6419    6423    6427    6431    6435    6439    6443
    6447    6451    6455    6459    6463    6467    6471    6475    6479    6483
    6487    6491    6495    6499    6503    6507    6511    6515    6519    6523
    6527    6531    6535    6539    6543    6547    6551    6555    6559    6563
    6567    6571    6575    6579    6583    6587    6591    6595    6599    6603
    6607    6611    6615    6619    6623    6627    6631    6635    6639    6643
    6647    6651    6655    6659    6663    6667    6671    6675    6679    6683
    6687    6691    6695    6699    6703    6707    6711    6715    6719    6723
    6727    6731    6735    6739    6743    6747    6751    6755    6759    6763
    6767    6771    6775    6779    6783    6787    6791    6795    6799    6803
    6807    6811    6815    6819    6823    6827    6831    6835    6839    6843
    6847    6851    6855    6859    6863    6867    6871    6875    6879    6883
    6887    6891    6895    6899    6903    6907    6911    6915    6919    6923
    6927    6931    6935    6939    6943    6947    6951    6955    6959    6963
    6967    6971    6975    6979    6983    6987    6991    6995    6999    7003
    7007    7011    7015    7019    7023    7027    7031    7035    7039    7043
    7047    7051    7055    7059    7063    7067    7071    7075    7079    7083
    7087    7091    7095    7099    7103    7107    7111    7115    7119    7123
    7127    7131    7135    7139    7143    7147    7151    7155    7159    7163
    7167    7171    7175    7179    7183    7187    7191    7195    7199    7203
    7207    7211    7215    7219    7223    7227    7231    7235    7239    7243
    7247    7251    7255    7259    7263    7267    7271    7275    7279    7283
    7287    7291    7295    7299    7303    7307    7311    7315    7319    7323
    7327    7331    7335    7339    7343    7347    7351    7355    7359    7363
    7367    7371    7375    7379    7383    7387    7391    7395    7399    7403
    7407    7411    7415    7419    7423    7427    7431    7435    7439    7443
    7447    7451    7455    7459    7463    7467    7471    7475    7479    7483
    7487    7491    7495    7499    7503    7507    7511    7515    7519    7523
    7527    7531    7535    7539    7543    7547    7551    7555    7559    7563
    7567    7571    7575    7579    7583    7587    7591    7595    7599    7603
    7607    7611    7615    7619    7623    7627    7631    7635    7639    7643
    7647    7651    7655    7659    7663    7667    7671    7675    7679    7683
    7687    7691    7695    7699    7703    7707    7711    7715    7719    7723
    7727    7731    7735    7739    7743    7747    7751    7755    7759    7763
    7767    7771    7775    7779    7783    7787    7791    7795    7799    7803
    7807    7811    7815    7819    7823    7827    7831    7835    7839    7843
    7847    7851    7855    7859    7863    7867    7871    7875    7879    7883
    7887    7891    7895    7899    7903    7907    7911    7915    7919    7923
    7927    7931    7935    7939    7943    7947    7951    7955    7959    7963
    7967    7971    7975    7979    7983    7987    7991    7995    7999    8003
    8007    8011    8015    8019    8023    8027    8031    8035    8039    8043
    8047    8051    8055    8059    8063    8067    8071    8075    8079    8083
    8087    8091    8095    8099    8103    8107    8111    8115    8119    8123
    8127    8131    8135    8139    8143    8147    8151    8155    8159    8163
    8167    8171    8175    8179    8183    8187    8191    8195    8199    8203
    8207    8211    8215    8219    8223    8227    8231    8235    8239    8243
    8247    8251    8255    8259    8263    8267    8271    8275    8279    8283
    8287    8291    8295    8299    8303    8307    8311    8315    8319    8323
    8327    8331    8335    8339    8343    8347    8351    8355    8359    8363
    8367    8371    8375    8379    8383    8387    8391    8395    8399    8403
    8407    8411    8415    8419    8423    8427    8431    8435    8439    8443
    8447    8451    8455    8459    8463    8467    8471    8475    8479    8483
    8487    8491    8495    8499    8503    8507    8511    8515    8519    8523
    8527    8531    8535    8539    8543    8547    8551    8555    8559    8563
    8567    8571    8575    8579    8583    8587    8591    8595    8599    8603
    8607    8611    8615    8619    8623    8627    8631    8635    8639    8643
    8647    8651    8655    8659    8663    8667    8671    8675    8679    8683
    8687    8691    8695    8699    8703    8707    8711    8715    8719    8723
    8727    8731    8735    8739    8743    8747    8751    8755    8759    8763
    8767    8771    8775    8779    8783    8787    8791    8795    8799    8803
    8807    8811    8815    8819    8823    8827    8831    8835    8839    8843
    8847    8851    8855    8859    8863    8867    8871    8875    8879    8883
    8887    8891    8895    8899    8903    8907    8911    8915    8919    8923
    8927    8931    8935    8939    8943    8947    8951    8955    8959    8963
    8967    8971    8975    8979    8983    8987    8991    8995    8999    9003
    9007    9011    9015    9019    9023    9027    9031    9035    9039    9043
    9047    9051    9055    9059    9063    9067    9071    9075    9079    9083
    9087    9091    9095    9099    9103    9107    9111    9115    9119    9123
    9127    9131    9135    9139    9143    9147    9151    9155    9159    9163
    9167    9171    9175    9179    9183    9187    9191    9195    9199    9203
    9207    9211    9215    9219    9223    9227    9231    9235    9239    9243
    9247    9251    9255    9259    9263    9267    9271    9275    9279    9283
    9287    9291    9295    9299    9303    9307    9311    9315    9319    9323
    9327    9331    9335    9339    9343    9347    9351    9355    9359    9363
    9367    9371    9375    9379    9383    9387    9391    9395    9399    9403
    9407    9411    9415    9419    9423    9427    9431    9435    9439    9443
    9447    9451    9455    9459    9463    9467    9471    9475    9479    9483
    9487    9491    9495    9499    9503    9507    9511    9515    9519    9523
    9527    9531    9535    9539    9543    9547    9551    9555    9559    9563
    9567    9571    9575    9579    9583    9587    9591    9595    9599    9603
    9607    9611    9615    9619    9623    9627    9631    9635    9639    9643
    9647    9651    9655    9659    9663    9667    9671    9675    9679    9683
    9687    9691    9695    9699    9703    9707    9711    9715    9719    9723
    9727    9731    9735    9739    9743    9747    9751    9755    9759    9763
    9767    9771    9775    9779    9783    9787    9791    9795    9799    9803
    9807    9811    9815    9819    9823    9827    9831    9835    9839    9843
    9847    9851    9855    9859    9863    9867    9871    9875    9879    9883
    9887    9891    9895    9899    9903    9907    9911    9915    9919    9923
    9927    9931    9935    9939    9943    9947    9951    9955    9959    9963
    9967    9971    9975    9979    9983    9987    9991    9995    9999   10003
   10007   10011   10015   10019   10023   10027   10031   10035   10039   10043
   10047   10051   10055   10059   10063   10067   10071   10075   10079   10083
   10087   10091   10095   10099   10103   10107   10111   10115   10119   10123
   10127   10131   10135   10139   10143   10147   10151   10155   10159   10163
   10167   10171   10175   10179   10183   10187   10191   10195   10199   10203
   10207   10211   10215   10219   10223   10227   10231   10235   10239   10243
   10247   10251   10255   10259   10263   10267   10271   10275   10279   10283
   10287   10291   10295   10299   10303   10307   10311   10315   10319   10323
   10327   10331   10335   10339   10343   10347   10351   10355   10359   10363
   10367   10371   10375   10379   10383   10387   10391   10395   10399   10403
   10407   10411   10415   10419   10423   10427   10431   10435   10439   10443
   10447   10451   10455   10459   10463   10467   10471   10475   10479   10483
   10487   10491   10495   10499   10503   10507   10511   10515   10519   10523
   10527   10531   10535   10539   10543   10547   10551   10555   10559   10563
   10567   10571   10575   10579   10583   10587   10591   10595   10599   10603
   10607   10611   10615   10619   10623   10627   10631   10635   10639   10643
   10647   10651   10655   10659   10663   10667   10671   10675   10679   10683
   10687   10691   10695   10699   10703   10707   10711   10715   10719   10723
   10727   10731   10735   10739   10743   10747   10751   10755   10759   10763
   10767   10771   10775   10779   10783   10787   10791   10795   10799   10803
   10807   10811   10815   10819   10823   10827   10831   10835   10839   10843
   10847   10851   10855   10859   10863   10867   10871   10875   10879   10883
   10887   10891   10895   10899   10903   10907   10911   10915   10919   10923
   10927   10931   10935   10939   10943   10947   10951   10955   10959   10963
   10967   10971   10975   10979   10983   10987   10991   10995   10999   11003
   11007   11011   11015   11019   11023   11027   11031   11035   11039   11043
   11047   11051   11055   11059   11063   11067   11071   11075   11079   11083
   11087   11091   11095   11099   11103   11107   11111   11115   11119   11123
   11127   11131   11135   11139   11143   11147   11151   11155   11159   11163
   11167   11171   11175   11179   11183   11187   11191   11195   11199   11203
   11207   11211   11215   11219   11223   11227   11231   11235   11239   11243
   11247   11251   11255   11259   11263   11267   11271   11275   11279   11283
   11287   11291   11295   11299   11303   11307   11311   11315   11319   11323
   11327   11331   11335   11339   11343   11347   11351   11355   11359   11363
   11367   11371   11375   11379   11383   11387   11391   11395   11399   11403
   11407   11411   11415   11419   11423   11427   11431   11435   11439   11443
   11447   11451   11455   11459   11463   11467   11471   11475   11479   11483
   11487   11491   11495   11499   11503   11507   11511   11515   11519   11523
   11527   11531   11535   11539   11543   11547   11551   11555   11559   11563
   11567   11571   11575   11579   11583   11587   11591   11595   11599   11603
   11607   11611   11615   11619   11623   11627   11631   11635   11639   11643
   11647   11651   11655   11659   11663   11667   11671   11675   11679   11683
   11687   11691   11695   11699   11703   11707   11711   11715   11719   11723
   11727   11731   11735   11739   11743   11747   11751   11755   11759   11763
   11767   11771   11775   11779   11783   11787   11791   11795   11799   11803
   11807   11811   11815   11819   11823   11827   11831   11835   11839   11843
   11847   11851   11855   11859   11863   11867   11871   11875   11879   11883
   11887   11891   11895   11899   11903   11907   11911   11915   11919   11923
   11927   11931   11935   11939   11943   11947   11951   11955   11959   11963
   11967   11971   11975   11979   11983   11987   11991   11995   11999   12003
   12007   12011   12015   12019   12023   12027   12031   12035   12039   12043
   12047   12051   12055   12059   12063   12067   12071   12075   12079   12083
   12087   12091   12095   12099   12103   12107   12111   12115   12119   12123
   12127   12131   12135   12139   12143   12147   12151   12155   12159   12163
   12167   12171   12175   12179   12183   12187   12191   12195   12199   12203
   12207   12211   12215   12219   12223   12227   12231   12235   12239   12243
   12247   12251   12255   12259   12263   12267   12271   12275   12279   12283
   12287   12291   12295   12299   12303   12307   12311   12315   12319   12323
   12327   12331   12335   12339   12343   12347   12351   12355   12359   12363
   12367   12371   12375   12379   12383   12387   12391   12395   12399   12403
   12407   12411   12415   12419   12423   12427   12431   12435   12439   12443
   12447   12451   12455   12459   12463   12467   12471   12475   12479   12483
   12487   12491   12495   12499   12503   12507   12511   12515   12519   12523
   12527   12531   12535   12539   12543   12547   12551   12555   12559   12563
   12567   12571   12575   12579   12583   12587   12591   12595   12599   12603
   12607   12611   12615   12619   12623   12627   12631   12635   12639   12643
   12647   12651   12655   12659   12663   12667   12671   12675   12679   12683
   12687   12691   12695   12699   12703   12707   12711   12715   12719   12723
   12727   12731   12735   12739   12743   12747   12751   12755   12759   12763
   12767   12771   12775   12779   12783   12787   12791   12795   12799   12803
   12807   12811   12815   12819   12823   12827   12831   12835   12839   12843
   12847   12851   12855   12859   12863   12867   12871   12875   12879   12883
   12887   12891   12895   12899   12903   12907   12911   12915   12919   12923
   12927   12931   12935   12939   12943   12947   12951   12955   12959   12963
   12967   12971   12975   12979   12983   12987   12991   12995   12999   13003
   13007   13011   13015   13019   13023   13027   13031   13035   13039   13043
   13047   13051   13055   13059   13063   13067   13071   13075   13079   13083
   13087   13091   13095   13099   13103   13107   13111   13115   13119   13123
   13127   13131   13135   13139   13143   13147   13151   13155   13159   13163
   13167   13171   13175   13179   13183   13187   13191   13195   13199   13203
   13207   13211   13215   13219   13223   13227   13231   13235   13239   13243
   13247   13251   13255   13259   13263   13267   13271   13275   13279   13283
   13287   13291   13295   13299   13303   13307   13311   13315   13319   13323
   13327   13331   13335   13339   13343   13347   13351   13355   13359   13363
   13367   13371   13375   13379   13383   13387   13391   13395   13399   13403
   13407   13411   13415   13419   13423   13427   13431   13435   13439   13443
   13447   13451   13455   13459   13463   13467   13471   13475   13479   13483
   13487   13491   13495   13499   13503   13507   13511   13515   13519   13523
   13527   13531   13535   13539   13543   13547   13551   13555   13559   13563
   13567   13571   13575   13579   13583   13587   13591   13595   13599   13603
   13607   13611   13615   13619   13623   13627   13631   13635   13639   13643
   13647   13651   13655   13659   13663   13667   13671   13675   13679   13683
   13687   13691   13695   13699   13703   13707   13711   13715   13719   13723
   13727   13731   13735   13739   13743   13747   13751   13755   13759   13763
   13767   13771   13775   13779   13783   13787   13791   13795   13799   13803
   13807   13811   13815   13819   13823   13827   13831   13835   13839   13843
   13847   13851   13855   13859   13863   13867   13871   13875   13879   13883
   13887   13891   13895   13899   13903   13907   13911   13915   13919   13923
   13927   13931   13935   13939   13943   13947   13951   13955   13959   13963
   13967   13971   13975   13979   13983   13987   13991   13995   13999   14003
   14007   14011   14015   14019   14023   14027   14031   14035   14039   14043
   14047   14051   14055   14059   14063   14067   14071   14075   14079   14083
   14087   14091   14095   14099   14103   14107   14111   14115   14119   14123
   14127   14131   14135   14139   14143   14147   14151   14155   14159   14163
   14167   14171   14175   14179   14183   14187   14191   14195   14199   14203
   14207   14211   14215   14219   14223   14227   14231   14235   14239   14243
   14247   14251   14255   14259   14263   14267   14271   14275   14279   14283
   14287   14291   14295   14299   14303   14307   14311   14315   14319   14323
   14327   14331   14335   14339   14343   14347   14351   14355   14359   14363
   14367   14371   14375   14379   14383   14387   14391   14395   14399   14403
   14407   14411   14415   14419   14423   14427   14431   14435   14439   14443
   14447   14451   14455   14459   14463   14467   14471   14475   14479   14483
   14487   14491   14495   14499   14503   14507   14511   14515   14519   14523
   14527   14531   14535   14539   14543   14547   14551   14555   14559   14563
   14567   14571   14575   14579   14583   14587   14591   14595   14599   14603
   14607   14611   14615   14619   14623   14627   14631   14635   14639   14643
   14647   14651   14655   14659   14663   14667   14671   14675   14679   14683
   14687   14691   14695   14699   14703   14707   14711   14715   14719   14723
   14727   14731   14735   14739   14743   14747   14751   14755   14759   14763
   14767   14771   14775   14779   14783   14787   14791   14795   14799   14803
   14807   14811   14815   14819   14823   14827   14831   14835   14839   14843
   14847   14851   14855   14859   14863   14867   14871   14875   14879   14883
   14887   14891   14895   14899   14903   14907   14911   14915   14919   14923
   14927   14931   14935   14939   14943   14947   14951   14955   14959   14963
   14967   14971   14975   14979   14983   14987   14991   14995   14999   15003
   15007   15011   15015   15019   15023   15027   15031   15035   15039   15043
   15047   15051   15055   15059   15063   15067   15071   15075   15079   15083
   15087   15091   15095   15099   15103   15107   15111   15115   15119   15123
   15127   15131   15135   15139   15143   15147   15151   15155   15159   15163
   15167   15171   15175   15179   15183   15187   15191   15195   15199   15203
   15207   15211   15215   15219   15223   15227   15231   15235   15239   15243
   15247   15251   15255   15259   15263   15267   15271   15275   15279   15283
   15287   15291   15295   15299   15303   15307   15311   15315   15319   15323
   15327   15331   15335   15339   15343   15347   15351   15355   15359   15363
   15367   15371   15375   15379   15383   15387   15391   15395   15399   15403
   15407   15411   15415   15419   15423   15427   15431   15435   15439   15443
   15447   15451   15455   15459   15463   15467   15471   15475   15479   15483
   15487   15491   15495   15499   15503   15507   15511   15515   15519   15523
   15527   15531   15535   15539   15543   15547   15551   15555   15559   15563
   15567   15571   15575   15579   15583   15587   15591   15595   15599   15603
   15607   15611   15615   15619   15623   15627   15631   15635   15639   15643
   15647   15651   15655   15659   15663   15667   15671   15675   15679   15683
   15687   15691   15695   15699   15703   15707   15711   15715   15719   15723
   15727   15731   15735   15739   15743   15747   15751   15755   15759   15763
   15767   15771   15775   15779   15783   15787   15791   15795   15799   15803
   15807   15811   15815   15819   15823   15827   15831   15835   15839   15843
   15847   15851   15855   15859   15863   15867   15871   15875   15879   15883
   15887   15891   15895   15899   15903   15907   15911   15915   15919   15923
   15927   15931   15935   15939   15943   15947   15951   15955   15959   15963
   15967   15971   15975   15979   15983   15987   15991   15995   15999   16003
   16007   16011   16015   16019   16023   16027   16031   16035   16039   16043
   16047   16051   16055   16059   16063   16067   16071   16075   16079   16083
   16087   16091   16095   16099   16103   16107   16111   16115   16119   16123
   16127   16131   16135   16139   16143   16147   16151   16155   16159   16163
   16167   16171   16175   16179   16183   16187   16191   16195   16199   16203
   16207   16211   16215   16219   16223   16227   16231   16235   16239   16243
   16247   16251   16255   16259   16263   16267   16271   16275   16279   16283
   16287   16291   16295   16299   16303   16307   16311   16315   16319   16323
   16327   16331   16335   16339   16343   16347   16351   16355   16359   16363
   16367   16371   16375   16379   16383   16387   16391   16395   16399   16403
   16407   16411   16415   16419   16423   16427   16431   16435   16439   16443
   16447   16451   16455   16459   16463   16467   16471   16475   16479   16483
   16487   16491   16495   16499   16503   16507   16511   16515   16519   16523
   16527   16531   16535   16539   16543   16547   16551   16555   16559   16563
   16567   16571   16575   16579   16583   16587   16591   16595   16599   16603
   16607   16611   16615   16619   16623   16627   16631   16635   16639   16643
   16647   16651   16655   16659   16663   16667   16671   16675   16679   16683
   16687   16691   16695   16699   16703   16707   16711   16715   16719   16723
   16727   16731   16735   16739   16743   16747   16751   16755   16759   16763
   16767   16771   16775   16779   16783   16787   16791   16795   16799   16803
   16807   16811   16815   16819   16823   16827   16831   16835   16839   16843
   16847   16851   16855   16859   16863   16867   16871   16875   16879   16883
   16887   16891   16895   16899   16903   16907   16911   16915   16919   16923
   16927   16931   16935   16939   16943   16947   16951   16955   16959   16963
   16967   16971   16975   16979   16983   16987   16991   16995   16999   17003
   17007   17011   17015   17019   17023   17027   17031   17035   17039   17043
   17047   17051   17055   17059   17063   17067   17071   17075   17079   17083
   17087   17091   17095   17099   17103   17107   17111   17115   17119   17123
   17127   17131   17135   17139   17143   17147   17151   17155   17159   17163
   17167   17171   17175   17179   17183   17187   17191   17195   17199   17203
   17207   17211   17215   17219   17223   17227   17231   17235   17239   17243
   17247   17251   17255   17259   17263   17267   17271   17275   17279   17283
   17287   17291   17295   17299   17303   17307   17311   17315   17319   17323
   17327   17331   17335   17339   17343   17347   17351   17355   17359   17363
   17367   17371   17375   17379   17383   17387   17391   17395   17399   17403
   17407   17411   17415   17419   17423   17427   17431   17435   17439   17443
   17447   17451   17455   17459   17463   17467   17471   17475   17479   17483
   17487   17491   17495   17499   17503   17507   17511   17515   17519   17523
   17527   17531   17535   17539   17543   17547   17551   17555   17559   17563
   17567   17571   17575   17579   17583   17587   17591   17595   17599   17603
   17607   17611   17615   17619   17623   17627   17631   17635   17639   17643
   17647   17651   17655   17659   17663   17667   17671   17675   17679   17683
   17687   17691   17695   17699   17703   17707   17711   17715   17719   17723
   17727   17731   17735   17739   17743   17747   17751   17755   17759   17763
   17767   17771   17775   17779   17783   17787   17791   17795   17799   17803
   17807   17811   17815   17819   17823   17827   17831   17835   17839   17843
   17847   17851   17855   17859   17863   17867   17871   17875   17879   17883
   17887   17891   17895   17899   17903   17907   17911   17915   17919   17923
   17927   17931   17935   17939   17943   17947   17951   17955   17959   17963
   17967   17971   17975   17979   17983   17987   17991   17995   17999   18003
   18007   18011   18015   18019   18023   18027   18031   18035   18039   18043
   18047   18051   18055   18059   18063   18067   18071   18075   18079   18083
   18087   18091   18095   18099   18103   18107   18111   18115   18119   18123
   18127   18131   18135   18139   18143   18147   18151   18155   18159   18163
   18167   18171   18175   18179   18183   18187   18191   18195   18199   18203
   18207   18211   18215   18219   18223   18227   18231   18235   18239   18243
   18247   18251   18255   18259   18263   18267   18271   18275   18279   18283
   18287   18291   18295   18299   18303   18307   18311   18315   18319   18323
   18327   18331   18335   18339   18343   18347   18351   18355   18359   18363
   18367   18371   18375   18379   18383   18387   18391   18395   18399   18403
   18407   18411   18415   18419   18423   18427   18431   18435   18439   18443
   18447   18451   18455   18459   18463   18467   18471   18475   18479   18483
   18487   18491   18495   18499   18503   18507   18511   18515   18519   18523
   18527   18531   18535   18539   18543   18547   18551   18555   18559   18563
   18567   18571   18575   18579   18583   18587   18591   18595   18599   18603
   18607   18611   18615   18619   18623   18627   18631   18635   18639   18643
   18647   18651   18655   18659   18663   18667   18671   18675   18679   18683
   18687   18691   18695   18699   18703   18707   18711   18715   18719   18723
   18727   18731   18735   18739   18743   18747   18751   18755   18759   18763
   18767   18771   18775   18779   18783   18787   18791   18795   18799   18803
   18807   18811   18815   18819   18823   18827   18831   18835   18839   18843
   18847   18851   18855   18859   18863   18867   18871   18875   18879   18883
   18887   18891   18895   18899   18903   18907   18911   18915   18919   18923
   18927   18931   18935   18939   18943   18947   18951   18955   18959   18963
   18967   18971   18975   18979   18983   18987   18991   18995   18999   19003
   19007   19011   19015   19019   19023   19027   19031   19035   19039   19043
   19047   19051   19055   19059   19063   19067   19071   19075   19079   19083
   19087   19091   19095   19099   19103   19107   19111   19115   19119   19123
   19127   19131   19135   19139   19143   19147   19151   19155   19159   19163
   19167   19171   19175   19179   19183   19187   19191   19195   19199   19203
   19207   19211   19215   19219   19223   19227   19231   19235   19239   19243
   19247   19251   19255   19259   19263   19267   19271   19275   19279   19283
   19287   19291   19295   19299   19303   19307   19311   19315   19319   19323
   19327   19331   19335   19339   19343   19347   19351   19355   19359   19363
   19367   19371   19375   19379   19383   19387   19391   19395   19399   19403
   19407   19411   19415   19419   19423   19427   19431   19435   19439   19443
   19447   19451   19455   19459   19463   19467   19471   19475   19479   19483
   19487   19491   19495   19499   19503   19507   19511   19515   19519   19523
   19527   19531   19535   19539   19543   19547   19551   19555   19559   19563
   19567   19571   19575   19579   19583   19587   19591   19595   19599   19603
   19607   19611   19615   19619   19623   19627   19631   19635   19639   19643
   19647   19651   19655   19659   19663   19667   19671   19675   19679   19683
   19687   19691   19695   19699   19703   19707   19711   19715   19719   19723
   19727   19731   19735   19739   19743   19747   19751   19755   19759   19763
   19767   19771   19775   19779   19783   19787   19791   19795   19799   19803
   19807   19811   19815   19819   19823   19827   19831   19835   19839   19843
   19847   19851   19855   19859   19863   19867   19871   19875   19879   19883
   19887   19891   19895   19899   19903   19907   19911   19915   19919   19923
   19927   19931   19935   19939   19943   19947   19951   19955   19959   19963
   19967   19971   19975   19979   19983   19987   19991   19995   19999   20003
   20007   20011   20015   20019   20023   20027   20031   20035   20039   20043
   20047   20051   20055   20059   20063   20067   20071   20075   20079   20083
   20087   20091   20095   20099   20103   20107   20111   20115   20119   20123
   20127   20131   20135   20139   20143   20147   20151   20155   20159   20163
   20167   20171   20175   20179   20183   20187   20191   20195   20199   20203
   20207   20211   20215   20219   20223   20227   20231   20235   20239   20243
   20247   20251   20255   20259   20263   20267   20271   20275   20279   20283
   20287   20291   20295   20299   20303   20307   20311   20315   20319   20323
   20327   20331   20335   20339   20343   20347   20351   20355   20359   20363
   20367   20371   20375   20379   20383   20387   20391   20395   20399   20403
   20407   20411   20415   20419   20423   20427   20431   20435   20439   20443
   20447   20451   20455   20459   20463   20467   20471   20475   20479   20483
   20487   20491   20495   20499   20503   20507   20511   20515   20519   20523
   20527   20531   20535   20539   20543   20547   20551   20555   20559   20563
   20567   20571   20575   20579   20583   20587   20591   20595   20599   20603
   20607   20611   20615   20619   20623   20627   20631   20635   20639   20643
   20647   20651   20655   20659   20663   20667   20671   20675   20679   20683
   20687   20691   20695   20699   20703   20707   20711   20715   20719   20723
   20727   20731   20735   20739   20743   20747   20751   20755   20759   20763
   20767   20771   20775   20779   20783   20787   20791   20795   20799   20803
   20807   20811   20815   20819   20823   20827   20831   20835   20839   20843
   20847   20851   20855   20859   20863   20867   20871   20875   20879   20883
   20887   20891   20895   20899   20903   20907   20911   20915   20919   20923
   20927   20931   20935   20939   20943   20947   20951   20955   20959   20963
   20967   20971   20975   20979   20983   20987   20991   20995   20999   21003
   21007   21011   21015   21019   21023   21027   21031   21035   21039   21043
   21047   21051   21055   21059   21063   21067   21071   21075   21079   21083
   21087   21091   21095   21099   21103   21107   21111   21115   21119   21123
   21127   21131   21135   21139   21143   21147   21151   21155   21159   21163
   21167   21171   21175   21179   21183   21187   21191   21195   21199   21203
   21207   21211   21215   21219   21223   21227   21231   21235   21239   21243
   21247   21251   21255   21259   21263   21267   21271   21275   21279   21283
   21287   21291   21295   21299   21303   21307   21311   21315   21319   21323
   21327   21331   21335   21339   21343   21347   21351   21355   21359   21363
   21367   21371   21375   21379   21383   21387   21391   21395   21399   21403
   21407   21411   21415   21419   21423   21427   21431   21435   21439   21443
   21447   21451   21455   21459   21463   21467   21471   21475   21479   21483
   21487   21491   21495   21499   21503   21507   21511   21515   21519   21523
   21527   21531   21535   21539   21543   21547   21551   21555   21559   21563
   21567   21571   21575   21579   21583   21587   21591   21595   21599   21603
   21607   21611   21615   21619   21623   21627   21631   21635   21639   21643
   21647   21651   21655   21659   21663   21667   21671   21675   21679   21683
   21687   21691   21695   21699   21703   21707   21711   21715   21719   21723
   21727   21731   21735   21739   21743   21747   21751   21755   21759   21763
   21767   21771   21775   21779   21783   21787   21791   21795   21799   21803
   21807   21811   21815   21819   21823   21827   21831   21835   21839   21843
   21847   21851   21855   21859   21863   21867   21871   21875   21879   21883
   21887   21891   21895   21899   21903   21907   21911   21915   21919   21923
   21927   21931   21935   21939   21943   21947   21951   21955   21959   21963
   21967   21971   21975   21979   21983   21987   21991   21995   21999   22003
   22007   22011   22015   22019   22023   22027   22031   22035   22039   22043
   22047   22051   22055   22059   22063   22067   22071   22075   22079   22083
   22087   22091   22095   22099   22103   22107   22111   22115   22119   22123
   22127   22131   22135   22139   22143   22147   22151   22155   22159   22163
   22167   22171   22175   22179   22183   22187   22191   22195   22199   22203
   22207   22211   22215   22219   22223   22227   22231   22235   22239   22243
   22247   22251   22255   22259   22263   22267   22271   22275   22279   22283
   22287   22291   22295   22299   22303   22307   22311   22315   22319   22323
   22327   22331   22335   22339   22343   22347   22351   22355   22359   22363
   22367   22371   22375   22379   22383   22387   22391   22395   22399   22403
   22407   22411   22415   22419   22423   22427   22431   22435   22439   22443
   22447   22451   22455   22459   22463   22467   22471   22475   22479   22483
   22487   22491   22495   22499   22503   22507   22511   22515   22519   22523
   22527   22531   22535   22539   22543   22547   22551   22555   22559   22563
   22567   22571   22575   22579   22583   22587   22591   22595   22599   22603
   22607   22611   22615   22619   22623   22627   22631   22635   22639   22643
   22647   22651   22655   22659   22663   22667   22671   22675   22679   22683
   22687   22691   22695   22699   22703   22707   22711   22715   22719   22723
   22727   22731   22735   22739   22743   22747   22751   22755   22759   22763
   22767   22771   22775   22779   22783   22787   22791   22795   22799   22803
   22807   22811   22815   22819   22823   22827   22831   22835   22839   22843
   22847   22851   22855   22859   22863   22867   22871   22875   22879   22883
   22887   22891   22895   22899   22903   22907   22911   22915   22919   22923
   22927   22931   22935   22939   22943   22947   22951   22955   22959   22963
   22967   22971   22975   22979   22983   22987   22991   22995   22999   23003
   23007   23011   23015   23019   23023   23027   23031   23035   23039   23043
   23047   23051   23055   23059   23063   23067   23071   23075   23079   23083
   23087   23091   23095   23099   23103   23107   23111   23115   23119   23123
   23127   23131   23135   23139   23143   23147   23151   23155   23159   23163
   23167   23171   23175   23179   23183   23187   23191   23195   23199   23203
   23207   23211   23215   23219   23223   23227   23231   23235   23239   23243
   23247   23251   23255   23259   23263   23267   23271   23275   23279   23283
   23287   23291   23295   23299   23303   23307   23311   23315   23319   23323
   23327   23331   23335   23339   23343   23347   23351   23355   23359   23363
   23367   23371   23375   23379   23383   23387   23391   23395   23399   23403
   23407   23411   23415   23419   23423   23427   23431   23435   23439   23443
   23447   23451   23455   23459   23463   23467   23471   23475   23479   23483
   23487   23491   23495   23499   23503   23507   23511   23515   23519   23523
   23527   23531   23535   23539   23543   23547   23551   23555   23559   23563
   23567   23571   23575   23579   23583   23587   23591   23595   23599   23603
   23607   23611   23615   23619   23623   23627   23631   23635   23639   23643
   23647   23651   23655   23659   23663   23667   23671   23675   23679   23683
   23687   23691   23695   23699   23703   23707   23711   23715   23719   23723
   23727   23731   23735   23739   23743   23747   23751   23755   23759   23763
   23767   23771   23775   23779   23783   23787   23791   23795   23799   23803
   23807   23811   23815   23819   23823   23827   23831   23835   23839   23843
   23847   23851   23855   23859   23863   23867   23871   23875   23879   23883
   23887   23891   23895   23899   23903   23907   23911   23915   23919   23923
   23927   23931   23935   23939   23943   23947   23951   23955   23959   23963
   23967   23971   23975   23979   23983   23987   23991   23995   23999   24003
   24007   24011   24015   24019   24023   24027   24031   24035   24039   24043
   24047   24051   24055   24059   24063   24067   24071   24075   24079   24083
   24087   24091   24095   24099   24103   24107   24111   24115   24119   24123
   24127   24131   24135   24139   24143   24147   24151   24155   24159   24163
   24167   24171   24175   24179   24183   24187   24191   24195   24199   24203
   24207   24211   24215   24219   24223   24227   24231   24235   24239   24243
   24247   24251   24255   24259   24263   24267   24271   24275   24279   24283
   24287   24291   24295   24299   24303   24307   24311   24315   24319   24323
   24327   24331   24335   24339   24343   24347   24351   24355   24359   24363
   24367   24371   24375   24379   24383   24387   24391   24395   24399   24403
   24407   24411   24415   24419   24423   24427   24431   24435   24439   24443
   24447   24451   24455   24459   24463   24467   24471   24475   24479   24483
   24487   24491   24495   24499   24503   24507   24511   24515   24519   24523
   24527   24531   24535   24539   24543   24547   24551   24555   24559   24563
   24567   24571   24575   24579   24583   24587   24591   24595   24599   24603
   24607   24611   24615   24619   24623   24627   24631   24635   24639   24643
   24647   24651   24655   24659   24663   24667   24671   24675   24679   24683
   24687   24691   24695   24699   24703   24707   24711   24715   24719   24723
   24727   24731   24735   24739   24743   24747   24751   24755   24759   24763
   24767   24771   24775   24779   24783   24787   24791   24795   24799   24803
   24807   24811   24815   24819   24823   24827   24831   24835   24839   24843
   24847   24851   24855   24859   24863   24867   24871   24875   24879   24883
   24887   24891   24895   24899   24903   24907   24911   24915   24919   24923
   24927   24931   24935   24939   24943   24947   24951   24955   24959   24963
   24967   24971   24975   24979   24983   24987   24991   24995   24999   25003
   25007   25011   25015   25019   25023   25027   25031   25035   25039   25043
   25047   25051   25055   25059   25063   25067   25071   25075   25079   25083
   25087   25091   25095   25099   25103   25107   25111   25115   25119   25123
   25127   25131   25135   25139   25143   25147   25151   25155   25159   25163
   25167   25171   25175   25179   25183   25187   25191   25195   25199   25203
   25207   25211   25215   25219   25223   25227   25231   25235   25239   25243
   25247   25251   25255   25259   25263   25267   25271   25275   25279   25283
   25287   25291   25295   25299   25303   25307   25311   25315   25319   25323
   25327   25331   25335   25339   25343   25347   25351   25355   25359   25363
   25367   25371   25375   25379   25383   25387   25391   25395   25399   25403
   25407   25411   25415   25419   25423   25427   25431   25435   25439   25443
   25447   25451   25455   25459   25463   25467   25471   25475   25479   25483
   25487   25491   25495   25499   25503   25507   25511   25515   25519   25523
   25527   25531   25535   25539   25543   25547   25551   25555   25559   25563
   25567   25571   25575   25579   25583   25587   25591   25595   25599   25603
   25607   25611   25615   25619   25623   25627   25631   25635   25639   25643
   25647   25651   25655   25659   25663   25667   25671   25675   25679   25683
   25687   25691   25695   25699   25703   25707   25711   25715   25719   25723
   25727   25731   25735   25739   25743   25747   25751   25755   25759   25763
   25767   25771   25775   25779   25783   25787   25791   25795   25799   25803
   25807   25811   25815   25819   25823   25827   25831   25835   25839   25843
   25847   25851   25855   25859   25863   25867   25871   25875   25879   25883
   25887   25891   25895   25899   25903   25907   25911   25915   25919   25923
   25927   25931   25935   25939   25943   25947   25951   25955   25959   25963
   25967   25971   25975   25979   25983   25987   25991   25995   25999   26003
   26007   26011   26015   26019   26023   26027   26031   26035   26039   26043
   26047   26051   26055   26059   26063   26067   26071   26075   26079   26083
   26087   26091   26095   26099   26103   26107   26111   26115   26119   26123
   26127   26131   26135   26139   26143   26147   26151   26155   26159   26163
   26167   26171   26175   26179   26183   26187   26191   26195   26199   26203
   26207   26211   26215   26219   26223   26227   26231   26235   26239   26243
   26247   26251   26255   26259   26263   26267   26271   26275   26279   26283
   26287   26291   26295   26299   26303   26307   26311   26315   26319   26323
   26327   26331   26335   26339   26343   26347   26351   26355   26359   26363
   26367   26371   26375   26379   26383   26387   26391   26395   26399   26403
   26407   26411   26415   26419   26423   26427   26431   26435   26439   26443
   26447   26451   26455   26459   26463   26467   26471   26475   26479   26483
   26487   26491   26495   26499   26503   26507   26511   26515   26519   26523
   26527   26531   26535   26539   26543   26547   26551   26555   26559   26563
   26567   26571   26575   26579   26583   26587   26591   26595   26599   26603
   26607   26611   26615   26619   26623   26627   26631   26635   26639   26643
   26647   26651   26655   26659   26663   26667   26671   26675   26679   26683
   26687   26691   26695   26699   26703   26707   26711   26715   26719   26723
   26727   26731   26735   26739   26743   26747   26751   26755   26759   26763
   26767   26771   26775   26779   26783   26787   26791   26795   26799   26803
   26807   26811   26815   26819   26823   26827   26831   26835   26839   26843
   26847   26851   26855   26859   26863   26867   26871   26875   26879   26883
   26887   26891   26895   26899   26903   26907   26911   26915   26919   26923
   26927   26931   26935   26939   26943   26947   26951   26955   26959   26963
   26967   26971   26975   26979   26983   26987   26991   26995   26999   27003
   27007   27011   27015   27019   27023   27027   27031   27035   27039   27043
   27047   27051   27055   27059   27063   27067   27071   27075   27079   27083
   27087   27091   27095   27099   27103   27107   27111   27115   27119   27123
   27127   27131   27135   27139   27143   27147   27151   27155   27159   27163
   27167   27171   27175   27179   27183   27187   27191   27195   27199   27203
   27207   27211   27215   27219   27223   27227   27231   27235   27239   27243
   27247   27251   27255   27259   27263   27267   27271   27275   27279   27283
   27287   27291   27295   27299   27303   27307   27311   27315   27319   27323
   27327   27331   27335   27339   27343   27347   27351   27355   27359   27363
   27367   27371   27375   27379   27383   27387   27391   27395   27399   27403
   27407   27411   27415   27419   27423   27427   27431   27435   27439   27443
   27447   27451   27455   27459   27463   27467   27471   27475   27479   27483
   27487   27491   27495   27499   27503   27507   27511   27515   27519   27523
   27527   27531   27535   27539   27543   27547   27551   27555   27559   27563
   27567   27571   27575   27579   27583   27587   27591   27595   27599   27603
   27607   27611   27615   27619   27623   27627   27631   27635   27639   27643
   27647   27651   27655   27659   27663   27667   27671   27675   27679   27683
   27687   27691   27695   27699   27703   27707   27711   27715   27719   27723
   27727   27731   27735   27739   27743   27747   27751   27755   27759   27763
   27767   27771   27775   27779   27783   27787   27791   27795   27799   27803
   27807   27811   27815   27819   27823   27827   27831   27835   27839   27843
   27847   27851   27855   27859   27863   27867   27871   27875   27879   27883
   27887   27891   27895   27899   27903   27907   27911   27915   27919   27923
   27927   27931   27935   27939   27943   27947   27951   27955   27959   27963
   27967   27971   27975   27979   27983   27987   27991   27995   27999   28003
   28007   28011   28015   28019   28023   28027   28031   28035   28039   28043
   28047   28051   28055   28059   28063   28067   28071   28075   28079   28083
   28087   28091   28095   28099   28103   28107   28111   28115   28119   28123
   28127   28131   28135   28139   28143   28147   28151   28155   28159   28163
   28167   28171   28175   28179   28183   28187   28191   28195   28199   28203
   28207   28211   28215   28219   28223   28227   28231   28235   28239   28243
   28247   28251   28255   28259   28263   28267   28271   28275   28279   28283
   28287   28291   28295   28299   28303   28307   28311   28315   28319   28323
   28327   28331   28335   28339   28343   28347   28351   28355   28359   28363
   28367   28371   28375   28379   28383   28387   28391   28395   28399   28403
   28407   28411   28415   28419   28423   28427   28431   28435   28439   28443
   28447   28451   28455   28459   28463   28467   28471   28475   28479   28483
   28487   28491   28495   28499   28503   28507   28511   28515   28519   28523
   28527   28531   28535   28539   28543   28547   28551   28555   28559   28563
   28567   28571   28575   28579   28583   28587   28591   28595   28599   28603
   28607   28611   28615   28619   28623   28627   28631   28635   28639   28643
   28647   28651   28655   28659   28663   28667   28671   28675   28679   28683
   28687   28691   28695   28699   28703   28707   28711   28715   28719   28723
   28727   28731   28735   28739   28743   28747   28751   28755   28759   28763
   28767   28771   28775   28779   28783   28787   28791   28795   28799   28803
   28807   28811   28815   28819   28823   28827   28831   28835   28839   28843
   28847   28851   28855   28859   28863   28867   28871   28875   28879   28883
   28887   28891   28895   28899   28903   28907   28911   28915   28919   28923
   28927   28931   28935   28939   28943   28947   28951   28955   28959   28963
   28967   28971   28975   28979   28983   28987   28991   28995   28999   29003
   29007   29011   29015   29019   29023   29027   29031   29035   29039   29043
   29047   29051   29055   29059   29063   29067   29071   29075   29079   29083
   29087   29091   29095   29099   29103   29107   29111   29115   29119   29123
   29127   29131   29135   29139   29143   29147   29151   29155   29159   29163
   29167   29171   29175   29179   29183   29187   29191   29195   29199   29203
   29207   29211   29215   29219   29223   29227   29231   29235   29239   29243
   29247   29251   29255   29259   29263   29267   29271   29275   29279   29283
   29287   29291   29295   29299   29303   29307   29311   29315   29319   29323
   29327   29331   29335   29339   29343   29347   29351   29355   29359   29363
   29367   29371   29375   29379   29383   29387   29391   29395   29399   29403
   29407   29411   29415   29419   29423   29427   29431   29435   29439   29443
   29447   29451   29455   29459   29463   29467   29471   29475   29479   29483
   29487   29491   29495   29499   29503   29507   29511   29515   29519   29523
   29527   29531   29535   29539   29543   29547   29551   29555   29559   29563
   29567   29571   29575   29579   29583   29587   29591   29595   29599   29603
   29607   29611   29615   29619   29623   29627   29631   29635   29639   29643
   29647   29651   29655   29659   29663   29667   29671   29675   29679   29683
   29687   29691   29695   29699   29703   29707   29711   29715   29719   29723
   29727   29731   29735   29739   29743   29747   29751   29755   29759   29763
   29767   29771   29775   29779   29783   29787   29791   29795   29799   29803
   29807   29811   29815   29819   29823   29827   29831   29835   29839   29843
   29847   29851   29855   29859   29863   29867   29871   29875   29879   29883
   29887   29891   29895   29899   29903   29907   29911   29915   29919   29923
   29927   29931   29935   29939   29943   29947   29951   29955   29959   29963
   29967   29971   29975   29979   29983   29987   29991   29995   29999   30003
   30007   30011   30015   30019   30023   30027   30031   30035   30039   30043
   30047   30051   30055   30059   30063   30067   30071   30075   30079   30083
   30087   30091   30095   30099   30103   30107   30111   30115   30119   30123
   30127   30131   30135   30139   30143   30147   30151   30155   30159   30163
   30167   30171   30175   30179   30183   30187   30191   30195   30199   30203
   30207   30211   30215   30219   30223   30227   30231   30235   30239   30243
   30247   30251   30255   30259   30263   30267   30271   30275   30279   30283
   30287   30291   30295   30299   30303   30307   30311   30315   30319   30323
   30327   30331   30335   30339   30343   30347   30351   30355   30359   30363
   30367   30371   30375   30379   30383   30387   30391   30395   30399   30403
   30407   30411   30415   30419   30423   30427   30431   30435   30439   30443
   30447   30451   30455   30459   30463   30467   30471   30475   30479   30483
   30487   30491   30495   30499   30503   30507   30511   30515   30519   30523
   30527   30531   30535   30539   30543   30547   30551   30555   30559   30563
   30567   30571   30575   30579   30583   30587   30591   30595   30599   30603
   30607   30611   30615   30619   30623   30627   30631   30635   30639   30643
   30647   30651   30655   30659   30663   30667   30671   30675   30679   30683
   30687   30691   30695   30699   30703   30707   30711   30715   30719   30723
   30727   30731   30735   30739   30743   30747   30751   30755   30759   30763
   30767   30771   30775   30779   30783   30787   30791   30795   30799   30803
   30807   30811   30815   30819   30823   30827   30831   30835   30839   30843
   30847   30851   30855   30859   30863   30867   30871   30875   30879   30883
   30887   30891   30895   30899   30903   30907   30911   30915   30919   30923
   30927   30931   30935   30939   30943   30947   30951   30955   30959   30963
   30967   30971   30975   30979   30983   30987   30991   30995   30999   31003
   31007   31011   31015   31019   31023   31027   31031   31035   31039   31043
   31047   31051   31055   31059   31063   31067   31071   31075   31079   31083
   31087   31091   31095   31099   31103   31107   31111   31115   31119   31123
   31127   31131   31135   31139   31143   31147   31151   31155   31159   31163
   31167   31171   31175   31179   31183   31187   31191   31195   31199   31203
   31207   31211   31215   31219   31223   31227   31231   31235   31239   31243
   31247   31251   31255   31259   31263   31267   31271   31275   31279   31283
   31287   31291   31295   31299   31303   31307   31311   31315   31319   31323
   31327   31331   31335   31339   31343   31347   31351   31355   31359   31363
   31367   31371   31375   31379   31383   31387   31391   31395   31399   31403
   31407   31411   31415   31419   31423   31427   31431   31435   31439   31443
   31447   31451   31455   31459   31463   31467   31471   31475   31479   31483
   31487   31491   31495   31499   31503   31507   31511   31515   31519   31523
   31527   31531   31535   31539   31543   31547   31551   31555   31559   31563
   31567   31571   31575   31579   31583   31587   31591   31595   31599   31603
   31607   31611   31615   31619   31623   31627   31631   31635   31639   31643
   31647   31651   31655   31659   31663   31667   31671   31675   31679   31683
   31687   31691   31695   31699   31703   31707   31711   31715   31719   31723
   31727   31731   31735   31739   31743   31747   31751   31755   31759   31763
   31767   31771   31775   31779   31783   31787   31791   31795   31799   31803
   31807   31811   31815   31819   31823   31827   31831   31835   31839   31843
   31847   31851   31855   31859   31863   31867   31871   31875   31879   31883
   31887   31891   31895   31899   31903   31907   31911   31915   31919   31923
   31927   31931   31935   31939   31943   31947   31951   31955   31959   31963
   31967   31971   31975   31979   31983   31987   31991   31995   31999   32003
   32007   32011   32015   32019   32023   32027   32031   32035   32039   32043
   32047   32051   32055   32059   32063   32067   32071   32075   32079   32083
   32087   32091   32095   32099   32103   32107   32111   32115   32119   32123
   32127   32131   32135   32139   32143   32147   32151   32155   32159   32163
   32167   32171   32175   32179   32183   32187   32191   32195   32199   32203
   32207   32211   32215   32219   32223   32227   32231   32235   32239   32243
   32247   32251   32255   32259   32263   32267   32271   32275   32279   32283
   32287   32291   32295   32299   32303   32307   32311   32315   32319   32323
   32327   32331   32335   32339   32343   32347   32351   32355   32359   32363
   32367   32371   32375   32379   32383   32387   32391   32395   32399   32403
   32407   32411   32415   32419   32423   32427   32431   32435   32439   32443
   32447   32451   32455   32459   32463   32467   32471   32475   32479   32483
   32487   32491   32495   32499   32503   32507   32511   32515   32519   32523
   32527   32531   32535   32539   32543   32547   32551   32555   32559   32563
   32567   32571   32575   32579   32583   32587   32591   32595   32599   32603
   32607   32611   32615   32619   32623   32627   32631   32635   32639   32643
   32647   32651   32655   32659   32663   32667   32671   32675   32679   32683
   32687   32691   32695   32699   32703   32707   32711   32715   32719   32723
   32727   32731   32735   32739   32743   32747   32751   32755   32759   32763
   32767   32771   32775   32779   32783   32787   32791   32795   32799   32803
   32807   32811   32815   32819   32823   32827   32831   32835   32839   32843
   32847   32851   32855   32859   32863   32867   32871   32875   32879   32883
   32887   32891   32895   32899   32903   32907   32911   32915   32919   32923
   32927   32931   32935   32939   32943   32947   32951   32955   32959   32963
   32967   32971   32975   32979   32983   32987   32991   32995   32999   33003
   33007   33011   33015   33019   33023   33027   33031   33035   33039   33043
   33047   33051   33055   33059   33063   33067   33071   33075   33079   33083
   33087   33091   33095   33099   33103   33107   33111   33115   33119   33123
   33127   33131   33135   33139   33143   33147   33151   33155   33159   33163
   33167   33171   33175   33179   33183   33187   33191   33195   33199   33203
   33207   33211   33215   33219   33223   33227   33231   33235   33239   33243
   33247   33251   33255   33259   33263   33267   33271   33275   33279   33283
   33287   33291   33295   33299   33303   33307   33311   33315   33319   33323
   33327   33331   33335   33339   33343   33347   33351   33355   33359   33363
   33367   33371   33375   33379   33383   33387   33391   33395   33399   33403
   33407   33411   33415   33419   33423   33427   33431   33435   33439   33443
   33447   33451   33455   33459   33463   33467   33471   33475   33479   33483
   33487   33491   33495   33499   33503   33507   33511   33515   33519   33523
   33527   33531   33535   33539   33543   33547   33551   33555   33559   33563
   33567   33571   33575   33579   33583   33587   33591   33595   33599   33603
   33607   33611   33615   33619   33623   33627   33631   33635   33639   33643
   33647   33651   33655   33659   33663   33667   33671   33675   33679   33683
   33687   33691   33695   33699   33703   33707   33711   33715   33719   33723
   33727   33731   33735   33739   33743   33747   33751   33755   33759   33763
   33767   33771   33775   33779   33783   33787   33791   33795   33799   33803
   33807   33811   33815   33819   33823   33827   33831   33835   33839   33843
   33847   33851   33855   33859   33863   33867   33871   33875   33879   33883
   33887   33891   33895   33899   33903   33907   33911   33915   33919   33923
   33927   33931   33935   33939   33943   33947   33951   33955   33959   33963
   33967   33971   33975   33979   33983   33987   33991   33995   33999   34003
   34007   34011   34015   34019   34023   34027   34031   34035   34039   34043
   34047   34051   34055   34059   34063   34067   34071   34075   34079   34083
   34087   34091   34095   34099   34103   34107   34111   34115   34119   34123
   34127   34131   34135   34139   34143   34147   34151   34155   34159   34163
   34167   34171   34175   34179   34183   34187   34191   34195   34199   34203
   34207   34211   34215   34219   34223   34227   34231   34235   34239   34243
   34247   34251   34255   34259   34263   34267   34271   34275   34279   34283
   34287   34291   34295   34299   34303   34307   34311   34315   34319   34323
   34327   34331   34335   34339   34343   34347   34351   34355   34359   34363
   34367   34371   34375   34379   34383   34387   34391   34395   34399   34403
   34407   34411   34415   34419   34423   34427   34431   34435   34439   34443
   34447   34451   34455   34459   34463   34467   34471   34475   34479   34483
   34487   34491   34495   34499   34503   34507   34511   34515   34519   34523
   34527   34531   34535   34539   34543   34547   34551   34555   34559   34563
   34567   34571   34575   34579   34583   34587   34591   34595   34599   34603
   34607   34611   34615   34619   34623   34627   34631   34635   34639   34643
   34647   34651   34655   34659   34663   34667   34671   34675   34679   34683
   34687   34691   34695   34699   34703   34707   34711   34715   34719   34723
   34727   34731   34735   34739   34743   34747   34751   34755   34759   34763
   34767   34771   34775   34779   34783   34787   34791   34795   34799   34803
   34807   34811   34815   34819   34823   34827   34831   34835   34839   34843
   34847   34851   34855   34859   34863   34867   34871   34875   34879   34883
   34887   34891   34895   34899   34903   34907   34911   34915   34919   34923
   34927   34931   34935   34939   34943   34947   34951   34955   34959   34963
   34967   34971   34975   34979   34983   34987   34991   34995   34999   35003
   35007   35011   35015   35019   35023   35027   35031   35035   35039   35043
   35047   35051   35055   35059   35063   35067   35071   35075   35079   35083
   35087   35091   35095   35099   35103   35107   35111   35115   35119   35123
   35127   35131   35135   35139   35143   35147   35151   35155   35159   35163
   35167   35171   35175   35179   35183   35187   35191   35195   35199   35203
   35207   35211   35215   35219   35223   35227   35231   35235   35239   35243
   35247   35251   35255   35259   35263   35267   35271   35275   35279   35283
   35287   35291   35295   35299   35303   35307   35311   35315   35319   35323
   35327   35331   35335   35339   35343   35347   35351   35355   35359   35363
   35367   35371   35375   35379   35383   35387   35391   35395   35399   35403
   35407   35411   35415   35419   35423   35427   35431   35435   35439   35443
   35447   35451   35455   35459   35463   35467   35471   35475   35479   35483
   35487   35491   35495   35499   35503   35507   35511   35515   35519   35523
   35527   35531   35535   35539   35543   35547   35551   35555   35559   35563
   35567   35571   35575   35579   35583   35587   35591   35595   35599   35603
   35607   35611   35615   35619   35623   35627   35631   35635   35639   35643
   35647   35651   35655   35659   35663   35667   35671   35675   35679   35683
   35687   35691   35695   35699   35703   35707   35711   35715   35719   35723
   35727   35731   35735   35739   35743   35747   35751   35755   35759   35763
   35767   35771   35775   35779   35783   35787   35791   35795   35799   35803
   35807   35811   35815   35819   35823   35827   35831   35835   35839   35843
   35847   35851   35855   35859   35863   35867   35871   35875   35879   35883
   35887   35891   35895   35899   35903   35907   35911   35915   35919   35923
   35927   35931   35935   35939   35943   35947   35951   35955   35959   35963
   35967   35971   35975   35979   35983   35987   35991   35995   35999   36003
   36007   36011   36015   36019   36023   36027   36031   36035   36039   36043
   36047   36051   36055   36059   36063   36067   36071   36075   36079   36083
   36087   36091   36095   36099   36103   36107   36111   36115   36119   36123
   36127   36131   36135   36139   36143   36147   36151   36155   36159   36163
   36167   36171   36175   36179   36183   36187   36191   36195   36199   36203
   36207   36211   36215   36219   36223   36227   36231   36235   36239   36243
   36247   36251   36255   36259   36263   36267   36271   36275   36279   36283
   36287   36291   36295   36299   36303   36307   36311   36315   36319   36323
   36327   36331   36335   36339   36343   36347   36351   36355   36359   36363
   36367   36371   36375   36379   36383   36387   36391   36395   36399   36403
   36407   36411   36415   36419   36423   36427   36431   36435   36439   36443
   36447   36451   36455   36459   36463   36467   36471   36475   36479   36483
   36487   36491   36495   36499   36503   36507   36511   36515   36519   36523
   36527   36531   36535   36539   36543   36547   36551   36555   36559   36563
   36567   36571   36575   36579   36583   36587   36591   36595   36599   36603
   36607   36611   36615   36619   36623   36627   36631   36635   36639   36643
   36647   36651   36655   36659   36663   36667   36671   36675   36679   36683
   36687   36691   36695   36699   36703   36707   36711   36715   36719   36723
   36727   36731   36735   36739   36743   36747   36751   36755   36759   36763
   36767   36771   36775   36779   36783   36787   36791   36795   36799   36803
   36807   36811   36815   36819   36823   36827   36831   36835   36839   36843
   36847   36851   36855   36859   36863   36867   36871   36875   36879   36883
   36887   36891   36895   36899   36903   36907   36911   36915   36919   36923
   36927   36931   36935   36939   36943   36947   36951   36955   36959   36963
   36967   36971   36975   36979   36983   36987   36991   36995   36999   37003
   37007   37011   37015   37019   37023   37027   37031   37035   37039   37043
   37047   37051   37055   37059   37063   37067   37071   37075   37079   37083
   37087   37091   37095   37099   37103   37107   37111   37115   37119   37123
   37127   37131   37135   37139   37143   37147   37151   37155   37159   37163
   37167   37171   37175   37179   37183   37187   37191   37195   37199   37203
   37207   37211   37215   37219   37223   37227   37231   37235   37239   37243
   37247   37251   37255   37259   37263   37267   37271   37275   37279   37283
   37287   37291   37295   37299   37303   37307   37311   37315   37319   37323
   37327   37331   37335   37339   37343   37347   37351   37355   37359   37363
   37367   37371   37375   37379   37383   37387   37391   37395   37399   37403
   37407   37411   37415   37419   37423   37427   37431   37435   37439   37443
   37447   37451   37455   37459   37463   37467   37471   37475   37479   37483
   37487   37491   37495   37499   37503   37507   37511   37515   37519   37523
   37527   37531   37535   37539   37543   37547   37551   37555   37559   37563
   37567   37571   37575   37579   37583   37587   37591   37595   37599   37603
   37607   37611   37615   37619   37623   37627   37631   37635   37639   37643
   37647   37651   37655   37659   37663   37667   37671   37675   37679   37683
   37687   37691   37695   37699   37703   37707   37711   37715   37719   37723
   37727   37731   37735   37739   37743   37747   37751   37755   37759   37763
   37767   37771   37775   37779   37783   37787   37791   37795   37799   37803
   37807   37811   37815   37819   37823   37827   37831   37835   37839   37843
   37847   37851   37855   37859   37863   37867   37871   37875   37879   37883
   37887   37891   37895   37899   37903   37907   37911   37915   37919   37923
   37927   37931   37935   37939   37943   37947   37951   37955   37959   37963
   37967   37971   37975   37979   37983   37987   37991   37995   37999   38003
   38007   38011   38015   38019   38023   38027   38031   38035   38039   38043
   38047   38051   38055   38059   38063   38067   38071   38075   38079   38083
   38087   38091   38095   38099   38103   38107   38111   38115   38119   38123
   38127   38131   38135   38139   38143   38147   38151   38155   38159   38163
   38167   38171   38175   38179   38183   38187   38191   38195   38199   38203
   38207   38211   38215   38219   38223   38227   38231   38235   38239   38243
   38247   38251   38255   38259   38263   38267   38271   38275   38279   38283
   38287   38291   38295   38299   38303   38307   38311   38315   38319   38323
   38327   38331   38335   38339   38343   38347   38351   38355   38359   38363
   38367   38371   38375   38379   38383   38387   38391   38395   38399   38403
   38407   38411   38415   38419   38423   38427   38431   38435   38439   38443
   38447   38451   38455   38459   38463   38467   38471   38475   38479   38483
   38487   38491   38495   38499   38503   38507   38511   38515   38519   38523
   38527   38531   38535   38539   38543   38547   38551   38555   38559   38563
   38567   38571   38575   38579   38583   38587   38591   38595   38599   38603
   38607   38611   38615   38619   38623   38627   38631   38635   38639   38643
   38647   38651   38655   38659   38663   38667   38671   38675   38679   38683
   38687   38691   38695   38699   38703   38707   38711   38715   38719   38723
   38727   38731   38735   38739   38743   38747   38751   38755   38759   38763
   38767   38771   38775   38779   38783   38787   38791   38795   38799   38803
   38807   38811   38815   38819   38823   38827   38831   38835   38839   38843
   38847   38851   38855   38859   38863   38867   38871   38875   38879   38883
   38887   38891   38895   38899   38903   38907   38911   38915   38919   38923
   38927   38931   38935   38939   38943   38947   38951   38955   38959   38963
   38967   38971   38975   38979   38983   38987   38991   38995   38999   39003
   39007   39011   39015   39019   39023   39027   39031   39035   39039   39043
   39047   39051   39055   39059   39063   39067   39071   39075   39079   39083
   39087   39091   39095   39099   39103   39107   39111   39115   39119   39123
   39127   39131   39135   39139   39143   39147   39151   39155   39159   39163
   39167   39171   39175   39179   39183   39187   39191   39195   39199   39203
   39207   39211   39215   39219   39223   39227   39231   39235   39239   39243
   39247   39251   39255   39259   39263   39267   39271   39275   39279   39283
   39287   39291   39295   39299   39303   39307   39311   39315   39319   39323
   39327   39331   39335   39339   39343   39347   39351   39355   39359   39363
   39367   39371   39375   39379   39383   39387   39391   39395   39399   39403
   39407   39411   39415   39419   39423   39427   39431   39435   39439   39443
   39447   39451   39455   39459   39463   39467   39471   39475   39479   39483
   39487   39491   39495   39499   39503   39507   39511   39515   39519   39523
   39527   39531   39535   39539   39543   39547   39551   39555   39559   39563
   39567   39571   39575   39579   39583   39587   39591   39595   39599   39603
   39607   39611   39615   39619   39623   39627   39631   39635   39639   39643
   39647   39651   39655   39659   39663   39667   39671   39675   39679   39683
   39687   39691   39695   39699   39703   39707   39711   39715   39719   39723
   39727   39731   39735   39739   39743   39747   39751   39755   39759   39763
   39767   39771   39775   39779   39783   39787   39791   39795   39799   39803
   39807   39811   39815   39819   39823   39827   39831   39835   39839   39843
   39847   39851   39855   39859   39863   39867   39871   39875   39879   39883
   39887   39891   39895   39899   39903   39907   39911   39915   39919   39923
   39927   39931   39935   39939   39943   39947   39951   39955   39959   39963
   39967   39971   39975   39979   39983   39987   39991   39995   39999   40003
   40007   40011   40015   40019   40023   40027   40031   40035   40039   40043
   40047   40051   40055   40059   40063   40067   40071   40075   40079   40083
   40087   40091   40095   40099   40103   40107   40111   40115   40119   40123
   40127   40131   40135   40139   40143   40147   40151   40155   40159   40163
   40167   40171   40175   40179   40183   40187   40191   40195   40199   40203
   40207   40211   40215   40219   40223   40227   40231   40235   40239   40243
   40247   40251   40255   40259   40263   40267   40271   40275   40279   40283
   40287   40291   40295   40299   40303   40307   40311   40315   40319   40323
   40327   40331   40335   40339   40343   40347   40351   40355   40359   40363
   40367   40371   40375   40379   40383   40387   40391   40395   40399   40403
   40407   40411   40415   40419   40423   40427   40431   40435   40439   40443
   40447   40451   40455   40459   40463   40467   40471   40475   40479   40483
   40487   40491   40495   40499   40503   40507   40511   40515   40519   40523
   40527   40531   40535   40539   40543   40547   40551   40555   40559   40563
   40567   40571   40575   40579   40583   40587   40591   40595   40599   40603
   40607   40611   40615   40619   40623   40627   40631   40635   40639   40643
   40647   40651   40655   40659   40663   40667   40671   40675   40679   40683
   40687   40691   40695   40699   40703   40707   40711   40715   40719   40723
   40727   40731   40735   40739   40743   40747   40751   40755   40759   40763
   40767   40771   40775   40779   40783   40787   40791   40795   40799   40803
   40807   40811   40815   40819   40823   40827   40831   40835   40839   40843
   40847   40851   40855   40859   40863   40867   40871   40875   40879   40883
   40887   40891   40895   40899   40903   40907   40911   40915   40919   40923
   40927   40931   40935   40939   40943   40947   40951   40955   40959   40963
   40967   40971   40975   40979   40983   40987   40991   40995   40999   41003
   41007   41011   41015   41019   41023   41027   41031   41035   41039   41043
   41047   41051   41055   41059   41063   41067   41071   41075   41079   41083
   41087   41091   41095   41099   41103   41107   41111   41115   41119   41123
   41127   41131   41135   41139   41143   41147   41151   41155   41159   41163
   41167   41171   41175   41179   41183   41187   41191   41195   41199   41203
   41207   41211   41215   41219   41223   41227   41231   41235   41239   41243
   41247   41251   41255   41259   41263   41267   41271   41275   41279   41283
   41287   41291   41295   41299   41303   41307   41311   41315   41319   41323
   41327   41331   41335   41339   41343   41347   41351   41355   41359   41363
   41367   41371   41375   41379   41383   41387   41391   41395   41399   41403
   41407   41411   41415   41419   41423   41427   41431   41435   41439   41443
   41447   41451   41455   41459   41463   41467   41471   41475   41479   41483
   41487   41491   41495   41499   41503   41507   41511   41515   41519   41523
   41527   41531   41535   41539   41543   41547   41551   41555   41559   41563
   41567   41571   41575   41579   41583   41587   41591   41595   41599   41603
   41607   41611   41615   41619   41623   41627   41631   41635   41639   41643
   41647   41651   41655   41659   41663   41667   41671   41675   41679   41683
   41687   41691   41695   41699   41703   41707   41711   41715   41719   41723
   41727   41731   41735   41739   41743   41747   41751   41755   41759   41763
   41767   41771   41775   41779   41783   41787   41791   41795   41799   41803
   41807   41811   41815   41819   41823   41827   41831   41835   41839   41843
   41847   41851   41855   41859   41863   41867   41871   41875   41879   41883
   41887   41891   41895   41899   41903   41907   41911   41915   41919   41923
   41927   41931   41935   41939   41943   41947   41951   41955   41959   41963
   41967   41971   41975   41979   41983   41987   41991   41995   41999   42003
   42007   42011   42015   42019   42023   42027   42031   42035   42039   42043
   42047   42051   42055   42059   42063   42067   42071   42075   42079   42083
   42087   42091   42095   42099   42103   42107   42111   42115   42119   42123
   42127   42131   42135   42139   42143   42147   42151   42155   42159   42163
   42167   42171   42175   42179   42183   42187   42191   42195   42199   42203
   42207   42211   42215   42219   42223   42227   42231   42235   42239   42243
   42247   42251   42255   42259   42263   42267   42271   42275   42279   42283
   42287   42291   42295   42299   42303   42307   42311   42315   42319   42323
   42327   42331   42335   42339   42343   42347   42351   42355   42359   42363
   42367   42371   42375   42379   42383   42387   42391   42395   42399   42403
   42407   42411   42415   42419   42423   42427   42431   42435   42439   42443
   42447   42451   42455   42459   42463   42467   42471   42475   42479   42483
   42487   42491   42495   42499   42503   42507   42511   42515   42519   42523
   42527   42531   42535   42539   42543   42547   42551   42555   42559   42563
   42567   42571   42575   42579   42583   42587   42591   42595   42599   42603
   42607   42611   42615   42619   42623   42627   42631   42635   42639   42643
   42647   42651   42655   42659   42663   42667   42671   42675   42679   42683
   42687   42691   42695   42699   42703   42707   42711   42715   42719   42723
   42727   42731   42735   42739   42743   42747   42751   42755   42759   42763
   42767   42771   42775   42779   42783   42787   42791   42795   42799   42803
   42807   42811   42815   42819   42823   42827   42831   42835   42839   42843
   42847   42851   42855   42859   42863   42867   42871   42875   42879   42883
   42887   42891   42895   42899   42903   42907   42911   42915   42919   42923
   42927   42931   42935   42939   42943   42947   42951   42955   42959   42963
   42967   42971   42975   42979   42983   42987   42991   42995   42999   43003
   43007   43011   43015   43019   43023   43027   43031   43035   43039   43043
   43047   43051   43055   43059   43063   43067   43071   43075   43079   43083
   43087   43091   43095   43099   43103   43107   43111   43115   43119   43123
   43127   43131   43135   43139   43143   43147   43151   43155   43159   43163
   43167   43171   43175   43179   43183   43187   43191   43195   43199   43203
   43207   43211   43215   43219   43223   43227   43231   43235   43239   43243
   43247   43251   43255   43259   43263   43267   43271   43275   43279   43283
   43287   43291   43295   43299   43303   43307   43311   43315   43319   43323
   43327   43331   43335   43339   43343   43347   43351   43355   43359   43363
   43367   43371   43375   43379   43383   43387   43391   43395   43399   43403
   43407   43411   43415   43419   43423   43427   43431   43435   43439   43443
   43447   43451   43455   43459   43463   43467   43471   43475   43479   43483
   43487   43491   43495   43499   43503   43507   43511   43515   43519   43523
   43527   43531   43535   43539   43543   43547   43551   43555   43559   43563
   43567   43571   43575   43579   43583   43587   43591   43595   43599   43603
   43607   43611   43615   43619   43623   43627   43631   43635   43639   43643
   43647   43651   43655   43659   43663   43667   43671   43675   43679   43683
   43687   43691   43695   43699   43703   43707   43711   43715   43719   43723
   43727   43731   43735   43739   43743   43747   43751   43755   43759   43763
   43767   43771   43775   43779   43783   43787   43791   43795   43799   43803
   43807   43811   43815   43819   43823   43827   43831   43835   43839   43843
   43847   43851   43855   43859   43863   43867   43871   43875   43879   43883
   43887   43891   43895   43899   43903   43907   43911   43915   43919   43923
   43927   43931   43935   43939   43943   43947   43951   43955   43959   43963
   43967   43971   43975   43979   43983   43987   43991   43995   43999   44003
   44007   44011   44015   44019   44023   44027   44031   44035   44039   44043
   44047   44051   44055   44059   44063   44067   44071   44075   44079   44083
   44087   44091   44095   44099   44103   44107   44111   44115   44119   44123
   44127   44131   44135   44139   44143   44147   44151   44155   44159   44163
   44167   44171   44175   44179   44183   44187   44191   44195   44199   44203
   44207   44211   44215   44219   44223   44227   44231   44235   44239   44243
   44247   44251   44255   44259   44263   44267   44271   44275   44279   44283
   44287   44291   44295   44299   44303   44307   44311   44315   44319   44323
   44327   44331   44335   44339   44343   44347   44351   44355   44359   44363
   44367   44371   44375   44379   44383   44387   44391   44395   44399   44403
   44407   44411   44415   44419   44423   44427   44431   44435   44439   44443
   44447   44451   44455   44459   44463   44467   44471   44475   44479   44483
   44487   44491   44495   44499   44503   44507   44511   44515   44519   44523
   44527   44531   44535   44539   44543   44547   44551   44555   44559   44563
   44567   44571   44575   44579   44583   44587   44591   44595   44599   44603
   44607   44611   44615   44619   44623   44627   44631   44635   44639   44643
   44647   44651   44655   44659   44663   44667   44671   44675   44679   44683
   44687   44691   44695   44699   44703   44707   44711   44715   44719   44723
   44727   44731   44735   44739   44743   44747   44751   44755   44759   44763
   44767   44771   44775   44779   44783   44787   44791   44795   44799   44803
   44807   44811   44815   44819   44823   44827   44831   44835   44839   44843
   44847   44851   44855   44859   44863   44867   44871   44875   44879   44883
   44887   44891   44895   44899   44903   44907   44911   44915   44919   44923
   44927   44931   44935   44939   44943   44947   44951   44955   44959   44963
   44967   44971   44975   44979   44983   44987   44991   44995   44999   45003
   45007   45011   45015   45019   45023   45027   45031   45035   45039   45043
   45047   45051   45055   45059   45063   45067   45071   45075   45079   45083
   45087   45091   45095   45099   45103   45107   45111   45115   45119   45123
   45127   45131   45135   45139   45143   45147   45151   45155   45159   45163
   45167   45171   45175   45179   45183   45187   45191   45195   45199   45203
   45207   45211   45215   45219   45223   45227   45231   45235   45239   45243
   45247   45251   45255   45259   45263   45267   45271   45275   45279   45283
   45287   45291   45295   45299   45303   45307   45311   45315   45319   45323
   45327   45331   45335   45339   45343   45347   45351   45355   45359   45363
   45367   45371   45375   45379   45383   45387   45391   45395   45399   45403
   45407   45411   45415   45419   45423   45427   45431   45435   45439   45443
   45447   45451   45455   45459   45463   45467   45471   45475   45479   45483
   45487   45491   45495   45499   45503   45507   45511   45515   45519   45523
   45527   45531   45535   45539   45543   45547   45551   45555   45559   45563
   45567   45571   45575   45579   45583   45587   45591   45595   45599   45603
   45607   45611   45615   45619   45623   45627   45631   45635   45639   45643
   45647   45651   45655   45659   45663   45667   45671   45675   45679   45683
   45687   45691   45695   45699   45703   45707   45711   45715   45719   45723
   45727   45731   45735   45739   45743   45747   45751   45755   45759   45763
   45767   45771   45775   45779   45783   45787   45791   45795   45799   45803
   45807   45811   45815   45819   45823   45827   45831   45835   45839   45843
   45847   45851   45855   45859   45863   45867   45871   45875   45879   45883
   45887   45891   45895   45899   45903   45907   45911   45915   45919   45923
   45927   45931   45935   45939   45943   45947   45951   45955   45959   45963
   45967   45971   45975   45979   45983   45987   45991   45995   45999   46003
   46007   46011   46015   46019   46023   46027   46031   46035   46039   46043
   46047   46051   46055   46059   46063   46067   46071   46075   46079   46083
   46087   46091   46095   46099   46103   46107   46111   46115   46119   46123
   46127   46131   46135   46139   46143   46147   46151   46155   46159   46163
   46167   46171   46175   46179   46183   46187   46191   46195   46199   46203
   46207   46211   46215   46219   46223   46227   46231   46235   46239   46243
   46247   46251   46255   46259   46263   46267   46271   46275   46279   46283
   46287   46291   46295   46299   46303   46307   46311   46315   46319   46323
   46327   46331   46335   46339   46343   46347   46351   46355   46359   46363
   46367   46371   46375   46379   46383   46387   46391   46395   46399   46403
   46407   46411   46415   46419   46423   46427   46431   46435   46439   46443
   46447   46451   46455   46459   46463   46467   46471   46475   46479   46483
   46487   46491   46495   46499   46503   46507   46511   46515   46519   46523
   46527   46531   46535   46539   46543   46547   46551   46555   46559   46563
   46567   46571   46575   46579   46583   46587   46591   46595   46599   46603
   46607   46611   46615   46619   46623   46627   46631   46635   46639   46643
   46647   46651   46655   46659   46663   46667   46671   46675   46679   46683
   46687   46691   46695   46699   46703   46707   46711   46715   46719   46723
   46727   46731   46735   46739   46743   46747   46751   46755   46759   46763
   46767   46771   46775   46779   46783   46787   46791   46795   46799   46803
   46807   46811   46815   46819   46823   46827   46831   46835   46839   46843
   46847   46851   46855   46859   46863   46867   46871   46875   46879   46883
   46887   46891   46895   46899   46903   46907   46911   46915   46919   46923
   46927   46931   46935   46939   46943   46947   46951   46955   46959   46963
   46967   46971   46975   46979   46983   46987   46991   46995   46999   47003
   47007   47011   47015   47019   47023   47027   47031   47035   47039   47043
   47047   47051   47055   47059   47063   47067   47071   47075   47079   47083
   47087   47091   47095   47099   47103   47107   47111   47115   47119   47123
   47127   47131   47135   47139   47143   47147   47151   47155   47159   47163
   47167   47171   47175   47179   47183   47187   47191   47195   47199   47203
   47207   47211   47215   47219   47223   47227   47231   47235   47239   47243
   47247   47251   47255   47259   47263   47267   47271   47275   47279   47283
   47287   47291   47295   47299   47303   47307   47311   47315   47319   47323
   47327   47331   47335   47339   47343   47347   47351   47355   47359   47363
   47367   47371   47375   47379   47383   47387   47391   47395   47399   47403
   47407   47411   47415   47419   47423   47427   47431   47435   47439   47443
   47447   47451   47455   47459   47463   47467   47471   47475   47479   47483
   47487   47491   47495   47499   47503   47507   47511   47515   47519   47523
   47527   47531   47535   47539   47543   47547   47551   47555   47559   47563
   47567   47571   47575   47579   47583   47587   47591   47595   47599   47603
   47607   47611   47615   47619   47623   47627   47631   47635   47639   47643
   47647   47651   47655   47659   47663   47667   47671   47675   47679   47683
   47687   47691   47695   47699   47703   47707   47711   47715   47719   47723
   47727   47731   47735   47739   47743   47747   47751   47755   47759   47763
   47767   47771   47775   47779   47783   47787   47791   47795   47799   47803
   47807   47811   47815   47819   47823   47827   47831   47835   47839   47843
   47847   47851   47855   47859   47863   47867   47871   47875   47879   47883
   47887   47891   47895   47899   47903   47907   47911   47915   47919   47923
   47927   47931   47935   47939   47943   47947   47951   47955   47959   47963
   47967   47971   47975   47979   47983   47987   47991   47995   47999   48003
   48007   48011   48015   48019   48023   48027   48031   48035   48039   48043
   48047   48051   48055   48059   48063   48067   48071   48075   48079   48083
   48087   48091   48095   48099   48103   48107   48111   48115   48119   48123
   48127   48131   48135   48139   48143   48147   48151   48155   48159   48163
   48167   48171   48175   48179   48183   48187   48191   48195   48199   48203
   48207   48211   48215   48219   48223   48227   48231   48235   48239   48243
   48247   48251   48255   48259   48263   48267   48271   48275   48279   48283
   48287   48291   48295   48299   48303   48307   48311   48315   48319   48323
   48327   48331   48335   48339   48343   48347   48351   48355   48359   48363
   48367   48371   48375   48379   48383   48387   48391   48395   48399   48403
   48407   48411   48415   48419   48423   48427   48431   48435   48439   48443
   48447   48451   48455   48459   48463   48467   48471   48475   48479   48483
   48487   48491   48495   48499   48503   48507   48511   48515   48519   48523
   48527   48531   48535   48539   48543   48547   48551   48555   48559   48563
   48567   48571   48575   48579   48583   48587   48591   48595   48599   48603
   48607   48611   48615   48619   48623   48627   48631   48635   48639   48643
   48647   48651   48655   48659   48663   48667   48671   48675   48679   48683
   48687   48691   48695   48699   48703   48707   48711   48715   48719   48723
   48727   48731   48735   48739   48743   48747   48751   48755   48759   48763
   48767   48771   48775   48779   48783   48787   48791   48795   48799   48803
   48807   48811   48815   48819   48823   48827   48831   48835   48839   48843
   48847   48851   48855   48859   48863   48867   48871   48875   48879   48883
   48887   48891   48895   48899   48903   48907   48911   48915   48919   48923
   48927   48931   48935   48939   48943   48947   48951   48955   48959   48963
   48967   48971   48975   48979   48983   48987   48991   48995   48999   49003
   49007   49011   49015   49019   49023   49027   49031   49035   49039   49043
   49047   49051   49055   49059   49063   49067   49071   49075   49079   49083
   49087   49091   49095   49099   49103   49107   49111   49115   49119   49123
   49127   49131   49135   49139   49143   49147   49151   49155   49159   49163
   49167   49171   49175   49179   49183   49187   49191   49195   49199   49203
   49207   49211   49215   49219   49223   49227   49231   49235   49239   49243
   49247   49251   49255   49259   49263   49267   49271   49275   49279   49283
   49287   49291   49295   49299   49303   49307   49311   49315   49319   49323
   49327   49331   49335   49339   49343   49347   49351   49355   49359   49363
   49367   49371   49375   49379   49383   49387   49391   49395   49399   49403
   49407   49411   49415   49419   49423   49427   49431   49435   49439   49443
   49447   49451   49455   49459   49463   49467   49471   49475   49479   49483
   49487   49491   49495   49499   49503   49507   49511   49515   49519   49523
   49527   49531   49535   49539   49543   49547   49551   49555   49559   49563
   49567   49571   49575   49579   49583   49587   49591   49595   49599   49603
   49607   49611   49615   49619   49623   49627   49631   49635   49639   49643
   49647   49651   49655   49659   49663   49667   49671   49675   49679   49683
   49687   49691   49695   49699   49703   49707   49711   49715   49719   49723
   49727   49731   49735   49739   49743   49747   49751   49755   49759   49763
   49767   49771   49775   49779   49783   49787   49791   49795   49799   49803
   49807   49811   49815   49819   49823   49827   49831   49835   49839   49843
   49847   49851   49855   49859   49863   49867   49871   49875   49879   49883
   49887   49891   49895   49899   49903   49907   49911   49915   49919   49923
   49927   49931   49935   49939   49943   49947   49951   49955   49959   49963
   49967   49971   49975   49979   49983   49987   49991   49995   49999   50003
   50007   50011   50015   50019   50023   50027   50031   50035   50039   50043
   50047   50051   50055   50059   50063   50067   50071   50075   50079   50083
   50087   50091   50095   50099   50103   50107   50111   50115   50119   50123
   50127   50131   50135   50139   50143   50147   50151   50155   50159   50163
   50167   50171   50175   50179   50183   50187   50191   50195   50199   50203
   50207   50211   50215   50219   50223   50227   50231   50235   50239   50243
   50247   50251   50255   50259   50263   50267   50271   50275   50279   50283
   50287   50291   50295   50299   50303   50307   50311   50315   50319   50323
   50327   50331   50335   50339   50343   50347   50351   50355   50359   50363
   50367   50371   50375   50379   50383   50387   50391   50395   50399   50403
   50407   50411   50415   50419   50423   50427   50431   50435   50439   50443
   50447   50451   50455   50459   50463   50467   50471   50475   50479   50483
   50487   50491   50495   50499   50503   50507   50511   50515   50519   50523
   50527   50531   50535   50539   50543   50547   50551   50555   50559   50563
   50567   50571   50575   50579   50583   50587   50591   50595   50599   50603
   50607   50611   50615   50619   50623   50627   50631   50635   50639   50643
   50647   50651   50655   50659   50663   50667   50671   50675   50679   50683
   50687   50691   50695   50699   50703   50707   50711   50715   50719   50723
   50727   50731   50735   50739   50743   50747   50751   50755   50759   50763
   50767   50771   50775   50779   50783   50787   50791   50795   50799   50803
   50807   50811   50815   50819   50823   50827   50831   50835   50839   50843
   50847   50851   50855   50859   50863   50867   50871   50875   50879   50883
   50887   50891   50895   50899   50903   50907   50911   50915   50919   50923
   50927   50931   50935   50939   50943   50947   50951   50955   50959   50963
   50967   50971   50975   50979   50983   50987   50991   50995   50999   51003
   51007   51011   51015   51019   51023   51027   51031   51035   51039   51043
   51047   51051   51055   51059   51063   51067   51071   51075   51079   51083
   51087   51091   51095   51099   51103   51107   51111   51115   51119   51123
   51127   51131   51135   51139   51143   51147   51151   51155   51159   51163
   51167   51171   51175   51179   51183   51187   51191   51195   51199   51203
   51207   51211   51215   51219   51223   51227   51231   51235   51239   51243
   51247   51251   51255   51259   51263   51267   51271   51275   51279   51283
   51287   51291   51295   51299   51303   51307   51311   51315   51319   51323
   51327   51331   51335   51339   51343   51347   51351   51355   51359   51363
   51367   51371   51375   51379   51383   51387   51391   51395   51399   51403
   51407   51411   51415   51419   51423   51427   51431   51435   51439   51443
   51447   51451   51455   51459   51463   51467   51471   51475   51479   51483
   51487   51491   51495   51499   51503   51507   51511   51515   51519   51523
   51527   51531   51535   51539   51543   51547   51551   51555   51559   51563
   51567   51571   51575   51579   51583   51587   51591   51595   51599   51603
   51607   51611   51615   51619   51623   51627   51631   51635   51639   51643
   51647   51651   51655   51659   51663   51667   51671   51675   51679   51683
   51687   51691   51695   51699   51703   51707   51711   51715   51719   51723
   51727   51731   51735   51739   51743   51747   51751   51755   51759   51763
   51767   51771   51775   51779   51783   51787   51791   51795   51799   51803
   51807   51811   51815   51819   51823   51827   51831   51835   51839   51843
   51847   51851   51855   51859   51863   51867   51871   51875   51879   51883
   51887   51891   51895   51899   51903   51907   51911   51915   51919   51923
   51927   51931   51935   51939   51943   51947   51951   51955   51959   51963
   51967   51971   51975   51979   51983   51987   51991   51995   51999   52003
   52007   52011   52015   52019   52023   52027   52031   52035   52039   52043
   52047   52051   52055   52059   52063   52067   52071   52075   52079   52083
   52087   52091   52095   52099   52103   52107   52111   52115   52119   52123
   52127   52131   52135   52139   52143   52147   52151   52155   52159   52163
   52167   52171   52175   52179   52183   52187   52191   52195   52199   52203
   52207   52211   52215   52219   52223   52227   52231   52235   52239   52243
   52247   52251   52255   52259   52263   52267   52271   52275   52279   52283
   52287   52291   52295   52299   52303   52307   52311   52315   52319   52323
   52327   52331   52335   52339   52343   52347   52351   52355   52359   52363
   52367   52371   52375   52379   52383   52387   52391   52395   52399   52403
   52407   52411   52415   52419   52423   52427   52431   52435   52439   52443
   52447   52451   52455   52459   52463   52467   52471   52475   52479   52483
   52487   52491   52495   52499   52503   52507   52511   52515   52519   52523
   52527   52531   52535   52539   52543   52547   52551   52555   52559   52563
   52567   52571   52575   52579   52583   52587   52591   52595   52599   52603
   52607   52611   52615   52619   52623   52627   52631   52635   52639   52643
   52647   52651   52655   52659   52663   52667   52671   52675   52679   52683
   52687   52691   52695   52699   52703   52707   52711   52715   52719   52723
   52727   52731   52735   52739   52743   52747   52751   52755   52759   52763
   52767   52771   52775   52779   52783   52787   52791   52795   52799   52803
   52807   52811   52815   52819   52823   52827   52831   52835   52839   52843
   52847   52851   52855   52859   52863
%FLAG BOND_FORCE_CONSTANT                                                       
%FORMAT(5E16.8)                                                                 
  2.30000000E+02  5.53000000E+02  3.40000000E+02  3.20000000E+02  3.10000000E+02
  3.20000000E+02  4.61000000E+02  4.34000000E+02  4.81000000E+02  4.83000000E+02
  4.34000000E+02  4.27000000E+02  5.70000000E+02  4.18000000E+02  4.47000000E+02
  5.20000000E+02  4.14000000E+02  3.67000000E+02  5.29000000E+02  4.40000000E+02
  4.36000000E+02  3.40000000E+02  3.37000000E+02  3.40000000E+02  3.10000000E+02
  3.20000000E+02  3.20000000E+02  5.25000000E+02  3.67000000E+02  5.02000000E+02
  4.69000000E+02  3.67000000E+02  5.29000000E+02  4.40000000E+02  3.67000000E+02
  4.10000000E+02  3.67000000E+02  5.49000000E+02  4.48000000E+02  4.24000000E+02
  4.57000000E+02  3.67000000E+02  4.27000000E+02  3.67000000E+02  5.49000000E+02
  4.48000000E+02  5.53000000E+02  5.53000000E+02  5.53000000E+02  4.81770000E+02
  3.32450000E+02  3.66810000E+02  4.17790000E+02  3.56030000E+02  3.86240000E+02
  3.45930000E+02  3.34280000E+02  2.55140000E+02  4.19720000E+02  3.53800000E+02
  5.27300000E+02  3.56200000E+02  2.81780000E+02  5.90600000E+02
%FLAG BOND_EQUIL_VALUE                                                          
%FORMAT(5E16.8)                                                                 
  1.61000000E+00  9.60000000E-01  1.09000000E+00  1.41000000E+00  1.52600000E+00
  1.41000000E+00  1.35400000E+00  1.01000000E+00  1.34000000E+00  1.33900000E+00
  1.01000000E+00  1.38100000E+00  1.22900000E+00  1.38800000E+00  1.41900000E+00
  1.37000000E+00  1.39100000E+00  1.08000000E+00  1.30400000E+00  1.37100000E+00
  1.37400000E+00  1.09000000E+00  1.47500000E+00  1.09000000E+00  1.52600000E+00
  1.41000000E+00  1.41000000E+00  1.48000000E+00  1.08000000E+00  1.32400000E+00
  1.40400000E+00  1.08000000E+00  1.30400000E+00  1.37100000E+00  1.08000000E+00
  1.44400000E+00  1.08000000E+00  1.35000000E+00  1.36500000E+00  1.38300000E+00
  1.35800000E+00  1.08000000E+00  1.43300000E+00  1.08000000E+00  1.35000000E+00
  1.36500000E+00  1.51360000E+00  1.25000000E-01  9.57200000E-01  1.00950000E+00
  1.38300000E+00  1.08210000E+00  1.31710000E+00  1.36290000E+00  1.37300000E+00
  1.37130000E+00  1.35120000E+00  1.50020000E+00  1.31580000E+00  1.38100000E+00
  1.01300000E+00  1.37900000E+00  1.46870000E+00  1.21900000E+00
%FLAG ANGLE_FORCE_CONSTANT                                                      
%FORMAT(5E16.8)                                                                 
  1.00000000E+02  4.50000000E+01  5.00000000E+01  5.00000000E+01  5.50000000E+01
  5.00000000E+01  5.00000000E+01  5.00000000E+01  1.00000000E+02  3.50000000E+01
  7.00000000E+01  5.00000000E+01  7.00000000E+01  5.00000000E+01  7.00000000E+01
  7.00000000E+01  8.00000000E+01  6.30000000E+01  5.00000000E+01  7.00000000E+01
  8.00000000E+01  7.00000000E+01  7.00000000E+01  7.00000000E+01  7.00000000E+01
  5.00000000E+01  7.00000000E+01  7.00000000E+01  5.00000000E+01  5.00000000E+01
  7.00000000E+01  7.00000000E+01  7.00000000E+01  5.00000000E+01  5.00000000E+01
  7.00000000E+01  7.00000000E+01  4.00000000E+01  5.00000000E+01  5.00000000E+01
  6.00000000E+01  5.00000000E+01  3.50000000E+01  5.00000000E+01  5.00000000E+01
  4.00000000E+01  5.00000000E+01  5.00000000E+01  5.50000000E+01  5.00000000E+01
  5.00000000E+01  1.40000000E+02  1.00000000E+02  5.00000000E+01  7.00000000E+01
  7.00000000E+01  6.30000000E+01  7.00000000E+01  7.00000000E+01  7.00000000E+01
  7.00000000E+01  5.00000000E+01  7.00000000E+01  7.00000000E+01  5.00000000E+01
  7.00000000E+01  7.00000000E+01  7.00000000E+01  5.00000000E+01  8.00000000E+01
  7.00000000E+01  5.00000000E+01  7.00000000E+01  5.00000000E+01  6.30000000E+01
  5.00000000E+01  7.00000000E+01  7.00000000E+01  8.00000000E+01  7.00000000E+01
  7.00000000E+01  8.00000000E+01  7.00000000E+01  5.00000000E+01  7.00000000E+01
  7.00000000E+01  5.00000000E+01  7.00000000E+01  5.00000000E+01  6.30000000E+01
  5.00000000E+01  7.00000000E+01  7.00000000E+01  7.00000000E+01  4.79400000E+01
  5.54300000E+01  7.65100000E+01  4.88900000E+01  7.19900000E+01  8.60800000E+01
  6.97000000E+01  8.27900000E+01  7.14500000E+01  7.25300000E+01  1.06880000E+02
  6.55300000E+01  4.83000000E+01  7.98900000E+01  8.73500000E+01  8.71000000E+01
  8.36000000E+01  1.10300000E+02  6.66000000E+01  4.87000000E+01  6.22000000E+01
  6.57200000E+01  1.13800000E+02  7.83600000E+01
%FLAG ANGLE_EQUIL_VALUE                                                         
%FORMAT(5E16.8)                                                                 
  1.88897066E+00  1.79070858E+00  1.91113635E+00  1.91113635E+00  1.89368305E+00
  1.91113635E+00  1.91113635E+00  1.91113635E+00  2.10312265E+00  2.09439600E+00
  2.08217869E+00  2.09439600E+00  1.95826026E+00  2.05948940E+00  2.02458280E+00
  2.15199189E+00  2.10486798E+00  2.08043336E+00  2.03854544E+00  2.18515316E+00
  2.24798504E+00  1.94255229E+00  2.22878641E+00  2.26892900E+00  1.92684432E+00
  2.14762857E+00  1.83957782E+00  1.81165254E+00  1.91113635E+00  2.14762857E+00
  1.98793087E+00  1.85354046E+00  2.20260646E+00  1.91113635E+00  1.91113635E+00
  2.24798504E+00  2.19562514E+00  1.91113635E+00  1.91113635E+00  1.91113635E+00
  1.91113635E+00  1.91113635E+00  1.91113635E+00  1.91113635E+00  1.91113635E+00
  1.91113635E+00  1.91113635E+00  1.91113635E+00  1.89368305E+00  1.91113635E+00
  1.91113635E+00  2.09265067E+00  2.10312265E+00  2.01498349E+00  1.93731630E+00
  2.25322103E+00  2.04727209E+00  2.06996138E+00  2.15548255E+00  2.04727209E+00
  2.31081692E+00  2.14762857E+00  1.83957782E+00  1.81165254E+00  2.14762857E+00
  1.98793087E+00  2.24798504E+00  2.20609712E+00  2.08916001E+00  2.18689849E+00
  1.99142153E+00  2.08916001E+00  2.12232128E+00  2.08916001E+00  2.10661331E+00
  2.07868803E+00  2.11533996E+00  2.01411082E+00  2.11010397E+00  2.11533996E+00
  2.05250808E+00  2.13802925E+00  2.10312265E+00  2.15199189E+00  2.09614133E+00
  2.12057595E+00  2.08916001E+00  2.12232128E+00  2.08916001E+00  2.04203610E+00
  2.07868803E+00  2.11533996E+00  2.06996138E+00  2.11533996E+00  2.10888224E+00
  2.18585129E+00  1.97257197E+00  2.18672396E+00  1.90223517E+00  1.90502770E+00
  2.05931487E+00  1.93557097E+00  1.94743921E+00  2.11411823E+00  1.87396082E+00
  2.16194027E+00  2.08148056E+00  1.94290136E+00  1.83905422E+00  1.96698691E+00
  2.08025883E+00  2.14675590E+00  2.15146829E+00  2.05163542E+00  2.11743436E+00
  2.15007203E+00  2.14762857E+00  2.16525640E+00
%FLAG DIHEDRAL_FORCE_CONSTANT                                                   
%FORMAT(5E16.8)                                                                 
  1.85181000E-01  1.25653100E+00  3.54858000E-01  1.17500000E+00  1.44000000E-01
  2.50000000E-01  0.00000000E+00  1.66666667E-01  3.83333333E-01  1.55555556E-01
  1.60000000E-01  2.50000000E-01  1.20000000E+00  0.00000000E+00  2.40000000E+00
  4.80000000E+00  1.50000000E+00  3.00000000E+00  1.35000000E+00  5.45000000E+00
  4.15000000E+00  1.70000000E+00  1.00000000E+01  1.65000000E+00  2.55000000E+00
  1.00000000E-01  3.83000000E-01  7.05100000E-01  1.06546000E+00  4.42730000E-01
  2.56020000E-01  6.50000000E-01  2.00000000E-01  2.50000000E-01  1.80000000E-01
  1.17804000E+00  9.21020000E-02  9.62830000E-01  6.80000000E+00  3.50000000E+00
  9.65610000E-01  1.07403000E+00  4.57540000E-01  3.09170000E-01  2.17500000E+00
  1.85000000E+00  6.65000000E+00  1.45000000E+00  3.00000000E-01  1.02514000E+00
  1.74876000E+00  5.81500000E-01  3.51480000E-01  4.00000000E+00  1.22506000E+00
  1.63459000E+00  9.37470000E-01  3.10330000E-01  2.50000000E+00  4.75000000E+00
  2.87500000E+00  2.00000000E+00  0.00000000E+00  1.00000000E+00  1.10000000E+00
  1.05000000E+01
%FLAG DIHEDRAL_PERIODICITY                                                      
%FORMAT(5E16.8)                                                                 
  1.00000000E+00  2.00000000E+00  3.00000000E+00  2.00000000E+00  3.00000000E+00
  1.00000000E+00  3.00000000E+00  3.00000000E+00  3.00000000E+00  3.00000000E+00
  3.00000000E+00  3.00000000E+00  2.00000000E+00  2.00000000E+00  2.00000000E+00
  2.00000000E+00  2.00000000E+00  2.00000000E+00  2.00000000E+00  2.00000000E+00
  2.00000000E+00  2.00000000E+00  2.00000000E+00  2.00000000E+00  2.00000000E+00
  2.00000000E+00  3.00000000E+00  1.00000000E+00  2.00000000E+00  3.00000000E+00
  4.00000000E+00  2.00000000E+00  1.00000000E+00  2.00000000E+00  3.00000000E+00
  1.00000000E+00  2.00000000E+00  3.00000000E+00  2.00000000E+00  2.00000000E+00
  1.00000000E+00  2.00000000E+00  3.00000000E+00  4.00000000E+00  2.00000000E+00
  2.00000000E+00  2.00000000E+00  2.00000000E+00  3.00000000E+00  1.00000000E+00
  2.00000000E+00  3.00000000E+00  4.00000000E+00  2.00000000E+00  1.00000000E+00
  2.00000000E+00  3.00000000E+00  4.00000000E+00  2.00000000E+00  2.00000000E+00
  2.00000000E+00  1.00000000E+00  2.00000000E+00  2.00000000E+00  2.00000000E+00
  2.00000000E+00
%FLAG DIHEDRAL_PHASE                                                            
%FORMAT(5E16.8)                                                                 
  5.54929070E-01  6.14285649E+00  6.23514744E+00  0.00000000E+00  0.00000000E+00
  0.00000000E+00  0.00000000E+00  0.00000000E+00  0.00000000E+00  0.00000000E+00
  0.00000000E+00  0.00000000E+00  0.00000000E+00  0.00000000E+00  3.14159400E+00
  3.14159400E+00  3.14159400E+00  3.14159400E+00  3.14159400E+00  3.14159400E+00
  3.14159400E+00  3.14159400E+00  3.14159400E+00  3.14159400E+00  3.14159400E+00
  3.14159400E+00  0.00000000E+00  1.30473540E+00  1.08709624E-01  2.94350428E+00
  6.93698862E-02  0.00000000E+00  3.14159400E+00  3.14159400E+00  0.00000000E+00
  3.33317067E+00  5.15976777E+00  6.07541257E+00  3.14159400E+00  3.14159400E+00
  1.20061600E+00  2.72899799E-01  2.99461452E+00  3.33220149E-01  3.14159400E+00
  3.14159400E+00  3.14159400E+00  3.14159400E+00  0.00000000E+00  2.61552187E+00
  2.92601084E-01  3.13020398E+00  2.79280725E-01  3.14159400E+00  2.56544660E+00
  2.87571043E-01  3.24417403E+00  5.61280675E-01  3.14159400E+00  3.14159400E+00
  3.14159400E+00  0.00000000E+00  3.14159400E+00  3.14159400E+00  3.14159400E+00
  3.14159400E+00
%FLAG SCEE_SCALE_FACTOR                                                         
%FORMAT(5E16.8)                                                                 
  1.20000000E+00  1.20000000E+00  1.20000000E+00  1.20000000E+00  1.20000000E+00
  1.20000000E+00  1.20000000E+00  1.20000000E+00  1.20000000E+00  1.20000000E+00
  1.20000000E+00  1.20000000E+00  1.20000000E+00  1.20000000E+00  1.20000000E+00
  1.20000000E+00  1.20000000E+00  1.20000000E+00  1.20000000E+00  1.20000000E+00
  1.20000000E+00  1.20000000E+00  1.20000000E+00  1.20000000E+00  1.20000000E+00
  1.20000000E+00  1.20000000E+00  1.20000000E+00  1.20000000E+00  1.20000000E+00
  1.20000000E+00  1.20000000E+00  1.20000000E+00  1.20000000E+00  1.20000000E+00
  1.20000000E+00  1.20000000E+00  1.20000000E+00  1.20000000E+00  1.20000000E+00
  1.20000000E+00  1.20000000E+00  1.20000000E+00  1.20000000E+00  1.20000000E+00
  1.20000000E+00  1.20000000E+00  1.20000000E+00  1.20000000E+00  1.20000000E+00
  1.20000000E+00  1.20000000E+00  1.20000000E+00  1.20000000E+00  1.20000000E+00
  1.20000000E+00  1.20000000E+00  1.20000000E+00  1.20000000E+00  1.20000000E+00
  1.20000000E+00  1.20000000E+00  0.00000000E+00  0.00000000E+00  0.00000000E+00
  0.00000000E+00
%FLAG SCNB_SCALE_FACTOR                                                         
%FORMAT(5E16.8)                                                                 
  2.00000000E+00  2.00000000E+00  2.00000000E+00  2.00000000E+00  2.00000000E+00
  2.00000000E+00  2.00000000E+00  2.00000000E+00  2.00000000E+00  2.00000000E+00
  2.00000000E+00  2.00000000E+00  2.00000000E+00  2.00000000E+00  2.00000000E+00
  2.00000000E+00  2.00000000E+00  2.00000000E+00  2.00000000E+00  2.00000000E+00
  2.00000000E+00  2.00000000E+00  2.00000000E+00  2.00000000E+00  2.00000000E+00
  2.00000000E+00  2.00000000E+00  2.00000000E+00  2.00000000E+00  2.00000000E+00
  2.00000000E+00  2.00000000E+00  2.00000000E+00  2.00000000E+00  2.00000000E+00
  2.00000000E+00  2.00000000E+00  2.00000000E+00  2.00000000E+00  2.00000000E+00
  2.00000000E+00  2.00000000E+00  2.00000000E+00  2.00000000E+00  2.00000000E+00
  2.00000000E+00  2.00000000E+00  2.00000000E+00  2.00000000E+00  2.00000000E+00
  2.00000000E+00  2.00000000E+00  2.00000000E+00  2.00000000E+00  2.00000000E+00
  2.00000000E+00  2.00000000E+00  2.00000000E+00  2.00000000E+00  2.00000000E+00
  2.00000000E+00  2.00000000E+00  0.00000000E+00  0.00000000E+00  0.00000000E+00
  0.00000000E+00
%FLAG SOLTY                                                                     
%FORMAT(5E16.8)                                                                 
  0.00000000E+00  0.00000000E+00  0.00000000E+00  0.00000000E+00  0.00000000E+00
  0.00000000E+00  0.00000000E+00  0.00000000E+00  0.00000000E+00  0.00000000E+00
  0.00000000E+00  0.00000000E+00  0.00000000E+00  0.00000000E+00  0.00000000E+00
  0.00000000E+00  0.00000000E+00  0.00000000E+00  0.00000000E+00  0.00000000E+00
  0.00000000E+00  0.00000000E+00  0.00000000E+00  0.00000000E+00  0.00000000E+00
  0.00000000E+00  0.00000000E+00  0.00000000E+00  0.00000000E+00  0.00000000E+00
  0.00000000E+00  0.00000000E+00  0.00000000E+00  0.00000000E+00  0.00000000E+00
  0.00000000E+00  0.00000000E+00  0.00000000E+00  0.00000000E+00  0.00000000E+00
  0.00000000E+00  0.00000000E+00  0.00000000E+00  0.00000000E+00
%FLAG LENNARD_JONES_ACOEF                                                       
%FORMAT(5E16.8)                                                                 
  0.00000000E+00  0.00000000E+00  5.81803229E+05  0.00000000E+00  7.91544157E+05
  1.04308023E+06  0.00000000E+00  4.66922514E+04  6.78771368E+04  3.25969625E+03
  0.00000000E+00  4.58874091E+05  6.28541240E+05  3.63097246E+04  3.61397723E+05
  0.00000000E+00  3.15360051E+04  4.68930885E+04  2.09814978E+03  2.44050579E+04
  1.32801250E+03  0.00000000E+00  7.44975864E+05  9.95480466E+05  6.20665997E+04
  5.89818288E+05  4.24594555E+04  9.44293233E+05  0.00000000E+00  7.01803794E+05
  9.24822270E+05  6.01816484E+04  5.57281136E+05  4.15766412E+04  8.82619071E+05
  8.19971662E+05  0.00000000E+00  4.09427581E+04  5.98885646E+04  2.82099197E+03
  3.17965283E+04  1.80748014E+03  5.46147253E+04  5.30987710E+04  2.43828624E+03
  0.00000000E+00  4.71003287E+05  6.47841731E+05  3.69471530E+04  3.70622491E+05
  2.47595516E+04  6.06829342E+05  5.74393458E+05  3.23283631E+04  3.79876399E+05
  0.00000000E+00  1.40467023E+03  2.56678134E+03  5.94667300E+01  1.03954408E+03
  3.20009193E+01  2.12601181E+03  2.27577561E+03  4.90239937E+01  1.02595236E+03
  1.39982777E-01  0.00000000E+00  1.98683736E+06  2.54188684E+06  1.81087383E+05
  1.58759528E+06  1.27716552E+05  2.45746558E+06  2.25370349E+06  1.60682053E+05
  1.64263766E+06  8.41065839E+03  6.02589390E+06  0.00000000E+00  4.96707306E+04
  7.18621074E+04  3.50301067E+03  3.86654993E+04  2.26273716E+03  6.58473870E+04
  6.37148278E+04  3.03448006E+03  3.93690817E+04  6.63368273E+01  1.90880272E+05
  3.76169105E+03  0.00000000E+00  6.00750218E+04  8.59947003E+04  4.33325458E+03
  4.68711055E+04  2.82099197E+03  7.91627154E+04  7.62451550E+04  3.76169105E+03
  4.77908183E+04  8.90987508E+01  2.26202022E+05  4.64559155E+03  5.71629601E+03
  0.00000000E+00  8.07800079E+04  1.21875374E+05  5.21005294E+03  6.23192794E+04
  3.26196339E+03  1.09658405E+05  1.08057900E+05  4.47498508E+03  6.31032125E+04
  7.06607915E+01  3.36357666E+05  5.63160852E+03  7.05661630E+03  7.95580953E+03
  0.00000000E+00  3.24638037E+06  3.82345548E+06  3.50054334E+05  2.63960199E+06
  2.61171322E+05  3.83298374E+06  3.38997584E+06  3.15445504E+05  2.76037949E+06
  2.80154991E+04  8.38547054E+06  3.64590694E+05  4.20665739E+05  7.12925476E+05
  9.33304478E+06  0.00000000E+00  4.68011805E+05  6.37913494E+05  3.74148715E+04
  3.68980019E+05  2.52365512E+04  5.99897901E+05  5.65590822E+05  3.27958584E+04
  3.78641356E+05  1.11043914E+03  1.60396276E+06  3.98127143E+04  4.81820985E+04
  6.45887018E+04  2.63333256E+06  3.76435470E+05  0.00000000E+00  6.42430744E+05
  8.53193737E+05  5.42099106E+04  5.09294082E+05  3.72462658E+04  8.11497350E+05
  7.56463928E+05  4.77581094E+04  5.24402060E+05  1.94008400E+03  2.09423430E+06
  5.74592031E+04  6.89371259E+04  9.64632940E+04  3.21466829E+06  5.17507491E+05
  6.96551276E+05  0.00000000E+00  6.42970500E+05  8.57549298E+05  5.37791327E+04
  5.09262400E+05  3.68393965E+04  8.14127222E+05  7.60325682E+05  4.73396390E+04
  5.24079334E+05  1.86723722E+03  2.11324943E+06  5.70388968E+04  6.85297634E+04
  9.52256395E+04  3.27992774E+06  5.17814271E+05  6.99381362E+05  7.01825028E+05
  0.00000000E+00  7.82881336E+05  1.03184851E+06  6.71095195E+04  6.21638866E+05
  4.63569633E+04  9.84684600E+05  9.14863930E+05  5.92092559E+04  6.40712560E+05
  2.53456440E+03  2.51493303E+06  7.10513128E+04  8.50294791E+04  1.20472290E+05
  3.78467447E+06  6.30925504E+05  8.43969952E+05  8.48258258E+05  1.02073671E+06
  0.00000000E+00  3.43429340E+05  4.68765736E+05  2.73743983E+04  2.70678008E+05
  1.84455431E+04  4.40558796E+05  4.15619987E+05  2.39882920E+04  2.77714192E+05
  8.04104415E+02  1.18019977E+06  2.91349907E+04  3.52764488E+04  4.71775719E+04
  1.94466474E+06  2.76207447E+05  3.80155513E+05  3.80309307E+05  4.63627012E+05
  2.02652992E+05  0.00000000E+00  7.13267446E+05  9.41257953E+05  6.09861363E+04
  5.66214479E+05  4.20905500E+04  8.97750460E+05  8.34543970E+05  5.37939286E+04
  5.83493927E+05  2.28331226E+03  2.29677053E+06  6.45801516E+04  7.73168790E+04
  1.09323807E+05  3.46752909E+06  5.74782316E+05  7.69642101E+05  7.73425391E+05
  9.31115275E+05  4.22347898E+05  8.49322032E+05  0.00000000E+00  7.50514003E+05
  1.00713741E+06  6.19803600E+04  5.93669029E+05  4.22733337E+04  9.53586341E+05
  8.92954421E+05  5.44940453E+04  6.10454299E+05  2.05956322E+03  2.49602545E+06
  6.57976999E+04  7.92148074E+04  1.08967343E+05  3.93612430E+06  6.04208667E+05
  8.20152428E+05  8.22346035E+05  9.96191545E+05  4.43641379E+05  9.08092643E+05
  9.62429652E+05  0.00000000E+00  1.24900897E+03  2.26409483E+03  5.38411501E+01
  9.25970781E+02  2.91668999E+01  1.88178855E+03  2.00740581E+03  4.44659845E+01
  9.14858779E+02  1.37574453E-01  7.36643734E+03  5.99788431E+01  8.03166617E+01
  6.46877639E+01  2.40945743E+04  9.87857350E+02  1.71458823E+03  1.65195713E+03
  2.23577481E+03  7.15600927E+02  2.01475241E+03  1.82491629E+03  1.34728399E-01
  0.00000000E+00  4.48767761E+04  6.54320462E+04  3.11326280E+03  3.48757543E+04
  1.99950237E+03  5.97535946E+04  5.80137671E+04  2.69265440E+03  3.54741307E+04
  5.54891833E+01  1.75039303E+05  3.34719214E+03  4.14474284E+03  4.95804190E+03
  3.40883084E+05  3.59538577E+04  5.22195041E+04  5.17840911E+04  6.46910138E+04
  2.63019673E+04  5.87815925E+04  5.96470418E+04  5.02830284E+01  2.97255425E+03
  0.00000000E+00  6.18768395E+05  8.33694635E+05  5.06742043E+04  4.89037676E+05
  3.44633020E+04  7.87979792E+05  7.39175513E+05  4.45186479E+04  5.02600786E+05
  1.63574730E+03  2.07390062E+06  5.38277794E+04  6.48912872E+04  8.86723790E+04
  3.30472238E+06  4.98028858E+05  6.78244843E+05  6.79694051E+05  8.24615247E+05
  3.65613429E+05  7.51572712E+05  7.94862276E+05  1.45086460E+03  4.87482031E+04
  6.56136207E+05  0.00000000E+00  0.00000000E+00  0.00000000E+00  0.00000000E+00
  0.00000000E+00  0.00000000E+00  0.00000000E+00  0.00000000E+00  0.00000000E+00
  0.00000000E+00  0.00000000E+00  0.00000000E+00  0.00000000E+00  0.00000000E+00
  0.00000000E+00  0.00000000E+00  0.00000000E+00  0.00000000E+00  0.00000000E+00
  0.00000000E+00  0.00000000E+00  0.00000000E+00  0.00000000E+00  0.00000000E+00
  0.00000000E+00  0.00000000E+00  0.00000000E+00
%FLAG LENNARD_JONES_BCOEF                                                       
%FORMAT(5E16.8)                                                                 
  0.00000000E+00  0.00000000E+00  6.99746810E+02  0.00000000E+00  6.93079947E+02
  6.75612247E+02  0.00000000E+00  1.03606917E+02  1.06076943E+02  1.43076527E+01
  0.00000000E+00  5.89183300E+02  5.85549272E+02  8.66220817E+01  4.95732238E+02
  0.00000000E+00  8.51470647E+01  8.81685417E+01  1.14788417E+01  7.10161395E+01
  9.13231543E+00  0.00000000E+00  7.50714425E+02  7.36907417E+02  1.13252061E+02
  6.33305958E+02  9.36708259E+01  8.01323529E+02  0.00000000E+00  6.14502845E+02
  5.99015525E+02  9.40505980E+01  5.19163331E+02  7.81725398E+01  6.53361429E+02
  5.31102864E+02  0.00000000E+00  9.59185913E+01  9.85097219E+01  1.31591746E+01
  8.01410250E+01  1.05333009E+01  1.05031585E+02  8.73413012E+01  1.20953369E+01
  0.00000000E+00  6.29300710E+02  6.26720080E+02  9.21192136E+01  5.29252520E+02
  7.54103785E+01  6.77220874E+02  5.55666448E+02  8.51921330E+01  5.64885984E+02
  0.00000000E+00  1.79702257E+01  2.06278363E+01  1.93248820E+00  1.46567808E+01
  1.41762397E+00  2.09604198E+01  1.82891803E+01  1.73473071E+00  1.53505284E+01
  9.37598976E-02  0.00000000E+00  1.27682121E+03  1.22636552E+03  2.01468199E+02
  1.08210555E+03  1.69194406E+02  1.34630496E+03  1.08732781E+03  1.87626421E+02
  1.16041466E+03  4.34187588E+01  2.19561270E+03  0.00000000E+00  1.05648788E+02
  1.07908863E+02  1.46638650E+01  8.83744760E+01  1.17854122E+01  1.15327881E+02
  9.56748258E+01  1.34932874E+01  9.40124296E+01  2.01792524E+00  2.04498832E+02
  1.50233639E+01  0.00000000E+00  1.16187983E+02  1.18043746E+02  1.63092814E+01
  9.73010751E+01  1.31591746E+01  1.26451907E+02  1.04660679E+02  1.50233639E+01
  1.03580945E+02  2.33864085E+00  2.22617115E+02  1.66953734E+01  1.85196588E+01
  0.00000000E+00  2.46634071E+02  2.57247998E+02  3.27367584E+01  2.05382357E+02
  2.59032434E+01  2.72441264E+02  2.28082817E+02  2.99956518E+01  2.17881447E+02
  3.81244735E+00  4.96933021E+02  3.36495093E+01  3.76669763E+01  7.32135689E+01
  0.00000000E+00  8.02009911E+02  7.39096166E+02  1.37645254E+02  6.85646169E+02
  1.18892992E+02  8.26226877E+02  6.55302031E+02  1.29182470E+02  7.39192956E+02
  3.89397084E+01  1.27274036E+03  1.38881438E+02  1.49179788E+02  3.55508807E+02
  6.59809978E+02  0.00000000E+00  5.73100668E+02  5.68167388E+02  8.46911674E+01
  4.82452690E+02  6.95554224E+01  6.15165511E+02  5.03752097E+02  7.83922976E+01
  5.15240418E+02  1.45902714E+01  1.04760055E+03  8.63723599E+01  9.50181887E+01
  2.01385896E+02  6.59602869E+02  4.69350655E+02  0.00000000E+00  6.08686716E+02
  5.95658566E+02  9.24130897E+01  5.13825646E+02  7.66011896E+01  6.48597119E+02
  5.28126496E+02  8.57562161E+01  5.49675335E+02  1.74825352E+01  1.08514898E+03
  9.40636541E+01  1.03031170E+02  2.23105344E+02  6.60656814E+02  4.98871431E+02
  5.24668528E+02  0.00000000E+00  6.35775777E+02  6.23492018E+02  9.61012043E+01
  5.36450996E+02  7.95386447E+01  6.78274341E+02  5.52804364E+02  8.91419860E+01
  5.73720490E+02  1.79069525E+01  1.13809863E+03  9.78487751E+01  1.07253000E+02
  2.31437466E+02  6.96735215E+02  5.21008860E+02  5.48900066E+02  5.74088001E+02
  0.00000000E+00  6.86742760E+02  6.69494459E+02  1.05087646E+02  5.80184332E+02
  8.73407845E+01  7.30206155E+02  5.93591333E+02  9.75893223E+01  6.20970728E+02
  2.04226110E+01  1.21536128E+03  1.06903901E+02  1.16947855E+02  2.54822614E+02
  7.32634819E+02  5.62969425E+02  5.90251928E+02  6.17825399E+02  6.63431737E+02
  0.00000000E+00  4.26325155E+02  4.22953952E+02  6.29083119E+01  3.58838922E+02
  5.16394329E+01  4.57799165E+02  3.75002059E+02  5.82214886E+01  3.83190460E+02
  1.07818172E+01  7.80361958E+02  6.41639489E+01  7.06034742E+01  1.49464590E+02
  4.92234219E+02  3.49131956E+02  3.71304925E+02  3.87745109E+02  4.19082844E+02
  2.59697739E+02  0.00000000E+00  6.33599808E+02  6.18067719E+02  9.68317709E+01
  5.35217268E+02  8.04441774E+01  6.73934129E+02  5.47995038E+02  8.99118321E+01
  5.72796552E+02  1.87363491E+01  1.12264825E+03  9.85144068E+01  1.07792209E+02
  2.34635906E+02  6.77838234E+02  5.19385932E+02  5.44830041E+02  5.70234696E+02
  6.12468585E+02  3.86628088E+02  5.65406768E+02  0.00000000E+00  7.88832443E+02
  7.75965878E+02  1.18480231E+02  6.65163419E+02  9.78480313E+01  8.43016687E+02
  6.87991684E+02  1.09835130E+02  7.11091246E+02  2.15976454E+01  1.42044994E+03
  1.20690226E+02  1.32424984E+02  2.84316332E+02  8.76530306E+02  6.46321327E+02
  6.82622272E+02  7.13654906E+02  7.68900328E+02  4.80939874E+02  7.09588248E+02
  8.86629877E+02  0.00000000E+00  1.51381989E+01  1.73073921E+01  1.64271443E+00
  1.23577916E+01  1.20906610E+00  1.76168249E+01  1.53451874E+01  1.47593342E+00
  1.29497639E+01  8.30374121E-02  3.63008040E+01  1.71416196E+00  1.98360701E+00
  3.25874788E+00  3.22610300E+01  1.22938581E+01  1.46824710E+01  1.50468782E+01
  1.71355763E+01  9.08649254E+00  1.57231024E+01  1.81620725E+01  7.34107347E-02
  0.00000000E+00  1.02213609E+02  1.04805976E+02  1.40708155E+01  8.54300184E+01
  1.12764485E+01  1.11822890E+02  9.29237250E+01  1.29374769E+01  9.08337343E+01
  1.87851879E+00  1.99324990E+02  1.44244612E+01  1.60512210E+01  3.21366985E+01
  1.36687183E+02  8.35449674E+01  9.12729468E+01  9.48968218E+01  1.03827676E+02
  6.20528043E+01  9.56653235E+01  1.16962018E+02  1.59752321E+00  1.38359132E+01
  0.00000000E+00  6.76761650E+02  6.67064884E+02  1.01222865E+02  5.70418543E+02
  8.34763787E+01  7.24069102E+02  5.91437209E+02  9.38002600E+01  6.09644486E+02
  1.81862545E+01  1.22338095E+03  1.03142177E+02  1.13246882E+02  2.42333872E+02
  7.58868174E+02  5.54432373E+02  5.86533377E+02  6.13033212E+02  6.60983496E+02
  4.12526779E+02  6.09948479E+02  7.61325055E+02  1.53011364E+01  9.99070234E+01
  6.53563058E+02  0.00000000E+00  0.00000000E+00  0.00000000E+00  0.00000000E+00
  0.00000000E+00  0.00000000E+00  0.00000000E+00  0.00000000E+00  0.00000000E+00
  0.00000000E+00  0.00000000E+00  0.00000000E+00  0.00000000E+00  0.00000000E+00
  0.00000000E+00  0.00000000E+00  0.00000000E+00  0.00000000E+00  0.00000000E+00
  0.00000000E+00  0.00000000E+00  0.00000000E+00  0.00000000E+00  0.00000000E+00
  0.00000000E+00  0.00000000E+00  0.00000000E+00
%FLAG BONDS_INC_HYDROGEN                                                        
%FORMAT(10I8)                                                                   
      87      90       2      81      84       3      75      78       3      60
      63       8      60      66       8      51      54      11      33      36
      18      24      27      22      15      18       3       6       9      24
       6      12      24       0       3       2     189     192       2     183
     186       3     177     180       3     162     165       8     162     168
       8     153     156      11     135     138      18     126     129      22
     117     120       3     108     111      24     108     114      24     288
     291       2     282     285       3     276     279       3     264     267
      29     252     255       8     252     258       8     237     240      32
     228     231      22     219     222       3     210     213      24     210
     216      24     378     381       2     372     375       3     366     369
       3     354     357      11     342     345      35     336     339      37
     327     330      22     318     321       3     309     312      24     309
     315      24     471     474       2     465     468       3     459     462
       3     441     444       8     441     447       8     432     435      42
     426     429      44     417     420      22     408     411       3     399
     402      24     399     405      24     570     573       2     564     567
       3     558     561       3     546     549      29     534     537       8
     534     540       8     519     522      32     510     513      22     501
     504       3     492     495      24     492     498      24     660     663
       2     654     657       3     648     651       3     636     639      11
     624     627      35     618     621      37     609     612      22     600
     603       3     591     594      24     591     597      24     759     762
       2     753     756       3     747     750       3     735     738      29
     723     726       8     723     729       8     708     711      32     699
     702      22     690     693       3     681     684      24     681     687
      24     849     852       2     843     846       3     837     840       3
     825     828      11     813     816      35     807     810      37     798
     801      22     789     792       3     780     783      24     780     786
      24     948     951       2     942     945       3     936     939       3
     924     927      29     912     915       8     912     918       8     897
     900      32     888     891      22     879     882       3     870     873
      24     870     876      24    1047    1050       2    1041    1044       3
    1035    1038       3    1023    1026      29    1011    1014       8    1011
    1017       8     996     999      32     987     990      22     978     981
       3     969     972      24     969     975      24    1137    1140       2
    1131    1134       3    1125    1128       3    1113    1116      11    1101
    1104      35    1095    1098      37    1086    1089      22    1077    1080
       3    1068    1071      24    1068    1074      24    1230    1233       2
    1224    1227       3    1218    1221       3    1200    1203       8    1200
    1206       8    1191    1194      42    1185    1188      44    1176    1179
      22    1167    1170       3    1158    1161      24    1158    1164      24
    1332    1335       2    1326    1329       3    1320    1323       3    1305
    1308       8    1305    1311       8    1296    1299      11    1278    1281
      18    1269    1272      22    1260    1263       3    1251    1254      24
    1251    1257      24    1425    1428       2    1419    1422       3    1413
    1416       3    1395    1398       8    1395    1401       8    1386    1389
      42    1380    1383      44    1371    1374      22    1362    1365       3
    1353    1356      24    1353    1359      24    1527    1530       2    1521
    1524       3    1515    1518       3    1500    1503       8    1500    1506
       8    1491    1494      11    1473    1476      18    1464    1467      22
    1455    1458       3    1446    1449      24    1446    1452      24    1617
    1620       2    1611    1614       3    1605    1608       3    1593    1596
      11    1581    1584      35    1575    1578      37    1566    1569      22
    1557    1560       3    1548    1551      24    1548    1554      24    1719
    1722       2    1713    1716       3    1707    1710       3    1692    1695
       8    1692    1698       8    1683    1686      11    1665    1668      18
    1656    1659      22    1647    1650       3    1638    1641      24    1638
    1644      24    1821    1824       2    1815    1818       3    1809    1812
       3    1794    1797       8    1794    1800       8    1785    1788      11
    1767    1770      18    1758    1761      22    1749    1752       3    1740
    1743      24    1740    1746      24    1920    1923       2    1914    1917
       3    1908    1911       3    1896    1899      29    1884    1887       8
    1884    1890       8    1869    1872      32    1860    1863      22    1851
    1854       3    1842    1845      24    1842    1848      24    2010    2013
       2    2004    2007       3    1998    2001       3    1986    1989      11
    1974    1977      35    1968    1971      37    1959    1962      22    1950
    1953       3    1941    1944      24    1941    1947      24    2109    2112
       2    2103    2106       3    2097    2100       3    2085    2088      29
    2073    2076       8    2073    2079       8    2058    2061      32    2049
    2052      22    2040    2043       3    2031    2034      24    2031    2037
      24    2199    2202       2    2193    2196       3    2187    2190       3
    2175    2178      11    2163    2166      35    2157    2160      37    2148
    2151      22    2139    2142       3    2130    2133      24    2130    2136
      24    2301    2304       2    2295    2298       3    2289    2292       3
    2274    2277       8    2274    2280       8    2265    2268      11    2247
    2250      18    2238    2241      22    2229    2232       3    2220    2223
      24    2220    2226      24    2403    2406       2    2397    2400       3
    2391    2394       3    2376    2379       8    2376    2382       8    2367
    2370      11    2349    2352      18    2340    2343      22    2331    2334
       3    2322    2325      24    2322    2328      24    2496    2499       2
    2490    2493       3    2484    2487       3    2466    2469       8    2466
    2472       8    2457    2460      42    2451    2454      44    2442    2445
      22    2433    2436       3    2424    2427      24    2424    2430      24
    2595    2598       2    2589    2592       3    2583    2586       3    2571
    2574      29    2559    2562       8    2559    2565       8    2544    2547
      32    2535    2538      22    2526    2529       3    2517    2520      24
    2517    2523      24    2688    2691       2    2682    2685       3    2676
    2679       3    2658    2661       8    2658    2664       8    2649    2652
      42    2643    2646      44    2634    2637      22    2625    2628       3
    2616    2619      24    2616    2622      24    2790    2793       2    2784
    2787       3    2778    2781       3    2763    2766       8    2763    2769
       8    2754    2757      11    2736    2739      18    2727    2730      22
    2718    2721       3    2709    2712      24    2709    2715      24    2883
    2886       2    2877    2880       3    2871    2874       3    2853    2856
       8    2853    2859       8    2844    2847      42    2838    2841      44
    2829    2832      22    2820    2823       3    2811    2814      24    2811
    2817      24    2982    2985       2    2976    2979       3    2970    2973
       3    2958    2961      29    2946    2949       8    2946    2952       8
    2931    2934      32    2922    2925      22    2913    2916       3    2904
    2907      24    2904    2910      24    3081    3084       2    3075    3078
       3    3069    3072       3    3057    3060      29    3045    3048       8
    3045    3051       8    3030    3033      32    3021    3024      22    3012
    3015       3    3003    3006      24    3003    3009      24    3183    3186
       2    3177    3180       3    3171    3174       3    3156    3159       8
    3156    3162       8    3147    3150      11    3129    3132      18    3120
    3123      22    3111    3114       3    3102    3105      24    3102    3108
      24    3273    3276       2    3267    3270       3    3261    3264       3
    3249    3252      11    3237    3240      35    3231    3234      37    3222
    3225      22    3213    3216       3    3204    3207      24    3204    3210
      24    3363    3366       2    3357    3360       3    3351    3354       3
    3339    3342      11    3327    3330      35    3321    3324      37    3312
    3315      22    3303    3306       3    3294    3297      24    3294    3300
      24    3453    3456       2    3447    3450       3    3441    3444       3
    3429    3432      11    3417    3420      35    3411    3414      37    3402
    3405      22    3393    3396       3    3384    3387      24    3384    3390
      24    3546    3549       2    3540    3543       3    3534    3537       3
    3516    3519       8    3516    3522       8    3507    3510      42    3501
    3504      44    3492    3495      22    3483    3486       3    3474    3477
      24    3474    3480      24    3636    3639       2    3630    3633       3
    3624    3627       3    3612    3615      11    3600    3603      35    3594
    3597      37    3585    3588      22    3576    3579       3    3567    3570
      24    3567    3573      24    3735    3738       2    3729    3732       3
    3723    3726       3    3711    3714      29    3699    3702       8    3699
    3705       8    3684    3687      32    3675    3678      22    3666    3669
       3    3657    3660      24    3657    3663      24    3828    3831       2
    3822    3825       3    3816    3819       3    3798    3801       8    3798
    3804       8    3789    3792      42    3783    3786      44    3774    3777
      22    3765    3768       3    3756    3759      24    3756    3762      24
    3921    3924       2    3915    3918       3    3909    3912       3    3891
    3894       8    3891    3897       8    3882    3885      42    3876    3879
      44    3867    3870      22    3858    3861       3    3849    3852      24
    3849    3855      24    4023    4026       2    4017    4020       3    4011
    4014       3    3996    3999       8    3996    4002       8    3987    3990
      11    3969    3972      18    3960    3963      22    3951    3954       3
    3942    3945      24    3942    3948      24    4125    4128       2    4119
    4122       3    4113    4116       3    4098    4101       8    4098    4104
       8    4089    4092      11    4071    4074      18    4062    4065      22
    4053    4056       3    4044    4047      24    4044    4050      24    4227
    4230       2    4221    4224       3    4215    4218       3    4200    4203
       8    4200    4206       8    4191    4194      11    4173    4176      18
    4164    4167      22    4155    4158       3    4146    4149      24    4146
    4152      24    4320    4323       2    4314    4317       3    4308    4311
       3    4290    4293       8    4290    4296       8    4281    4284      42
    4275    4278      44    4266    4269      22    4257    4260       3    4248
    4251      24    4248    4254      24    4419    4422       2    4413    4416
       3    4407    4410       3    4395    4398      29    4383    4386       8
    4383    4389       8    4368    4371      32    4359    4362      22    4350
    4353       3    4341    4344      24    4341    4347      24    4512    4515
       2    4506    4509       3    4500    4503       3    4482    4485       8
    4482    4488       8    4473    4476      42    4467    4470      44    4458
    4461      22    4449    4452       3    4440    4443      24    4440    4446
      24    4605    4608       2    4599    4602       3    4593    4596       3
    4575    4578       8    4575    4581       8    4566    4569      42    4560
    4563      44    4551    4554      22    4542    4545       3    4533    4536
      24    4533    4539      24    4707    4710       2    4701    4704       3
    4695    4698       3    4680    4683       8    4680    4686       8    4671
    4674      11    4653    4656      18    4644    4647      22    4635    4638
       3    4626    4629      24    4626    4632      24    4797    4800       2
    4791    4794       3    4785    4788       3    4773    4776      11    4761
    4764      35    4755    4758      37    4746    4749      22    4737    4740
       3    4728    4731      24    4728    4734      24    4896    4899       2
    4890    4893       3    4884    4887       3    4872    4875      29    4860
    4863       8    4860    4866       8    4845    4848      32    4836    4839
      22    4827    4830       3    4818    4821      24    4818    4824      24
    4995    4998       2    4989    4992       3    4983    4986       3    4971
    4974      29    4959    4962       8    4959    4965       8    4944    4947
      32    4935    4938      22    4926    4929       3    4917    4920      24
    4917    4923      24    5094    5097       2    5088    5091       3    5082
    5085       3    5070    5073      29    5058    5061       8    5058    5064
       8    5043    5046      32    5034    5037      22    5025    5028       3
    5016    5019      24    5016    5022      24    5184    5187       2    5178
    5181       3    5172    5175       3    5160    5163      11    5148    5151
      35    5142    5145      37    5133    5136      22    5124    5127       3
    5115    5118      24    5115    5121      24    5286    5289       2    5280
    5283       3    5274    5277       3    5259    5262       8    5259    5265
       8    5250    5253      11    5232    5235      18    5223    5226      22
    5214    5217       3    5205    5208      24    5205    5211      24    5376
    5379       2    5370    5373       3    5364    5367       3    5352    5355
      11    5340    5343      35    5334    5337      37    5325    5328      22
    5316    5319       3    5307    5310      24    5307    5313      24    5469
    5472       2    5463    5466       3    5457    5460       3    5439    5442
       8    5439    5445       8    5430    5433      42    5424    5427      44
    5415    5418      22    5406    5409       3    5397    5400      24    5397
    5403      24    5562    5565       2    5556    5559       3    5550    5553
       3    5532    5535       8    5532    5538       8    5523    5526      42
    5517    5520      44    5508    5511      22    5499    5502       3    5490
    5493      24    5490    5496      24    5664    5667       2    5658    5661
       3    5652    5655       3    5637    5640       8    5637    5643       8
    5628    5631      11    5610    5613      18    5601    5604      22    5592
    5595       3    5583    5586      24    5583    5589      24    5763    5766
       2    5757    5760       3    5751    5754       3    5739    5742      29
    5727    5730       8    5727    5733       8    5712    5715      32    5703
    5706      22    5694    5697       3    5685    5688      24    5685    5691
      24    5856    5859       2    5850    5853       3    5844    5847       3
    5826    5829       8    5826    5832       8    5817    5820      42    5811
    5814      44    5802    5805      22    5793    5796       3    5784    5787
      24    5784    5790      24    5946    5949       2    5940    5943       3
    5934    5937       3    5922    5925      11    5910    5913      35    5904
    5907      37    5895    5898      22    5886    5889       3    5877    5880
      24    5877    5883      24    6045    6048       2    6039    6042       3
    6033    6036       3    6021    6024      29    6009    6012       8    6009
    6015       8    5994    5997      32    5985    5988      22    5976    5979
       3    5967    5970      24    5967    5973      24    6135    6138       2
    6129    6132       3    6123    6126       3    6111    6114      11    6099
    6102      35    6093    6096      37    6084    6087      22    6075    6078
       3    6066    6069      24    6066    6072      24    6237    6240       2
    6231    6234       3    6225    6228       3    6210    6213       8    6210
    6216       8    6201    6204      11    6183    6186      18    6174    6177
      22    6165    6168       3    6156    6159      24    6156    6162      24
    6339    6342       2    6333    6336       3    6327    6330       3    6312
    6315       8    6312    6318       8    6303    6306      11    6285    6288
      18    6276    6279      22    6267    6270       3    6258    6261      24
    6258    6264      24    6429    6432       2    6423    6426       3    6417
    6420       3    6405    6408      11    6393    6396      35    6387    6390
      37    6378    6381      22    6369    6372       3    6360    6363      24
    6360    6366      24    6528    6531       2    6522    6525       2    6516
    6519       3    6510    6513       3    6492    6495       8    6492    6498
       8    6483    6486      42    6477    6480      44    6468    6471      22
    6459    6462       3    6450    6453      24    6450    6456      24    6981
    6984      47    6978    6981      49    6978    6984      49    6993    6996
      47    6990    6993      49    6990    6996      49    7005    7008      47
    7002    7005      49    7002    7008      49    7017    7020      47    7014
    7017      49    7014    7020      49    7029    7032      47    7026    7029
      49    7026    7032      49    7041    7044      47    7038    7041      49
    7038    7044      49    7053    7056      47    7050    7053      49    7050
    7056      49    7065    7068      47    7062    7065      49    7062    7068
      49    7077    7080      47    7074    7077      49    7074    7080      49
    7089    7092      47    7086    7089      49    7086    7092      49    7101
    7104      47    7098    7101      49    7098    7104      49    7113    7116
      47    7110    7113      49    7110    7116      49    7125    7128      47
    7122    7125      49    7122    7128      49    7137    7140      47    7134
    7137      49    7134    7140      49    7149    7152      47    7146    7149
      49    7146    7152      49    7161    7164      47    7158    7161      49
    7158    7164      49    7173    7176      47    7170    7173      49    7170
    7176      49    7185    7188      47    7182    7185      49    7182    7188
      49    7197    7200      47    7194    7197      49    7194    7200      49
    7209    7212      47    7206    7209      49    7206    7212      49    7221
    7224      47    7218    7221      49    7218    7224      49    7233    7236
      47    7230    7233      49    7230    7236      49    7245    7248      47
    7242    7245      49    7242    7248      49    7257    7260      47    7254
    7257      49    7254    7260      49    7269    7272      47    7266    7269
      49    7266    7272      49    7281    7284      47    7278    7281      49
    7278    7284      49    7293    7296      47    7290    7293      49    7290
    7296      49    7305    7308      47    7302    7305      49    7302    7308
      49    7317    7320      47    7314    7317      49    7314    7320      49
    7329    7332      47    7326    7329      49    7326    7332      49    7341
    7344      47    7338    7341      49    7338    7344      49    7353    7356
      47    7350    7353      49    7350    7356      49    7365    7368      47
    7362    7365      49    7362    7368      49    7377    7380      47    7374
    7377      49    7374    7380      49    7389    7392      47    7386    7389
      49    7386    7392      49    7401    7404      47    7398    7401      49
    7398    7404      49    7413    7416      47    7410    7413      49    7410
    7416      49    7425    7428      47    7422    7425      49    7422    7428
      49    7437    7440      47    7434    7437      49    7434    7440      49
    7449    7452      47    7446    7449      49    7446    7452      49    7461
    7464      47    7458    7461      49    7458    7464      49    7473    7476
      47    7470    7473      49    7470    7476      49    7485    7488      47
    7482    7485      49    7482    7488      49    7497    7500      47    7494
    7497      49    7494    7500      49    7509    7512      47    7506    7509
      49    7506    7512      49    7521    7524      47    7518    7521      49
    7518    7524      49    7533    7536      47    7530    7533      49    7530
    7536      49    7545    7548      47    7542    7545      49    7542    7548
      49    7557    7560      47    7554    7557      49    7554    7560      49
    7569    7572      47    7566    7569      49    7566    7572      49    7581
    7584      47    7578    7581      49    7578    7584      49    7593    7596
      47    7590    7593      49    7590    7596      49    7605    7608      47
    7602    7605      49    7602    7608      49    7617    7620      47    7614
    7617      49    7614    7620      49    7629    7632      47    7626    7629
      49    7626    7632      49    7641    7644      47    7638    7641      49
    7638    7644      49    7653    7656      47    7650    7653      49    7650
    7656      49    7665    7668      47    7662    7665      49    7662    7668
      49    7677    7680      47    7674    7677      49    7674    7680      49
    7689    7692      47    7686    7689      49    7686    7692      49    7701
    7704      47    7698    7701      49    7698    7704      49    7713    7716
      47    7710    7713      49    7710    7716      49    7725    7728      47
    7722    7725      49    7722    7728      49    7737    7740      47    7734
    7737      49    7734    7740      49    7749    7752      47    7746    7749
      49    7746    7752      49    7761    7764      47    7758    7761      49
    7758    7764      49    7773    7776      47    7770    7773      49    7770
    7776      49    7785    7788      47    7782    7785      49    7782    7788
      49    7797    7800      47    7794    7797      49    7794    7800      49
    7809    7812      47    7806    7809      49    7806    7812      49    7821
    7824      47    7818    7821      49    7818    7824      49    7833    7836
      47    7830    7833      49    7830    7836      49    7845    7848      47
    7842    7845      49    7842    7848      49    7857    7860      47    7854
    7857      49    7854    7860      49    7869    7872      47    7866    7869
      49    7866    7872      49    7881    7884      47    7878    7881      49
    7878    7884      49    7893    7896      47    7890    7893      49    7890
    7896      49    7905    7908      47    7902    7905      49    7902    7908
      49    7917    7920      47    7914    7917      49    7914    7920      49
    7929    7932      47    7926    7929      49    7926    7932      49    7941
    7944      47    7938    7941      49    7938    7944      49    7953    7956
      47    7950    7953      49    7950    7956      49    7965    7968      47
    7962    7965      49    7962    7968      49    7977    7980      47    7974
    7977      49    7974    7980      49    7989    7992      47    7986    7989
      49    7986    7992      49    8001    8004      47    7998    8001      49
    7998    8004      49    8013    8016      47    8010    8013      49    8010
    8016      49    8025    8028      47    8022    8025      49    8022    8028
      49    8037    8040      47    8034    8037      49    8034    8040      49
    8049    8052      47    8046    8049      49    8046    8052      49    8061
    8064      47    8058    8061      49    8058    8064      49    8073    8076
      47    8070    8073      49    8070    8076      49    8085    8088      47
    8082    8085      49    8082    8088      49    8097    8100      47    8094
    8097      49    8094    8100      49    8109    8112      47    8106    8109
      49    8106    8112      49    8121    8124      47    8118    8121      49
    8118    8124      49    8133    8136      47    8130    8133      49    8130
    8136      49    8145    8148      47    8142    8145      49    8142    8148
      49    8157    8160      47    8154    8157      49    8154    8160      49
    8169    8172      47    8166    8169      49    8166    8172      49    8181
    8184      47    8178    8181      49    8178    8184      49    8193    8196
      47    8190    8193      49    8190    8196      49    8205    8208      47
    8202    8205      49    8202    8208      49    8217    8220      47    8214
    8217      49    8214    8220      49    8229    8232      47    8226    8229
      49    8226    8232      49    8241    8244      47    8238    8241      49
    8238    8244      49    8253    8256      47    8250    8253      49    8250
    8256      49    8265    8268      47    8262    8265      49    8262    8268
      49    8277    8280      47    8274    8277      49    8274    8280      49
    8289    8292      47    8286    8289      49    8286    8292      49    8301
    8304      47    8298    8301      49    8298    8304      49    8313    8316
      47    8310    8313      49    8310    8316      49    8325    8328      47
    8322    8325      49    8322    8328      49    8337    8340      47    8334
    8337      49    8334    8340      49    8349    8352      47    8346    8349
      49    8346    8352      49    8361    8364      47    8358    8361      49
    8358    8364      49    8373    8376      47    8370    8373      49    8370
    8376      49    8385    8388      47    8382    8385      49    8382    8388
      49    8397    8400      47    8394    8397      49    8394    8400      49
    8409    8412      47    8406    8409      49    8406    8412      49    8421
    8424      47    8418    8421      49    8418    8424      49    8433    8436
      47    8430    8433      49    8430    8436      49    8445    8448      47
    8442    8445      49    8442    8448      49    8457    8460      47    8454
    8457      49    8454    8460      49    8469    8472      47    8466    8469
      49    8466    8472      49    8481    8484      47    8478    8481      49
    8478    8484      49    8493    8496      47    8490    8493      49    8490
    8496      49    8505    8508      47    8502    8505      49    8502    8508
      49    8517    8520      47    8514    8517      49    8514    8520      49
    8529    8532      47    8526    8529      49    8526    8532      49    8541
    8544      47    8538    8541      49    8538    8544      49    8553    8556
      47    8550    8553      49    8550    8556      49    8565    8568      47
    8562    8565      49    8562    8568      49    8577    8580      47    8574
    8577      49    8574    8580      49    8589    8592      47    8586    8589
      49    8586    8592      49    8601    8604      47    8598    8601      49
    8598    8604      49    8613    8616      47    8610    8613      49    8610
    8616      49    8625    8628      47    8622    8625      49    8622    8628
      49    8637    8640      47    8634    8637      49    8634    8640      49
    8649    8652      47    8646    8649      49    8646    8652      49    8661
    8664      47    8658    8661      49    8658    8664      49    8673    8676
      47    8670    8673      49    8670    8676      49    8685    8688      47
    8682    8685      49    8682    8688      49    8697    8700      47    8694
    8697      49    8694    8700      49    8709    8712      47    8706    8709
      49    8706    8712      49    8721    8724      47    8718    8721      49
    8718    8724      49    8733    8736      47    8730    8733      49    8730
    8736      49    8745    8748      47    8742    8745      49    8742    8748
      49    8757    8760      47    8754    8757      49    8754    8760      49
    8769    8772      47    8766    8769      49    8766    8772      49    8781
    8784      47    8778    8781      49    8778    8784      49    8793    8796
      47    8790    8793      49    8790    8796      49    8805    8808      47
    8802    8805      49    8802    8808      49    8817    8820      47    8814
    8817      49    8814    8820      49    8829    8832      47    8826    8829
      49    8826    8832      49    8841    8844      47    8838    8841      49
    8838    8844      49    8853    8856      47    8850    8853      49    8850
    8856      49    8865    8868      47    8862    8865      49    8862    8868
      49    8877    8880      47    8874    8877      49    8874    8880      49
    8889    8892      47    8886    8889      49    8886    8892      49    8901
    8904      47    8898    8901      49    8898    8904      49    8913    8916
      47    8910    8913      49    8910    8916      49    8925    8928      47
    8922    8925      49    8922    8928      49    8937    8940      47    8934
    8937      49    8934    8940      49    8949    8952      47    8946    8949
      49    8946    8952      49    8961    8964      47    8958    8961      49
    8958    8964      49    8973    8976      47    8970    8973      49    8970
    8976      49    8985    8988      47    8982    8985      49    8982    8988
      49    8997    9000      47    8994    8997      49    8994    9000      49
    9009    9012      47    9006    9009      49    9006    9012      49    9021
    9024      47    9018    9021      49    9018    9024      49    9033    9036
      47    9030    9033      49    9030    9036      49    9045    9048      47
    9042    9045      49    9042    9048      49    9057    9060      47    9054
    9057      49    9054    9060      49    9069    9072      47    9066    9069
      49    9066    9072      49    9081    9084      47    9078    9081      49
    9078    9084      49    9093    9096      47    9090    9093      49    9090
    9096      49    9105    9108      47    9102    9105      49    9102    9108
      49    9117    9120      47    9114    9117      49    9114    9120      49
    9129    9132      47    9126    9129      49    9126    9132      49    9141
    9144      47    9138    9141      49    9138    9144      49    9153    9156
      47    9150    9153      49    9150    9156      49    9165    9168      47
    9162    9165      49    9162    9168      49    9177    9180      47    9174
    9177      49    9174    9180      49    9189    9192      47    9186    9189
      49    9186    9192      49    9201    9204      47    9198    9201      49
    9198    9204      49    9213    9216      47    9210    9213      49    9210
    9216      49    9225    9228      47    9222    9225      49    9222    9228
      49    9237    9240      47    9234    9237      49    9234    9240      49
    9249    9252      47    9246    9249      49    9246    9252      49    9261
    9264      47    9258    9261      49    9258    9264      49    9273    9276
      47    9270    9273      49    9270    9276      49    9285    9288      47
    9282    9285      49    9282    9288      49    9297    9300      47    9294
    9297      49    9294    9300      49    9309    9312      47    9306    9309
      49    9306    9312      49    9321    9324      47    9318    9321      49
    9318    9324      49    9333    9336      47    9330    9333      49    9330
    9336      49    9345    9348      47    9342    9345      49    9342    9348
      49    9357    9360      47    9354    9357      49    9354    9360      49
    9369    9372      47    9366    9369      49    9366    9372      49    9381
    9384      47    9378    9381      49    9378    9384      49    9393    9396
      47    9390    9393      49    9390    9396      49    9405    9408      47
    9402    9405      49    9402    9408      49    9417    9420      47    9414
    9417      49    9414    9420      49    9429    9432      47    9426    9429
      49    9426    9432      49    9441    9444      47    9438    9441      49
    9438    9444      49    9453    9456      47    9450    9453      49    9450
    9456      49    9465    9468      47    9462    9465      49    9462    9468
      49    9477    9480      47    9474    9477      49    9474    9480      49
    9489    9492      47    9486    9489      49    9486    9492      49    9501
    9504      47    9498    9501      49    9498    9504      49    9513    9516
      47    9510    9513      49    9510    9516      49    9525    9528      47
    9522    9525      49    9522    9528      49    9537    9540      47    9534
    9537      49    9534    9540      49    9549    9552      47    9546    9549
      49    9546    9552      49    9561    9564      47    9558    9561      49
    9558    9564      49    9573    9576      47    9570    9573      49    9570
    9576      49    9585    9588      47    9582    9585      49    9582    9588
      49    9597    9600      47    9594    9597      49    9594    9600      49
    9609    9612      47    9606    9609      49    9606    9612      49    9621
    9624      47    9618    9621      49    9618    9624      49    9633    9636
      47    9630    9633      49    9630    9636      49    9645    9648      47
    9642    9645      49    9642    9648      49    9657    9660      47    9654
    9657      49    9654    9660      49    9669    9672      47    9666    9669
      49    9666    9672      49    9681    9684      47    9678    9681      49
    9678    9684      49    9693    9696      47    9690    9693      49    9690
    9696      49    9705    9708      47    9702    9705      49    9702    9708
      49    9717    9720      47    9714    9717      49    9714    9720      49
    9729    9732      47    9726    9729      49    9726    9732      49    9741
    9744      47    9738    9741      49    9738    9744      49    9753    9756
      47    9750    9753      49    9750    9756      49    9765    9768      47
    9762    9765      49    9762    9768      49    9777    9780      47    9774
    9777      49    9774    9780      49    9789    9792      47    9786    9789
      49    9786    9792      49    9801    9804      47    9798    9801      49
    9798    9804      49    9813    9816      47    9810    9813      49    9810
    9816      49    9825    9828      47    9822    9825      49    9822    9828
      49    9837    9840      47    9834    9837      49    9834    9840      49
    9849    9852      47    9846    9849      49    9846    9852      49    9861
    9864      47    9858    9861      49    9858    9864      49    9873    9876
      47    9870    9873      49    9870    9876      49    9885    9888      47
    9882    9885      49    9882    9888      49    9897    9900      47    9894
    9897      49    9894    9900      49    9909    9912      47    9906    9909
      49    9906    9912      49    9921    9924      47    9918    9921      49
    9918    9924      49    9933    9936      47    9930    9933      49    9930
    9936      49    9945    9948      47    9942    9945      49    9942    9948
      49    9957    9960      47    9954    9957      49    9954    9960      49
    9969    9972      47    9966    9969      49    9966    9972      49    9981
    9984      47    9978    9981      49    9978    9984      49    9993    9996
      47    9990    9993      49    9990    9996      49   10005   10008      47
   10002   10005      49   10002   10008      49   10017   10020      47   10014
   10017      49   10014   10020      49   10029   10032      47   10026   10029
      49   10026   10032      49   10041   10044      47   10038   10041      49
   10038   10044      49   10053   10056      47   10050   10053      49   10050
   10056      49   10065   10068      47   10062   10065      49   10062   10068
      49   10077   10080      47   10074   10077      49   10074   10080      49
   10089   10092      47   10086   10089      49   10086   10092      49   10101
   10104      47   10098   10101      49   10098   10104      49   10113   10116
      47   10110   10113      49   10110   10116      49   10125   10128      47
   10122   10125      49   10122   10128      49   10137   10140      47   10134
   10137      49   10134   10140      49   10149   10152      47   10146   10149
      49   10146   10152      49   10161   10164      47   10158   10161      49
   10158   10164      49   10173   10176      47   10170   10173      49   10170
   10176      49   10185   10188      47   10182   10185      49   10182   10188
      49   10197   10200      47   10194   10197      49   10194   10200      49
   10209   10212      47   10206   10209      49   10206   10212      49   10221
   10224      47   10218   10221      49   10218   10224      49   10233   10236
      47   10230   10233      49   10230   10236      49   10245   10248      47
   10242   10245      49   10242   10248      49   10257   10260      47   10254
   10257      49   10254   10260      49   10269   10272      47   10266   10269
      49   10266   10272      49   10281   10284      47   10278   10281      49
   10278   10284      49   10293   10296      47   10290   10293      49   10290
   10296      49   10305   10308      47   10302   10305      49   10302   10308
      49   10317   10320      47   10314   10317      49   10314   10320      49
   10329   10332      47   10326   10329      49   10326   10332      49   10341
   10344      47   10338   10341      49   10338   10344      49   10353   10356
      47   10350   10353      49   10350   10356      49   10365   10368      47
   10362   10365      49   10362   10368      49   10377   10380      47   10374
   10377      49   10374   10380      49   10389   10392      47   10386   10389
      49   10386   10392      49   10401   10404      47   10398   10401      49
   10398   10404      49   10413   10416      47   10410   10413      49   10410
   10416      49   10425   10428      47   10422   10425      49   10422   10428
      49   10437   10440      47   10434   10437      49   10434   10440      49
   10449   10452      47   10446   10449      49   10446   10452      49   10461
   10464      47   10458   10461      49   10458   10464      49   10473   10476
      47   10470   10473      49   10470   10476      49   10485   10488      47
   10482   10485      49   10482   10488      49   10497   10500      47   10494
   10497      49   10494   10500      49   10509   10512      47   10506   10509
      49   10506   10512      49   10521   10524      47   10518   10521      49
   10518   10524      49   10533   10536      47   10530   10533      49   10530
   10536      49   10545   10548      47   10542   10545      49   10542   10548
      49   10557   10560      47   10554   10557      49   10554   10560      49
   10569   10572      47   10566   10569      49   10566   10572      49   10581
   10584      47   10578   10581      49   10578   10584      49   10593   10596
      47   10590   10593      49   10590   10596      49   10605   10608      47
   10602   10605      49   10602   10608      49   10617   10620      47   10614
   10617      49   10614   10620      49   10629   10632      47   10626   10629
      49   10626   10632      49   10641   10644      47   10638   10641      49
   10638   10644      49   10653   10656      47   10650   10653      49   10650
   10656      49   10665   10668      47   10662   10665      49   10662   10668
      49   10677   10680      47   10674   10677      49   10674   10680      49
   10689   10692      47   10686   10689      49   10686   10692      49   10701
   10704      47   10698   10701      49   10698   10704      49   10713   10716
      47   10710   10713      49   10710   10716      49   10725   10728      47
   10722   10725      49   10722   10728      49   10737   10740      47   10734
   10737      49   10734   10740      49   10749   10752      47   10746   10749
      49   10746   10752      49   10761   10764      47   10758   10761      49
   10758   10764      49   10773   10776      47   10770   10773      49   10770
   10776      49   10785   10788      47   10782   10785      49   10782   10788
      49   10797   10800      47   10794   10797      49   10794   10800      49
   10809   10812      47   10806   10809      49   10806   10812      49   10821
   10824      47   10818   10821      49   10818   10824      49   10833   10836
      47   10830   10833      49   10830   10836      49   10845   10848      47
   10842   10845      49   10842   10848      49   10857   10860      47   10854
   10857      49   10854   10860      49   10869   10872      47   10866   10869
      49   10866   10872      49   10881   10884      47   10878   10881      49
   10878   10884      49   10893   10896      47   10890   10893      49   10890
   10896      49   10905   10908      47   10902   10905      49   10902   10908
      49   10917   10920      47   10914   10917      49   10914   10920      49
   10929   10932      47   10926   10929      49   10926   10932      49   10941
   10944      47   10938   10941      49   10938   10944      49   10953   10956
      47   10950   10953      49   10950   10956      49   10965   10968      47
   10962   10965      49   10962   10968      49   10977   10980      47   10974
   10977      49   10974   10980      49   10989   10992      47   10986   10989
      49   10986   10992      49   11001   11004      47   10998   11001      49
   10998   11004      49   11013   11016      47   11010   11013      49   11010
   11016      49   11025   11028      47   11022   11025      49   11022   11028
      49   11037   11040      47   11034   11037      49   11034   11040      49
   11049   11052      47   11046   11049      49   11046   11052      49   11061
   11064      47   11058   11061      49   11058   11064      49   11073   11076
      47   11070   11073      49   11070   11076      49   11085   11088      47
   11082   11085      49   11082   11088      49   11097   11100      47   11094
   11097      49   11094   11100      49   11109   11112      47   11106   11109
      49   11106   11112      49   11121   11124      47   11118   11121      49
   11118   11124      49   11133   11136      47   11130   11133      49   11130
   11136      49   11145   11148      47   11142   11145      49   11142   11148
      49   11157   11160      47   11154   11157      49   11154   11160      49
   11169   11172      47   11166   11169      49   11166   11172      49   11181
   11184      47   11178   11181      49   11178   11184      49   11193   11196
      47   11190   11193      49   11190   11196      49   11205   11208      47
   11202   11205      49   11202   11208      49   11217   11220      47   11214
   11217      49   11214   11220      49   11229   11232      47   11226   11229
      49   11226   11232      49   11241   11244      47   11238   11241      49
   11238   11244      49   11253   11256      47   11250   11253      49   11250
   11256      49   11265   11268      47   11262   11265      49   11262   11268
      49   11277   11280      47   11274   11277      49   11274   11280      49
   11289   11292      47   11286   11289      49   11286   11292      49   11301
   11304      47   11298   11301      49   11298   11304      49   11313   11316
      47   11310   11313      49   11310   11316      49   11325   11328      47
   11322   11325      49   11322   11328      49   11337   11340      47   11334
   11337      49   11334   11340      49   11349   11352      47   11346   11349
      49   11346   11352      49   11361   11364      47   11358   11361      49
   11358   11364      49   11373   11376      47   11370   11373      49   11370
   11376      49   11385   11388      47   11382   11385      49   11382   11388
      49   11397   11400      47   11394   11397      49   11394   11400      49
   11409   11412      47   11406   11409      49   11406   11412      49   11421
   11424      47   11418   11421      49   11418   11424      49   11433   11436
      47   11430   11433      49   11430   11436      49   11445   11448      47
   11442   11445      49   11442   11448      49   11457   11460      47   11454
   11457      49   11454   11460      49   11469   11472      47   11466   11469
      49   11466   11472      49   11481   11484      47   11478   11481      49
   11478   11484      49   11493   11496      47   11490   11493      49   11490
   11496      49   11505   11508      47   11502   11505      49   11502   11508
      49   11517   11520      47   11514   11517      49   11514   11520      49
   11529   11532      47   11526   11529      49   11526   11532      49   11541
   11544      47   11538   11541      49   11538   11544      49   11553   11556
      47   11550   11553      49   11550   11556      49   11565   11568      47
   11562   11565      49   11562   11568      49   11577   11580      47   11574
   11577      49   11574   11580      49   11589   11592      47   11586   11589
      49   11586   11592      49   11601   11604      47   11598   11601      49
   11598   11604      49   11613   11616      47   11610   11613      49   11610
   11616      49   11625   11628      47   11622   11625      49   11622   11628
      49   11637   11640      47   11634   11637      49   11634   11640      49
   11649   11652      47   11646   11649      49   11646   11652      49   11661
   11664      47   11658   11661      49   11658   11664      49   11673   11676
      47   11670   11673      49   11670   11676      49   11685   11688      47
   11682   11685      49   11682   11688      49   11697   11700      47   11694
   11697      49   11694   11700      49   11709   11712      47   11706   11709
      49   11706   11712      49   11721   11724      47   11718   11721      49
   11718   11724      49   11733   11736      47   11730   11733      49   11730
   11736      49   11745   11748      47   11742   11745      49   11742   11748
      49   11757   11760      47   11754   11757      49   11754   11760      49
   11769   11772      47   11766   11769      49   11766   11772      49   11781
   11784      47   11778   11781      49   11778   11784      49   11793   11796
      47   11790   11793      49   11790   11796      49   11805   11808      47
   11802   11805      49   11802   11808      49   11817   11820      47   11814
   11817      49   11814   11820      49   11829   11832      47   11826   11829
      49   11826   11832      49   11841   11844      47   11838   11841      49
   11838   11844      49   11853   11856      47   11850   11853      49   11850
   11856      49   11865   11868      47   11862   11865      49   11862   11868
      49   11877   11880      47   11874   11877      49   11874   11880      49
   11889   11892      47   11886   11889      49   11886   11892      49   11901
   11904      47   11898   11901      49   11898   11904      49   11913   11916
      47   11910   11913      49   11910   11916      49   11925   11928      47
   11922   11925      49   11922   11928      49   11937   11940      47   11934
   11937      49   11934   11940      49   11949   11952      47   11946   11949
      49   11946   11952      49   11961   11964      47   11958   11961      49
   11958   11964      49   11973   11976      47   11970   11973      49   11970
   11976      49   11985   11988      47   11982   11985      49   11982   11988
      49   11997   12000      47   11994   11997      49   11994   12000      49
   12009   12012      47   12006   12009      49   12006   12012      49   12021
   12024      47   12018   12021      49   12018   12024      49   12033   12036
      47   12030   12033      49   12030   12036      49   12045   12048      47
   12042   12045      49   12042   12048      49   12057   12060      47   12054
   12057      49   12054   12060      49   12069   12072      47   12066   12069
      49   12066   12072      49   12081   12084      47   12078   12081      49
   12078   12084      49   12093   12096      47   12090   12093      49   12090
   12096      49   12105   12108      47   12102   12105      49   12102   12108
      49   12117   12120      47   12114   12117      49   12114   12120      49
   12129   12132      47   12126   12129      49   12126   12132      49   12141
   12144      47   12138   12141      49   12138   12144      49   12153   12156
      47   12150   12153      49   12150   12156      49   12165   12168      47
   12162   12165      49   12162   12168      49   12177   12180      47   12174
   12177      49   12174   12180      49   12189   12192      47   12186   12189
      49   12186   12192      49   12201   12204      47   12198   12201      49
   12198   12204      49   12213   12216      47   12210   12213      49   12210
   12216      49   12225   12228      47   12222   12225      49   12222   12228
      49   12237   12240      47   12234   12237      49   12234   12240      49
   12249   12252      47   12246   12249      49   12246   12252      49   12261
   12264      47   12258   12261      49   12258   12264      49   12273   12276
      47   12270   12273      49   12270   12276      49   12285   12288      47
   12282   12285      49   12282   12288      49   12297   12300      47   12294
   12297      49   12294   12300      49   12309   12312      47   12306   12309
      49   12306   12312      49   12321   12324      47   12318   12321      49
   12318   12324      49   12333   12336      47   12330   12333      49   12330
   12336      49   12345   12348      47   12342   12345      49   12342   12348
      49   12357   12360      47   12354   12357      49   12354   12360      49
   12369   12372      47   12366   12369      49   12366   12372      49   12381
   12384      47   12378   12381      49   12378   12384      49   12393   12396
      47   12390   12393      49   12390   12396      49   12405   12408      47
   12402   12405      49   12402   12408      49   12417   12420      47   12414
   12417      49   12414   12420      49   12429   12432      47   12426   12429
      49   12426   12432      49   12441   12444      47   12438   12441      49
   12438   12444      49   12453   12456      47   12450   12453      49   12450
   12456      49   12465   12468      47   12462   12465      49   12462   12468
      49   12477   12480      47   12474   12477      49   12474   12480      49
   12489   12492      47   12486   12489      49   12486   12492      49   12501
   12504      47   12498   12501      49   12498   12504      49   12513   12516
      47   12510   12513      49   12510   12516      49   12525   12528      47
   12522   12525      49   12522   12528      49   12537   12540      47   12534
   12537      49   12534   12540      49   12549   12552      47   12546   12549
      49   12546   12552      49   12561   12564      47   12558   12561      49
   12558   12564      49   12573   12576      47   12570   12573      49   12570
   12576      49   12585   12588      47   12582   12585      49   12582   12588
      49   12597   12600      47   12594   12597      49   12594   12600      49
   12609   12612      47   12606   12609      49   12606   12612      49   12621
   12624      47   12618   12621      49   12618   12624      49   12633   12636
      47   12630   12633      49   12630   12636      49   12645   12648      47
   12642   12645      49   12642   12648      49   12657   12660      47   12654
   12657      49   12654   12660      49   12669   12672      47   12666   12669
      49   12666   12672      49   12681   12684      47   12678   12681      49
   12678   12684      49   12693   12696      47   12690   12693      49   12690
   12696      49   12705   12708      47   12702   12705      49   12702   12708
      49   12717   12720      47   12714   12717      49   12714   12720      49
   12729   12732      47   12726   12729      49   12726   12732      49   12741
   12744      47   12738   12741      49   12738   12744      49   12753   12756
      47   12750   12753      49   12750   12756      49   12765   12768      47
   12762   12765      49   12762   12768      49   12777   12780      47   12774
   12777      49   12774   12780      49   12789   12792      47   12786   12789
      49   12786   12792      49   12801   12804      47   12798   12801      49
   12798   12804      49   12813   12816      47   12810   12813      49   12810
   12816      49   12825   12828      47   12822   12825      49   12822   12828
      49   12837   12840      47   12834   12837      49   12834   12840      49
   12849   12852      47   12846   12849      49   12846   12852      49   12861
   12864      47   12858   12861      49   12858   12864      49   12873   12876
      47   12870   12873      49   12870   12876      49   12885   12888      47
   12882   12885      49   12882   12888      49   12897   12900      47   12894
   12897      49   12894   12900      49   12909   12912      47   12906   12909
      49   12906   12912      49   12921   12924      47   12918   12921      49
   12918   12924      49   12933   12936      47   12930   12933      49   12930
   12936      49   12945   12948      47   12942   12945      49   12942   12948
      49   12957   12960      47   12954   12957      49   12954   12960      49
   12969   12972      47   12966   12969      49   12966   12972      49   12981
   12984      47   12978   12981      49   12978   12984      49   12993   12996
      47   12990   12993      49   12990   12996      49   13005   13008      47
   13002   13005      49   13002   13008      49   13017   13020      47   13014
   13017      49   13014   13020      49   13029   13032      47   13026   13029
      49   13026   13032      49   13041   13044      47   13038   13041      49
   13038   13044      49   13053   13056      47   13050   13053      49   13050
   13056      49   13065   13068      47   13062   13065      49   13062   13068
      49   13077   13080      47   13074   13077      49   13074   13080      49
   13089   13092      47   13086   13089      49   13086   13092      49   13101
   13104      47   13098   13101      49   13098   13104      49   13113   13116
      47   13110   13113      49   13110   13116      49   13125   13128      47
   13122   13125      49   13122   13128      49   13137   13140      47   13134
   13137      49   13134   13140      49   13149   13152      47   13146   13149
      49   13146   13152      49   13161   13164      47   13158   13161      49
   13158   13164      49   13173   13176      47   13170   13173      49   13170
   13176      49   13185   13188      47   13182   13185      49   13182   13188
      49   13197   13200      47   13194   13197      49   13194   13200      49
   13209   13212      47   13206   13209      49   13206   13212      49   13221
   13224      47   13218   13221      49   13218   13224      49   13233   13236
      47   13230   13233      49   13230   13236      49   13245   13248      47
   13242   13245      49   13242   13248      49   13257   13260      47   13254
   13257      49   13254   13260      49   13269   13272      47   13266   13269
      49   13266   13272      49   13281   13284      47   13278   13281      49
   13278   13284      49   13293   13296      47   13290   13293      49   13290
   13296      49   13305   13308      47   13302   13305      49   13302   13308
      49   13317   13320      47   13314   13317      49   13314   13320      49
   13329   13332      47   13326   13329      49   13326   13332      49   13341
   13344      47   13338   13341      49   13338   13344      49   13353   13356
      47   13350   13353      49   13350   13356      49   13365   13368      47
   13362   13365      49   13362   13368      49   13377   13380      47   13374
   13377      49   13374   13380      49   13389   13392      47   13386   13389
      49   13386   13392      49   13401   13404      47   13398   13401      49
   13398   13404      49   13413   13416      47   13410   13413      49   13410
   13416      49   13425   13428      47   13422   13425      49   13422   13428
      49   13437   13440      47   13434   13437      49   13434   13440      49
   13449   13452      47   13446   13449      49   13446   13452      49   13461
   13464      47   13458   13461      49   13458   13464      49   13473   13476
      47   13470   13473      49   13470   13476      49   13485   13488      47
   13482   13485      49   13482   13488      49   13497   13500      47   13494
   13497      49   13494   13500      49   13509   13512      47   13506   13509
      49   13506   13512      49   13521   13524      47   13518   13521      49
   13518   13524      49   13533   13536      47   13530   13533      49   13530
   13536      49   13545   13548      47   13542   13545      49   13542   13548
      49   13557   13560      47   13554   13557      49   13554   13560      49
   13569   13572      47   13566   13569      49   13566   13572      49   13581
   13584      47   13578   13581      49   13578   13584      49   13593   13596
      47   13590   13593      49   13590   13596      49   13605   13608      47
   13602   13605      49   13602   13608      49   13617   13620      47   13614
   13617      49   13614   13620      49   13629   13632      47   13626   13629
      49   13626   13632      49   13641   13644      47   13638   13641      49
   13638   13644      49   13653   13656      47   13650   13653      49   13650
   13656      49   13665   13668      47   13662   13665      49   13662   13668
      49   13677   13680      47   13674   13677      49   13674   13680      49
   13689   13692      47   13686   13689      49   13686   13692      49   13701
   13704      47   13698   13701      49   13698   13704      49   13713   13716
      47   13710   13713      49   13710   13716      49   13725   13728      47
   13722   13725      49   13722   13728      49   13737   13740      47   13734
   13737      49   13734   13740      49   13749   13752      47   13746   13749
      49   13746   13752      49   13761   13764      47   13758   13761      49
   13758   13764      49   13773   13776      47   13770   13773      49   13770
   13776      49   13785   13788      47   13782   13785      49   13782   13788
      49   13797   13800      47   13794   13797      49   13794   13800      49
   13809   13812      47   13806   13809      49   13806   13812      49   13821
   13824      47   13818   13821      49   13818   13824      49   13833   13836
      47   13830   13833      49   13830   13836      49   13845   13848      47
   13842   13845      49   13842   13848      49   13857   13860      47   13854
   13857      49   13854   13860      49   13869   13872      47   13866   13869
      49   13866   13872      49   13881   13884      47   13878   13881      49
   13878   13884      49   13893   13896      47   13890   13893      49   13890
   13896      49   13905   13908      47   13902   13905      49   13902   13908
      49   13917   13920      47   13914   13917      49   13914   13920      49
   13929   13932      47   13926   13929      49   13926   13932      49   13941
   13944      47   13938   13941      49   13938   13944      49   13953   13956
      47   13950   13953      49   13950   13956      49   13965   13968      47
   13962   13965      49   13962   13968      49   13977   13980      47   13974
   13977      49   13974   13980      49   13989   13992      47   13986   13989
      49   13986   13992      49   14001   14004      47   13998   14001      49
   13998   14004      49   14013   14016      47   14010   14013      49   14010
   14016      49   14025   14028      47   14022   14025      49   14022   14028
      49   14037   14040      47   14034   14037      49   14034   14040      49
   14049   14052      47   14046   14049      49   14046   14052      49   14061
   14064      47   14058   14061      49   14058   14064      49   14073   14076
      47   14070   14073      49   14070   14076      49   14085   14088      47
   14082   14085      49   14082   14088      49   14097   14100      47   14094
   14097      49   14094   14100      49   14109   14112      47   14106   14109
      49   14106   14112      49   14121   14124      47   14118   14121      49
   14118   14124      49   14133   14136      47   14130   14133      49   14130
   14136      49   14145   14148      47   14142   14145      49   14142   14148
      49   14157   14160      47   14154   14157      49   14154   14160      49
   14169   14172      47   14166   14169      49   14166   14172      49   14181
   14184      47   14178   14181      49   14178   14184      49   14193   14196
      47   14190   14193      49   14190   14196      49   14205   14208      47
   14202   14205      49   14202   14208      49   14217   14220      47   14214
   14217      49   14214   14220      49   14229   14232      47   14226   14229
      49   14226   14232      49   14241   14244      47   14238   14241      49
   14238   14244      49   14253   14256      47   14250   14253      49   14250
   14256      49   14265   14268      47   14262   14265      49   14262   14268
      49   14277   14280      47   14274   14277      49   14274   14280      49
   14289   14292      47   14286   14289      49   14286   14292      49   14301
   14304      47   14298   14301      49   14298   14304      49   14313   14316
      47   14310   14313      49   14310   14316      49   14325   14328      47
   14322   14325      49   14322   14328      49   14337   14340      47   14334
   14337      49   14334   14340      49   14349   14352      47   14346   14349
      49   14346   14352      49   14361   14364      47   14358   14361      49
   14358   14364      49   14373   14376      47   14370   14373      49   14370
   14376      49   14385   14388      47   14382   14385      49   14382   14388
      49   14397   14400      47   14394   14397      49   14394   14400      49
   14409   14412      47   14406   14409      49   14406   14412      49   14421
   14424      47   14418   14421      49   14418   14424      49   14433   14436
      47   14430   14433      49   14430   14436      49   14445   14448      47
   14442   14445      49   14442   14448      49   14457   14460      47   14454
   14457      49   14454   14460      49   14469   14472      47   14466   14469
      49   14466   14472      49   14481   14484      47   14478   14481      49
   14478   14484      49   14493   14496      47   14490   14493      49   14490
   14496      49   14505   14508      47   14502   14505      49   14502   14508
      49   14517   14520      47   14514   14517      49   14514   14520      49
   14529   14532      47   14526   14529      49   14526   14532      49   14541
   14544      47   14538   14541      49   14538   14544      49   14553   14556
      47   14550   14553      49   14550   14556      49   14565   14568      47
   14562   14565      49   14562   14568      49   14577   14580      47   14574
   14577      49   14574   14580      49   14589   14592      47   14586   14589
      49   14586   14592      49   14601   14604      47   14598   14601      49
   14598   14604      49   14613   14616      47   14610   14613      49   14610
   14616      49   14625   14628      47   14622   14625      49   14622   14628
      49   14637   14640      47   14634   14637      49   14634   14640      49
   14649   14652      47   14646   14649      49   14646   14652      49   14661
   14664      47   14658   14661      49   14658   14664      49   14673   14676
      47   14670   14673      49   14670   14676      49   14685   14688      47
   14682   14685      49   14682   14688      49   14697   14700      47   14694
   14697      49   14694   14700      49   14709   14712      47   14706   14709
      49   14706   14712      49   14721   14724      47   14718   14721      49
   14718   14724      49   14733   14736      47   14730   14733      49   14730
   14736      49   14745   14748      47   14742   14745      49   14742   14748
      49   14757   14760      47   14754   14757      49   14754   14760      49
   14769   14772      47   14766   14769      49   14766   14772      49   14781
   14784      47   14778   14781      49   14778   14784      49   14793   14796
      47   14790   14793      49   14790   14796      49   14805   14808      47
   14802   14805      49   14802   14808      49   14817   14820      47   14814
   14817      49   14814   14820      49   14829   14832      47   14826   14829
      49   14826   14832      49   14841   14844      47   14838   14841      49
   14838   14844      49   14853   14856      47   14850   14853      49   14850
   14856      49   14865   14868      47   14862   14865      49   14862   14868
      49   14877   14880      47   14874   14877      49   14874   14880      49
   14889   14892      47   14886   14889      49   14886   14892      49   14901
   14904      47   14898   14901      49   14898   14904      49   14913   14916
      47   14910   14913      49   14910   14916      49   14925   14928      47
   14922   14925      49   14922   14928      49   14937   14940      47   14934
   14937      49   14934   14940      49   14949   14952      47   14946   14949
      49   14946   14952      49   14961   14964      47   14958   14961      49
   14958   14964      49   14973   14976      47   14970   14973      49   14970
   14976      49   14985   14988      47   14982   14985      49   14982   14988
      49   14997   15000      47   14994   14997      49   14994   15000      49
   15009   15012      47   15006   15009      49   15006   15012      49   15021
   15024      47   15018   15021      49   15018   15024      49   15033   15036
      47   15030   15033      49   15030   15036      49   15045   15048      47
   15042   15045      49   15042   15048      49   15057   15060      47   15054
   15057      49   15054   15060      49   15069   15072      47   15066   15069
      49   15066   15072      49   15081   15084      47   15078   15081      49
   15078   15084      49   15093   15096      47   15090   15093      49   15090
   15096      49   15105   15108      47   15102   15105      49   15102   15108
      49   15117   15120      47   15114   15117      49   15114   15120      49
   15129   15132      47   15126   15129      49   15126   15132      49   15141
   15144      47   15138   15141      49   15138   15144      49   15153   15156
      47   15150   15153      49   15150   15156      49   15165   15168      47
   15162   15165      49   15162   15168      49   15177   15180      47   15174
   15177      49   15174   15180      49   15189   15192      47   15186   15189
      49   15186   15192      49   15201   15204      47   15198   15201      49
   15198   15204      49   15213   15216      47   15210   15213      49   15210
   15216      49   15225   15228      47   15222   15225      49   15222   15228
      49   15237   15240      47   15234   15237      49   15234   15240      49
   15249   15252      47   15246   15249      49   15246   15252      49   15261
   15264      47   15258   15261      49   15258   15264      49   15273   15276
      47   15270   15273      49   15270   15276      49   15285   15288      47
   15282   15285      49   15282   15288      49   15297   15300      47   15294
   15297      49   15294   15300      49   15309   15312      47   15306   15309
      49   15306   15312      49   15321   15324      47   15318   15321      49
   15318   15324      49   15333   15336      47   15330   15333      49   15330
   15336      49   15345   15348      47   15342   15345      49   15342   15348
      49   15357   15360      47   15354   15357      49   15354   15360      49
   15369   15372      47   15366   15369      49   15366   15372      49   15381
   15384      47   15378   15381      49   15378   15384      49   15393   15396
      47   15390   15393      49   15390   15396      49   15405   15408      47
   15402   15405      49   15402   15408      49   15417   15420      47   15414
   15417      49   15414   15420      49   15429   15432      47   15426   15429
      49   15426   15432      49   15441   15444      47   15438   15441      49
   15438   15444      49   15453   15456      47   15450   15453      49   15450
   15456      49   15465   15468      47   15462   15465      49   15462   15468
      49   15477   15480      47   15474   15477      49   15474   15480      49
   15489   15492      47   15486   15489      49   15486   15492      49   15501
   15504      47   15498   15501      49   15498   15504      49   15513   15516
      47   15510   15513      49   15510   15516      49   15525   15528      47
   15522   15525      49   15522   15528      49   15537   15540      47   15534
   15537      49   15534   15540      49   15549   15552      47   15546   15549
      49   15546   15552      49   15561   15564      47   15558   15561      49
   15558   15564      49   15573   15576      47   15570   15573      49   15570
   15576      49   15585   15588      47   15582   15585      49   15582   15588
      49   15597   15600      47   15594   15597      49   15594   15600      49
   15609   15612      47   15606   15609      49   15606   15612      49   15621
   15624      47   15618   15621      49   15618   15624      49   15633   15636
      47   15630   15633      49   15630   15636      49   15645   15648      47
   15642   15645      49   15642   15648      49   15657   15660      47   15654
   15657      49   15654   15660      49   15669   15672      47   15666   15669
      49   15666   15672      49   15681   15684      47   15678   15681      49
   15678   15684      49   15693   15696      47   15690   15693      49   15690
   15696      49   15705   15708      47   15702   15705      49   15702   15708
      49   15717   15720      47   15714   15717      49   15714   15720      49
   15729   15732      47   15726   15729      49   15726   15732      49   15741
   15744      47   15738   15741      49   15738   15744      49   15753   15756
      47   15750   15753      49   15750   15756      49   15765   15768      47
   15762   15765      49   15762   15768      49   15777   15780      47   15774
   15777      49   15774   15780      49   15789   15792      47   15786   15789
      49   15786   15792      49   15801   15804      47   15798   15801      49
   15798   15804      49   15813   15816      47   15810   15813      49   15810
   15816      49   15825   15828      47   15822   15825      49   15822   15828
      49   15837   15840      47   15834   15837      49   15834   15840      49
   15849   15852      47   15846   15849      49   15846   15852      49   15861
   15864      47   15858   15861      49   15858   15864      49   15873   15876
      47   15870   15873      49   15870   15876      49   15885   15888      47
   15882   15885      49   15882   15888      49   15897   15900      47   15894
   15897      49   15894   15900      49   15909   15912      47   15906   15909
      49   15906   15912      49   15921   15924      47   15918   15921      49
   15918   15924      49   15933   15936      47   15930   15933      49   15930
   15936      49   15945   15948      47   15942   15945      49   15942   15948
      49   15957   15960      47   15954   15957      49   15954   15960      49
   15969   15972      47   15966   15969      49   15966   15972      49   15981
   15984      47   15978   15981      49   15978   15984      49   15993   15996
      47   15990   15993      49   15990   15996      49   16005   16008      47
   16002   16005      49   16002   16008      49   16017   16020      47   16014
   16017      49   16014   16020      49   16029   16032      47   16026   16029
      49   16026   16032      49   16041   16044      47   16038   16041      49
   16038   16044      49   16053   16056      47   16050   16053      49   16050
   16056      49   16065   16068      47   16062   16065      49   16062   16068
      49   16077   16080      47   16074   16077      49   16074   16080      49
   16089   16092      47   16086   16089      49   16086   16092      49   16101
   16104      47   16098   16101      49   16098   16104      49   16113   16116
      47   16110   16113      49   16110   16116      49   16125   16128      47
   16122   16125      49   16122   16128      49   16137   16140      47   16134
   16137      49   16134   16140      49   16149   16152      47   16146   16149
      49   16146   16152      49   16161   16164      47   16158   16161      49
   16158   16164      49   16173   16176      47   16170   16173      49   16170
   16176      49   16185   16188      47   16182   16185      49   16182   16188
      49   16197   16200      47   16194   16197      49   16194   16200      49
   16209   16212      47   16206   16209      49   16206   16212      49   16221
   16224      47   16218   16221      49   16218   16224      49   16233   16236
      47   16230   16233      49   16230   16236      49   16245   16248      47
   16242   16245      49   16242   16248      49   16257   16260      47   16254
   16257      49   16254   16260      49   16269   16272      47   16266   16269
      49   16266   16272      49   16281   16284      47   16278   16281      49
   16278   16284      49   16293   16296      47   16290   16293      49   16290
   16296      49   16305   16308      47   16302   16305      49   16302   16308
      49   16317   16320      47   16314   16317      49   16314   16320      49
   16329   16332      47   16326   16329      49   16326   16332      49   16341
   16344      47   16338   16341      49   16338   16344      49   16353   16356
      47   16350   16353      49   16350   16356      49   16365   16368      47
   16362   16365      49   16362   16368      49   16377   16380      47   16374
   16377      49   16374   16380      49   16389   16392      47   16386   16389
      49   16386   16392      49   16401   16404      47   16398   16401      49
   16398   16404      49   16413   16416      47   16410   16413      49   16410
   16416      49   16425   16428      47   16422   16425      49   16422   16428
      49   16437   16440      47   16434   16437      49   16434   16440      49
   16449   16452      47   16446   16449      49   16446   16452      49   16461
   16464      47   16458   16461      49   16458   16464      49   16473   16476
      47   16470   16473      49   16470   16476      49   16485   16488      47
   16482   16485      49   16482   16488      49   16497   16500      47   16494
   16497      49   16494   16500      49   16509   16512      47   16506   16509
      49   16506   16512      49   16521   16524      47   16518   16521      49
   16518   16524      49   16533   16536      47   16530   16533      49   16530
   16536      49   16545   16548      47   16542   16545      49   16542   16548
      49   16557   16560      47   16554   16557      49   16554   16560      49
   16569   16572      47   16566   16569      49   16566   16572      49   16581
   16584      47   16578   16581      49   16578   16584      49   16593   16596
      47   16590   16593      49   16590   16596      49   16605   16608      47
   16602   16605      49   16602   16608      49   16617   16620      47   16614
   16617      49   16614   16620      49   16629   16632      47   16626   16629
      49   16626   16632      49   16641   16644      47   16638   16641      49
   16638   16644      49   16653   16656      47   16650   16653      49   16650
   16656      49   16665   16668      47   16662   16665      49   16662   16668
      49   16677   16680      47   16674   16677      49   16674   16680      49
   16689   16692      47   16686   16689      49   16686   16692      49   16701
   16704      47   16698   16701      49   16698   16704      49   16713   16716
      47   16710   16713      49   16710   16716      49   16725   16728      47
   16722   16725      49   16722   16728      49   16737   16740      47   16734
   16737      49   16734   16740      49   16749   16752      47   16746   16749
      49   16746   16752      49   16761   16764      47   16758   16761      49
   16758   16764      49   16773   16776      47   16770   16773      49   16770
   16776      49   16785   16788      47   16782   16785      49   16782   16788
      49   16797   16800      47   16794   16797      49   16794   16800      49
   16809   16812      47   16806   16809      49   16806   16812      49   16821
   16824      47   16818   16821      49   16818   16824      49   16833   16836
      47   16830   16833      49   16830   16836      49   16845   16848      47
   16842   16845      49   16842   16848      49   16857   16860      47   16854
   16857      49   16854   16860      49   16869   16872      47   16866   16869
      49   16866   16872      49   16881   16884      47   16878   16881      49
   16878   16884      49   16893   16896      47   16890   16893      49   16890
   16896      49   16905   16908      47   16902   16905      49   16902   16908
      49   16917   16920      47   16914   16917      49   16914   16920      49
   16929   16932      47   16926   16929      49   16926   16932      49   16941
   16944      47   16938   16941      49   16938   16944      49   16953   16956
      47   16950   16953      49   16950   16956      49   16965   16968      47
   16962   16965      49   16962   16968      49   16977   16980      47   16974
   16977      49   16974   16980      49   16989   16992      47   16986   16989
      49   16986   16992      49   17001   17004      47   16998   17001      49
   16998   17004      49   17013   17016      47   17010   17013      49   17010
   17016      49   17025   17028      47   17022   17025      49   17022   17028
      49   17037   17040      47   17034   17037      49   17034   17040      49
   17049   17052      47   17046   17049      49   17046   17052      49   17061
   17064      47   17058   17061      49   17058   17064      49   17073   17076
      47   17070   17073      49   17070   17076      49   17085   17088      47
   17082   17085      49   17082   17088      49   17097   17100      47   17094
   17097      49   17094   17100      49   17109   17112      47   17106   17109
      49   17106   17112      49   17121   17124      47   17118   17121      49
   17118   17124      49   17133   17136      47   17130   17133      49   17130
   17136      49   17145   17148      47   17142   17145      49   17142   17148
      49   17157   17160      47   17154   17157      49   17154   17160      49
   17169   17172      47   17166   17169      49   17166   17172      49   17181
   17184      47   17178   17181      49   17178   17184      49   17193   17196
      47   17190   17193      49   17190   17196      49   17205   17208      47
   17202   17205      49   17202   17208      49   17217   17220      47   17214
   17217      49   17214   17220      49   17229   17232      47   17226   17229
      49   17226   17232      49   17241   17244      47   17238   17241      49
   17238   17244      49   17253   17256      47   17250   17253      49   17250
   17256      49   17265   17268      47   17262   17265      49   17262   17268
      49   17277   17280      47   17274   17277      49   17274   17280      49
   17289   17292      47   17286   17289      49   17286   17292      49   17301
   17304      47   17298   17301      49   17298   17304      49   17313   17316
      47   17310   17313      49   17310   17316      49   17325   17328      47
   17322   17325      49   17322   17328      49   17337   17340      47   17334
   17337      49   17334   17340      49   17349   17352      47   17346   17349
      49   17346   17352      49   17361   17364      47   17358   17361      49
   17358   17364      49   17373   17376      47   17370   17373      49   17370
   17376      49   17385   17388      47   17382   17385      49   17382   17388
      49   17397   17400      47   17394   17397      49   17394   17400      49
   17409   17412      47   17406   17409      49   17406   17412      49   17421
   17424      47   17418   17421      49   17418   17424      49   17433   17436
      47   17430   17433      49   17430   17436      49   17445   17448      47
   17442   17445      49   17442   17448      49   17457   17460      47   17454
   17457      49   17454   17460      49   17469   17472      47   17466   17469
      49   17466   17472      49   17481   17484      47   17478   17481      49
   17478   17484      49   17493   17496      47   17490   17493      49   17490
   17496      49   17505   17508      47   17502   17505      49   17502   17508
      49   17517   17520      47   17514   17517      49   17514   17520      49
   17529   17532      47   17526   17529      49   17526   17532      49   17541
   17544      47   17538   17541      49   17538   17544      49   17553   17556
      47   17550   17553      49   17550   17556      49   17565   17568      47
   17562   17565      49   17562   17568      49   17577   17580      47   17574
   17577      49   17574   17580      49   17589   17592      47   17586   17589
      49   17586   17592      49   17601   17604      47   17598   17601      49
   17598   17604      49   17613   17616      47   17610   17613      49   17610
   17616      49   17625   17628      47   17622   17625      49   17622   17628
      49   17637   17640      47   17634   17637      49   17634   17640      49
   17649   17652      47   17646   17649      49   17646   17652      49   17661
   17664      47   17658   17661      49   17658   17664      49   17673   17676
      47   17670   17673      49   17670   17676      49   17685   17688      47
   17682   17685      49   17682   17688      49   17697   17700      47   17694
   17697      49   17694   17700      49   17709   17712      47   17706   17709
      49   17706   17712      49   17721   17724      47   17718   17721      49
   17718   17724      49   17733   17736      47   17730   17733      49   17730
   17736      49   17745   17748      47   17742   17745      49   17742   17748
      49   17757   17760      47   17754   17757      49   17754   17760      49
   17769   17772      47   17766   17769      49   17766   17772      49   17781
   17784      47   17778   17781      49   17778   17784      49   17793   17796
      47   17790   17793      49   17790   17796      49   17805   17808      47
   17802   17805      49   17802   17808      49   17817   17820      47   17814
   17817      49   17814   17820      49   17829   17832      47   17826   17829
      49   17826   17832      49   17841   17844      47   17838   17841      49
   17838   17844      49   17853   17856      47   17850   17853      49   17850
   17856      49   17865   17868      47   17862   17865      49   17862   17868
      49   17877   17880      47   17874   17877      49   17874   17880      49
   17889   17892      47   17886   17889      49   17886   17892      49   17901
   17904      47   17898   17901      49   17898   17904      49   17913   17916
      47   17910   17913      49   17910   17916      49   17925   17928      47
   17922   17925      49   17922   17928      49   17937   17940      47   17934
   17937      49   17934   17940      49   17949   17952      47   17946   17949
      49   17946   17952      49   17961   17964      47   17958   17961      49
   17958   17964      49   17973   17976      47   17970   17973      49   17970
   17976      49   17985   17988      47   17982   17985      49   17982   17988
      49   17997   18000      47   17994   17997      49   17994   18000      49
   18009   18012      47   18006   18009      49   18006   18012      49   18021
   18024      47   18018   18021      49   18018   18024      49   18033   18036
      47   18030   18033      49   18030   18036      49   18045   18048      47
   18042   18045      49   18042   18048      49   18057   18060      47   18054
   18057      49   18054   18060      49   18069   18072      47   18066   18069
      49   18066   18072      49   18081   18084      47   18078   18081      49
   18078   18084      49   18093   18096      47   18090   18093      49   18090
   18096      49   18105   18108      47   18102   18105      49   18102   18108
      49   18117   18120      47   18114   18117      49   18114   18120      49
   18129   18132      47   18126   18129      49   18126   18132      49   18141
   18144      47   18138   18141      49   18138   18144      49   18153   18156
      47   18150   18153      49   18150   18156      49   18165   18168      47
   18162   18165      49   18162   18168      49   18177   18180      47   18174
   18177      49   18174   18180      49   18189   18192      47   18186   18189
      49   18186   18192      49   18201   18204      47   18198   18201      49
   18198   18204      49   18213   18216      47   18210   18213      49   18210
   18216      49   18225   18228      47   18222   18225      49   18222   18228
      49   18237   18240      47   18234   18237      49   18234   18240      49
   18249   18252      47   18246   18249      49   18246   18252      49   18261
   18264      47   18258   18261      49   18258   18264      49   18273   18276
      47   18270   18273      49   18270   18276      49   18285   18288      47
   18282   18285      49   18282   18288      49   18297   18300      47   18294
   18297      49   18294   18300      49   18309   18312      47   18306   18309
      49   18306   18312      49   18321   18324      47   18318   18321      49
   18318   18324      49   18333   18336      47   18330   18333      49   18330
   18336      49   18345   18348      47   18342   18345      49   18342   18348
      49   18357   18360      47   18354   18357      49   18354   18360      49
   18369   18372      47   18366   18369      49   18366   18372      49   18381
   18384      47   18378   18381      49   18378   18384      49   18393   18396
      47   18390   18393      49   18390   18396      49   18405   18408      47
   18402   18405      49   18402   18408      49   18417   18420      47   18414
   18417      49   18414   18420      49   18429   18432      47   18426   18429
      49   18426   18432      49   18441   18444      47   18438   18441      49
   18438   18444      49   18453   18456      47   18450   18453      49   18450
   18456      49   18465   18468      47   18462   18465      49   18462   18468
      49   18477   18480      47   18474   18477      49   18474   18480      49
   18489   18492      47   18486   18489      49   18486   18492      49   18501
   18504      47   18498   18501      49   18498   18504      49   18513   18516
      47   18510   18513      49   18510   18516      49   18525   18528      47
   18522   18525      49   18522   18528      49   18537   18540      47   18534
   18537      49   18534   18540      49   18549   18552      47   18546   18549
      49   18546   18552      49   18561   18564      47   18558   18561      49
   18558   18564      49   18573   18576      47   18570   18573      49   18570
   18576      49   18585   18588      47   18582   18585      49   18582   18588
      49   18597   18600      47   18594   18597      49   18594   18600      49
   18609   18612      47   18606   18609      49   18606   18612      49   18621
   18624      47   18618   18621      49   18618   18624      49   18633   18636
      47   18630   18633      49   18630   18636      49   18645   18648      47
   18642   18645      49   18642   18648      49   18657   18660      47   18654
   18657      49   18654   18660      49   18669   18672      47   18666   18669
      49   18666   18672      49   18681   18684      47   18678   18681      49
   18678   18684      49   18693   18696      47   18690   18693      49   18690
   18696      49   18705   18708      47   18702   18705      49   18702   18708
      49   18717   18720      47   18714   18717      49   18714   18720      49
   18729   18732      47   18726   18729      49   18726   18732      49   18741
   18744      47   18738   18741      49   18738   18744      49   18753   18756
      47   18750   18753      49   18750   18756      49   18765   18768      47
   18762   18765      49   18762   18768      49   18777   18780      47   18774
   18777      49   18774   18780      49   18789   18792      47   18786   18789
      49   18786   18792      49   18801   18804      47   18798   18801      49
   18798   18804      49   18813   18816      47   18810   18813      49   18810
   18816      49   18825   18828      47   18822   18825      49   18822   18828
      49   18837   18840      47   18834   18837      49   18834   18840      49
   18849   18852      47   18846   18849      49   18846   18852      49   18861
   18864      47   18858   18861      49   18858   18864      49   18873   18876
      47   18870   18873      49   18870   18876      49   18885   18888      47
   18882   18885      49   18882   18888      49   18897   18900      47   18894
   18897      49   18894   18900      49   18909   18912      47   18906   18909
      49   18906   18912      49   18921   18924      47   18918   18921      49
   18918   18924      49   18933   18936      47   18930   18933      49   18930
   18936      49   18945   18948      47   18942   18945      49   18942   18948
      49   18957   18960      47   18954   18957      49   18954   18960      49
   18969   18972      47   18966   18969      49   18966   18972      49   18981
   18984      47   18978   18981      49   18978   18984      49   18993   18996
      47   18990   18993      49   18990   18996      49   19005   19008      47
   19002   19005      49   19002   19008      49   19017   19020      47   19014
   19017      49   19014   19020      49   19029   19032      47   19026   19029
      49   19026   19032      49   19041   19044      47   19038   19041      49
   19038   19044      49   19053   19056      47   19050   19053      49   19050
   19056      49   19065   19068      47   19062   19065      49   19062   19068
      49   19077   19080      47   19074   19077      49   19074   19080      49
   19089   19092      47   19086   19089      49   19086   19092      49   19101
   19104      47   19098   19101      49   19098   19104      49   19113   19116
      47   19110   19113      49   19110   19116      49   19125   19128      47
   19122   19125      49   19122   19128      49   19137   19140      47   19134
   19137      49   19134   19140      49   19149   19152      47   19146   19149
      49   19146   19152      49   19161   19164      47   19158   19161      49
   19158   19164      49   19173   19176      47   19170   19173      49   19170
   19176      49   19185   19188      47   19182   19185      49   19182   19188
      49   19197   19200      47   19194   19197      49   19194   19200      49
   19209   19212      47   19206   19209      49   19206   19212      49   19221
   19224      47   19218   19221      49   19218   19224      49   19233   19236
      47   19230   19233      49   19230   19236      49   19245   19248      47
   19242   19245      49   19242   19248      49   19257   19260      47   19254
   19257      49   19254   19260      49   19269   19272      47   19266   19269
      49   19266   19272      49   19281   19284      47   19278   19281      49
   19278   19284      49   19293   19296      47   19290   19293      49   19290
   19296      49   19305   19308      47   19302   19305      49   19302   19308
      49   19317   19320      47   19314   19317      49   19314   19320      49
   19329   19332      47   19326   19329      49   19326   19332      49   19341
   19344      47   19338   19341      49   19338   19344      49   19353   19356
      47   19350   19353      49   19350   19356      49   19365   19368      47
   19362   19365      49   19362   19368      49   19377   19380      47   19374
   19377      49   19374   19380      49   19389   19392      47   19386   19389
      49   19386   19392      49   19401   19404      47   19398   19401      49
   19398   19404      49   19413   19416      47   19410   19413      49   19410
   19416      49   19425   19428      47   19422   19425      49   19422   19428
      49   19437   19440      47   19434   19437      49   19434   19440      49
   19449   19452      47   19446   19449      49   19446   19452      49   19461
   19464      47   19458   19461      49   19458   19464      49   19473   19476
      47   19470   19473      49   19470   19476      49   19485   19488      47
   19482   19485      49   19482   19488      49   19497   19500      47   19494
   19497      49   19494   19500      49   19509   19512      47   19506   19509
      49   19506   19512      49   19521   19524      47   19518   19521      49
   19518   19524      49   19533   19536      47   19530   19533      49   19530
   19536      49   19545   19548      47   19542   19545      49   19542   19548
      49   19557   19560      47   19554   19557      49   19554   19560      49
   19569   19572      47   19566   19569      49   19566   19572      49   19581
   19584      47   19578   19581      49   19578   19584      49   19593   19596
      47   19590   19593      49   19590   19596      49   19605   19608      47
   19602   19605      49   19602   19608      49   19617   19620      47   19614
   19617      49   19614   19620      49   19629   19632      47   19626   19629
      49   19626   19632      49   19641   19644      47   19638   19641      49
   19638   19644      49   19653   19656      47   19650   19653      49   19650
   19656      49   19665   19668      47   19662   19665      49   19662   19668
      49   19677   19680      47   19674   19677      49   19674   19680      49
   19689   19692      47   19686   19689      49   19686   19692      49   19701
   19704      47   19698   19701      49   19698   19704      49   19713   19716
      47   19710   19713      49   19710   19716      49   19725   19728      47
   19722   19725      49   19722   19728      49   19737   19740      47   19734
   19737      49   19734   19740      49   19749   19752      47   19746   19749
      49   19746   19752      49   19761   19764      47   19758   19761      49
   19758   19764      49   19773   19776      47   19770   19773      49   19770
   19776      49   19785   19788      47   19782   19785      49   19782   19788
      49   19797   19800      47   19794   19797      49   19794   19800      49
   19809   19812      47   19806   19809      49   19806   19812      49   19821
   19824      47   19818   19821      49   19818   19824      49   19833   19836
      47   19830   19833      49   19830   19836      49   19845   19848      47
   19842   19845      49   19842   19848      49   19857   19860      47   19854
   19857      49   19854   19860      49   19869   19872      47   19866   19869
      49   19866   19872      49   19881   19884      47   19878   19881      49
   19878   19884      49   19893   19896      47   19890   19893      49   19890
   19896      49   19905   19908      47   19902   19905      49   19902   19908
      49   19917   19920      47   19914   19917      49   19914   19920      49
   19929   19932      47   19926   19929      49   19926   19932      49   19941
   19944      47   19938   19941      49   19938   19944      49   19953   19956
      47   19950   19953      49   19950   19956      49   19965   19968      47
   19962   19965      49   19962   19968      49   19977   19980      47   19974
   19977      49   19974   19980      49   19989   19992      47   19986   19989
      49   19986   19992      49   20001   20004      47   19998   20001      49
   19998   20004      49   20013   20016      47   20010   20013      49   20010
   20016      49   20025   20028      47   20022   20025      49   20022   20028
      49   20037   20040      47   20034   20037      49   20034   20040      49
   20049   20052      47   20046   20049      49   20046   20052      49   20061
   20064      47   20058   20061      49   20058   20064      49   20073   20076
      47   20070   20073      49   20070   20076      49   20085   20088      47
   20082   20085      49   20082   20088      49   20097   20100      47   20094
   20097      49   20094   20100      49   20109   20112      47   20106   20109
      49   20106   20112      49   20121   20124      47   20118   20121      49
   20118   20124      49   20133   20136      47   20130   20133      49   20130
   20136      49   20145   20148      47   20142   20145      49   20142   20148
      49   20157   20160      47   20154   20157      49   20154   20160      49
   20169   20172      47   20166   20169      49   20166   20172      49   20181
   20184      47   20178   20181      49   20178   20184      49   20193   20196
      47   20190   20193      49   20190   20196      49   20205   20208      47
   20202   20205      49   20202   20208      49   20217   20220      47   20214
   20217      49   20214   20220      49   20229   20232      47   20226   20229
      49   20226   20232      49   20241   20244      47   20238   20241      49
   20238   20244      49   20253   20256      47   20250   20253      49   20250
   20256      49   20265   20268      47   20262   20265      49   20262   20268
      49   20277   20280      47   20274   20277      49   20274   20280      49
   20289   20292      47   20286   20289      49   20286   20292      49   20301
   20304      47   20298   20301      49   20298   20304      49   20313   20316
      47   20310   20313      49   20310   20316      49   20325   20328      47
   20322   20325      49   20322   20328      49   20337   20340      47   20334
   20337      49   20334   20340      49   20349   20352      47   20346   20349
      49   20346   20352      49   20361   20364      47   20358   20361      49
   20358   20364      49   20373   20376      47   20370   20373      49   20370
   20376      49   20385   20388      47   20382   20385      49   20382   20388
      49   20397   20400      47   20394   20397      49   20394   20400      49
   20409   20412      47   20406   20409      49   20406   20412      49   20421
   20424      47   20418   20421      49   20418   20424      49   20433   20436
      47   20430   20433      49   20430   20436      49   20445   20448      47
   20442   20445      49   20442   20448      49   20457   20460      47   20454
   20457      49   20454   20460      49   20469   20472      47   20466   20469
      49   20466   20472      49   20481   20484      47   20478   20481      49
   20478   20484      49   20493   20496      47   20490   20493      49   20490
   20496      49   20505   20508      47   20502   20505      49   20502   20508
      49   20517   20520      47   20514   20517      49   20514   20520      49
   20529   20532      47   20526   20529      49   20526   20532      49   20541
   20544      47   20538   20541      49   20538   20544      49   20553   20556
      47   20550   20553      49   20550   20556      49   20565   20568      47
   20562   20565      49   20562   20568      49   20577   20580      47   20574
   20577      49   20574   20580      49   20589   20592      47   20586   20589
      49   20586   20592      49   20601   20604      47   20598   20601      49
   20598   20604      49   20613   20616      47   20610   20613      49   20610
   20616      49   20625   20628      47   20622   20625      49   20622   20628
      49   20637   20640      47   20634   20637      49   20634   20640      49
   20649   20652      47   20646   20649      49   20646   20652      49   20661
   20664      47   20658   20661      49   20658   20664      49   20673   20676
      47   20670   20673      49   20670   20676      49   20685   20688      47
   20682   20685      49   20682   20688      49   20697   20700      47   20694
   20697      49   20694   20700      49   20709   20712      47   20706   20709
      49   20706   20712      49   20721   20724      47   20718   20721      49
   20718   20724      49   20733   20736      47   20730   20733      49   20730
   20736      49   20745   20748      47   20742   20745      49   20742   20748
      49   20757   20760      47   20754   20757      49   20754   20760      49
   20769   20772      47   20766   20769      49   20766   20772      49   20781
   20784      47   20778   20781      49   20778   20784      49   20793   20796
      47   20790   20793      49   20790   20796      49   20805   20808      47
   20802   20805      49   20802   20808      49   20817   20820      47   20814
   20817      49   20814   20820      49   20829   20832      47   20826   20829
      49   20826   20832      49   20841   20844      47   20838   20841      49
   20838   20844      49   20853   20856      47   20850   20853      49   20850
   20856      49   20865   20868      47   20862   20865      49   20862   20868
      49   20877   20880      47   20874   20877      49   20874   20880      49
   20889   20892      47   20886   20889      49   20886   20892      49   20901
   20904      47   20898   20901      49   20898   20904      49   20913   20916
      47   20910   20913      49   20910   20916      49   20925   20928      47
   20922   20925      49   20922   20928      49   20937   20940      47   20934
   20937      49   20934   20940      49   20949   20952      47   20946   20949
      49   20946   20952      49   20961   20964      47   20958   20961      49
   20958   20964      49   20973   20976      47   20970   20973      49   20970
   20976      49   20985   20988      47   20982   20985      49   20982   20988
      49   20997   21000      47   20994   20997      49   20994   21000      49
   21009   21012      47   21006   21009      49   21006   21012      49   21021
   21024      47   21018   21021      49   21018   21024      49   21033   21036
      47   21030   21033      49   21030   21036      49   21045   21048      47
   21042   21045      49   21042   21048      49   21057   21060      47   21054
   21057      49   21054   21060      49   21069   21072      47   21066   21069
      49   21066   21072      49   21081   21084      47   21078   21081      49
   21078   21084      49   21093   21096      47   21090   21093      49   21090
   21096      49   21105   21108      47   21102   21105      49   21102   21108
      49   21117   21120      47   21114   21117      49   21114   21120      49
   21129   21132      47   21126   21129      49   21126   21132      49   21141
   21144      47   21138   21141      49   21138   21144      49   21153   21156
      47   21150   21153      49   21150   21156      49   21165   21168      47
   21162   21165      49   21162   21168      49   21177   21180      47   21174
   21177      49   21174   21180      49   21189   21192      47   21186   21189
      49   21186   21192      49   21201   21204      47   21198   21201      49
   21198   21204      49   21213   21216      47   21210   21213      49   21210
   21216      49   21225   21228      47   21222   21225      49   21222   21228
      49   21237   21240      47   21234   21237      49   21234   21240      49
   21249   21252      47   21246   21249      49   21246   21252      49   21261
   21264      47   21258   21261      49   21258   21264      49   21273   21276
      47   21270   21273      49   21270   21276      49   21285   21288      47
   21282   21285      49   21282   21288      49   21297   21300      47   21294
   21297      49   21294   21300      49   21309   21312      47   21306   21309
      49   21306   21312      49   21321   21324      47   21318   21321      49
   21318   21324      49   21333   21336      47   21330   21333      49   21330
   21336      49   21345   21348      47   21342   21345      49   21342   21348
      49   21357   21360      47   21354   21357      49   21354   21360      49
   21369   21372      47   21366   21369      49   21366   21372      49   21381
   21384      47   21378   21381      49   21378   21384      49   21393   21396
      47   21390   21393      49   21390   21396      49   21405   21408      47
   21402   21405      49   21402   21408      49   21417   21420      47   21414
   21417      49   21414   21420      49   21429   21432      47   21426   21429
      49   21426   21432      49   21441   21444      47   21438   21441      49
   21438   21444      49   21453   21456      47   21450   21453      49   21450
   21456      49   21465   21468      47   21462   21465      49   21462   21468
      49   21477   21480      47   21474   21477      49   21474   21480      49
   21489   21492      47   21486   21489      49   21486   21492      49   21501
   21504      47   21498   21501      49   21498   21504      49   21513   21516
      47   21510   21513      49   21510   21516      49   21525   21528      47
   21522   21525      49   21522   21528      49   21537   21540      47   21534
   21537      49   21534   21540      49   21549   21552      47   21546   21549
      49   21546   21552      49   21561   21564      47   21558   21561      49
   21558   21564      49   21573   21576      47   21570   21573      49   21570
   21576      49   21585   21588      47   21582   21585      49   21582   21588
      49   21597   21600      47   21594   21597      49   21594   21600      49
   21609   21612      47   21606   21609      49   21606   21612      49   21621
   21624      47   21618   21621      49   21618   21624      49   21633   21636
      47   21630   21633      49   21630   21636      49   21645   21648      47
   21642   21645      49   21642   21648      49   21657   21660      47   21654
   21657      49   21654   21660      49   21669   21672      47   21666   21669
      49   21666   21672      49   21681   21684      47   21678   21681      49
   21678   21684      49   21693   21696      47   21690   21693      49   21690
   21696      49   21705   21708      47   21702   21705      49   21702   21708
      49   21717   21720      47   21714   21717      49   21714   21720      49
   21729   21732      47   21726   21729      49   21726   21732      49   21741
   21744      47   21738   21741      49   21738   21744      49   21753   21756
      47   21750   21753      49   21750   21756      49   21765   21768      47
   21762   21765      49   21762   21768      49   21777   21780      47   21774
   21777      49   21774   21780      49   21789   21792      47   21786   21789
      49   21786   21792      49   21801   21804      47   21798   21801      49
   21798   21804      49   21813   21816      47   21810   21813      49   21810
   21816      49   21825   21828      47   21822   21825      49   21822   21828
      49   21837   21840      47   21834   21837      49   21834   21840      49
   21849   21852      47   21846   21849      49   21846   21852      49   21861
   21864      47   21858   21861      49   21858   21864      49   21873   21876
      47   21870   21873      49   21870   21876      49   21885   21888      47
   21882   21885      49   21882   21888      49   21897   21900      47   21894
   21897      49   21894   21900      49   21909   21912      47   21906   21909
      49   21906   21912      49   21921   21924      47   21918   21921      49
   21918   21924      49   21933   21936      47   21930   21933      49   21930
   21936      49   21945   21948      47   21942   21945      49   21942   21948
      49   21957   21960      47   21954   21957      49   21954   21960      49
   21969   21972      47   21966   21969      49   21966   21972      49   21981
   21984      47   21978   21981      49   21978   21984      49   21993   21996
      47   21990   21993      49   21990   21996      49   22005   22008      47
   22002   22005      49   22002   22008      49   22017   22020      47   22014
   22017      49   22014   22020      49   22029   22032      47   22026   22029
      49   22026   22032      49   22041   22044      47   22038   22041      49
   22038   22044      49   22053   22056      47   22050   22053      49   22050
   22056      49   22065   22068      47   22062   22065      49   22062   22068
      49   22077   22080      47   22074   22077      49   22074   22080      49
   22089   22092      47   22086   22089      49   22086   22092      49   22101
   22104      47   22098   22101      49   22098   22104      49   22113   22116
      47   22110   22113      49   22110   22116      49   22125   22128      47
   22122   22125      49   22122   22128      49   22137   22140      47   22134
   22137      49   22134   22140      49   22149   22152      47   22146   22149
      49   22146   22152      49   22161   22164      47   22158   22161      49
   22158   22164      49   22173   22176      47   22170   22173      49   22170
   22176      49   22185   22188      47   22182   22185      49   22182   22188
      49   22197   22200      47   22194   22197      49   22194   22200      49
   22209   22212      47   22206   22209      49   22206   22212      49   22221
   22224      47   22218   22221      49   22218   22224      49   22233   22236
      47   22230   22233      49   22230   22236      49   22245   22248      47
   22242   22245      49   22242   22248      49   22257   22260      47   22254
   22257      49   22254   22260      49   22269   22272      47   22266   22269
      49   22266   22272      49   22281   22284      47   22278   22281      49
   22278   22284      49   22293   22296      47   22290   22293      49   22290
   22296      49   22305   22308      47   22302   22305      49   22302   22308
      49   22317   22320      47   22314   22317      49   22314   22320      49
   22329   22332      47   22326   22329      49   22326   22332      49   22341
   22344      47   22338   22341      49   22338   22344      49   22353   22356
      47   22350   22353      49   22350   22356      49   22365   22368      47
   22362   22365      49   22362   22368      49   22377   22380      47   22374
   22377      49   22374   22380      49   22389   22392      47   22386   22389
      49   22386   22392      49   22401   22404      47   22398   22401      49
   22398   22404      49   22413   22416      47   22410   22413      49   22410
   22416      49   22425   22428      47   22422   22425      49   22422   22428
      49   22437   22440      47   22434   22437      49   22434   22440      49
   22449   22452      47   22446   22449      49   22446   22452      49   22461
   22464      47   22458   22461      49   22458   22464      49   22473   22476
      47   22470   22473      49   22470   22476      49   22485   22488      47
   22482   22485      49   22482   22488      49   22497   22500      47   22494
   22497      49   22494   22500      49   22509   22512      47   22506   22509
      49   22506   22512      49   22521   22524      47   22518   22521      49
   22518   22524      49   22533   22536      47   22530   22533      49   22530
   22536      49   22545   22548      47   22542   22545      49   22542   22548
      49   22557   22560      47   22554   22557      49   22554   22560      49
   22569   22572      47   22566   22569      49   22566   22572      49   22581
   22584      47   22578   22581      49   22578   22584      49   22593   22596
      47   22590   22593      49   22590   22596      49   22605   22608      47
   22602   22605      49   22602   22608      49   22617   22620      47   22614
   22617      49   22614   22620      49   22629   22632      47   22626   22629
      49   22626   22632      49   22641   22644      47   22638   22641      49
   22638   22644      49   22653   22656      47   22650   22653      49   22650
   22656      49   22665   22668      47   22662   22665      49   22662   22668
      49   22677   22680      47   22674   22677      49   22674   22680      49
   22689   22692      47   22686   22689      49   22686   22692      49   22701
   22704      47   22698   22701      49   22698   22704      49   22713   22716
      47   22710   22713      49   22710   22716      49   22725   22728      47
   22722   22725      49   22722   22728      49   22737   22740      47   22734
   22737      49   22734   22740      49   22749   22752      47   22746   22749
      49   22746   22752      49   22761   22764      47   22758   22761      49
   22758   22764      49   22773   22776      47   22770   22773      49   22770
   22776      49   22785   22788      47   22782   22785      49   22782   22788
      49   22797   22800      47   22794   22797      49   22794   22800      49
   22809   22812      47   22806   22809      49   22806   22812      49   22821
   22824      47   22818   22821      49   22818   22824      49   22833   22836
      47   22830   22833      49   22830   22836      49   22845   22848      47
   22842   22845      49   22842   22848      49   22857   22860      47   22854
   22857      49   22854   22860      49   22869   22872      47   22866   22869
      49   22866   22872      49   22881   22884      47   22878   22881      49
   22878   22884      49   22893   22896      47   22890   22893      49   22890
   22896      49   22905   22908      47   22902   22905      49   22902   22908
      49   22917   22920      47   22914   22917      49   22914   22920      49
   22929   22932      47   22926   22929      49   22926   22932      49   22941
   22944      47   22938   22941      49   22938   22944      49   22953   22956
      47   22950   22953      49   22950   22956      49   22965   22968      47
   22962   22965      49   22962   22968      49   22977   22980      47   22974
   22977      49   22974   22980      49   22989   22992      47   22986   22989
      49   22986   22992      49   23001   23004      47   22998   23001      49
   22998   23004      49   23013   23016      47   23010   23013      49   23010
   23016      49   23025   23028      47   23022   23025      49   23022   23028
      49   23037   23040      47   23034   23037      49   23034   23040      49
   23049   23052      47   23046   23049      49   23046   23052      49   23061
   23064      47   23058   23061      49   23058   23064      49   23073   23076
      47   23070   23073      49   23070   23076      49   23085   23088      47
   23082   23085      49   23082   23088      49   23097   23100      47   23094
   23097      49   23094   23100      49   23109   23112      47   23106   23109
      49   23106   23112      49   23121   23124      47   23118   23121      49
   23118   23124      49   23133   23136      47   23130   23133      49   23130
   23136      49   23145   23148      47   23142   23145      49   23142   23148
      49   23157   23160      47   23154   23157      49   23154   23160      49
   23169   23172      47   23166   23169      49   23166   23172      49   23181
   23184      47   23178   23181      49   23178   23184      49   23193   23196
      47   23190   23193      49   23190   23196      49   23205   23208      47
   23202   23205      49   23202   23208      49   23217   23220      47   23214
   23217      49   23214   23220      49   23229   23232      47   23226   23229
      49   23226   23232      49   23241   23244      47   23238   23241      49
   23238   23244      49   23253   23256      47   23250   23253      49   23250
   23256      49   23265   23268      47   23262   23265      49   23262   23268
      49   23277   23280      47   23274   23277      49   23274   23280      49
   23289   23292      47   23286   23289      49   23286   23292      49   23301
   23304      47   23298   23301      49   23298   23304      49   23313   23316
      47   23310   23313      49   23310   23316      49   23325   23328      47
   23322   23325      49   23322   23328      49   23337   23340      47   23334
   23337      49   23334   23340      49   23349   23352      47   23346   23349
      49   23346   23352      49   23361   23364      47   23358   23361      49
   23358   23364      49   23373   23376      47   23370   23373      49   23370
   23376      49   23385   23388      47   23382   23385      49   23382   23388
      49   23397   23400      47   23394   23397      49   23394   23400      49
   23409   23412      47   23406   23409      49   23406   23412      49   23421
   23424      47   23418   23421      49   23418   23424      49   23433   23436
      47   23430   23433      49   23430   23436      49   23445   23448      47
   23442   23445      49   23442   23448      49   23457   23460      47   23454
   23457      49   23454   23460      49   23469   23472      47   23466   23469
      49   23466   23472      49   23481   23484      47   23478   23481      49
   23478   23484      49   23493   23496      47   23490   23493      49   23490
   23496      49   23505   23508      47   23502   23505      49   23502   23508
      49   23517   23520      47   23514   23517      49   23514   23520      49
   23529   23532      47   23526   23529      49   23526   23532      49   23541
   23544      47   23538   23541      49   23538   23544      49   23553   23556
      47   23550   23553      49   23550   23556      49   23565   23568      47
   23562   23565      49   23562   23568      49   23577   23580      47   23574
   23577      49   23574   23580      49   23589   23592      47   23586   23589
      49   23586   23592      49   23601   23604      47   23598   23601      49
   23598   23604      49   23613   23616      47   23610   23613      49   23610
   23616      49   23625   23628      47   23622   23625      49   23622   23628
      49   23637   23640      47   23634   23637      49   23634   23640      49
   23649   23652      47   23646   23649      49   23646   23652      49   23661
   23664      47   23658   23661      49   23658   23664      49   23673   23676
      47   23670   23673      49   23670   23676      49   23685   23688      47
   23682   23685      49   23682   23688      49   23697   23700      47   23694
   23697      49   23694   23700      49   23709   23712      47   23706   23709
      49   23706   23712      49   23721   23724      47   23718   23721      49
   23718   23724      49   23733   23736      47   23730   23733      49   23730
   23736      49   23745   23748      47   23742   23745      49   23742   23748
      49   23757   23760      47   23754   23757      49   23754   23760      49
   23769   23772      47   23766   23769      49   23766   23772      49   23781
   23784      47   23778   23781      49   23778   23784      49   23793   23796
      47   23790   23793      49   23790   23796      49   23805   23808      47
   23802   23805      49   23802   23808      49   23817   23820      47   23814
   23817      49   23814   23820      49   23829   23832      47   23826   23829
      49   23826   23832      49   23841   23844      47   23838   23841      49
   23838   23844      49   23853   23856      47   23850   23853      49   23850
   23856      49   23865   23868      47   23862   23865      49   23862   23868
      49   23877   23880      47   23874   23877      49   23874   23880      49
   23889   23892      47   23886   23889      49   23886   23892      49   23901
   23904      47   23898   23901      49   23898   23904      49   23913   23916
      47   23910   23913      49   23910   23916      49   23925   23928      47
   23922   23925      49   23922   23928      49   23937   23940      47   23934
   23937      49   23934   23940      49   23949   23952      47   23946   23949
      49   23946   23952      49   23961   23964      47   23958   23961      49
   23958   23964      49   23973   23976      47   23970   23973      49   23970
   23976      49   23985   23988      47   23982   23985      49   23982   23988
      49   23997   24000      47   23994   23997      49   23994   24000      49
   24009   24012      47   24006   24009      49   24006   24012      49   24021
   24024      47   24018   24021      49   24018   24024      49   24033   24036
      47   24030   24033      49   24030   24036      49   24045   24048      47
   24042   24045      49   24042   24048      49   24057   24060      47   24054
   24057      49   24054   24060      49   24069   24072      47   24066   24069
      49   24066   24072      49   24081   24084      47   24078   24081      49
   24078   24084      49   24093   24096      47   24090   24093      49   24090
   24096      49   24105   24108      47   24102   24105      49   24102   24108
      49   24117   24120      47   24114   24117      49   24114   24120      49
   24129   24132      47   24126   24129      49   24126   24132      49   24141
   24144      47   24138   24141      49   24138   24144      49   24153   24156
      47   24150   24153      49   24150   24156      49   24165   24168      47
   24162   24165      49   24162   24168      49   24177   24180      47   24174
   24177      49   24174   24180      49   24189   24192      47   24186   24189
      49   24186   24192      49   24201   24204      47   24198   24201      49
   24198   24204      49   24213   24216      47   24210   24213      49   24210
   24216      49   24225   24228      47   24222   24225      49   24222   24228
      49   24237   24240      47   24234   24237      49   24234   24240      49
   24249   24252      47   24246   24249      49   24246   24252      49   24261
   24264      47   24258   24261      49   24258   24264      49   24273   24276
      47   24270   24273      49   24270   24276      49   24285   24288      47
   24282   24285      49   24282   24288      49   24297   24300      47   24294
   24297      49   24294   24300      49   24309   24312      47   24306   24309
      49   24306   24312      49   24321   24324      47   24318   24321      49
   24318   24324      49   24333   24336      47   24330   24333      49   24330
   24336      49   24345   24348      47   24342   24345      49   24342   24348
      49   24357   24360      47   24354   24357      49   24354   24360      49
   24369   24372      47   24366   24369      49   24366   24372      49   24381
   24384      47   24378   24381      49   24378   24384      49   24393   24396
      47   24390   24393      49   24390   24396      49   24405   24408      47
   24402   24405      49   24402   24408      49   24417   24420      47   24414
   24417      49   24414   24420      49   24429   24432      47   24426   24429
      49   24426   24432      49   24441   24444      47   24438   24441      49
   24438   24444      49   24453   24456      47   24450   24453      49   24450
   24456      49   24465   24468      47   24462   24465      49   24462   24468
      49   24477   24480      47   24474   24477      49   24474   24480      49
   24489   24492      47   24486   24489      49   24486   24492      49   24501
   24504      47   24498   24501      49   24498   24504      49   24513   24516
      47   24510   24513      49   24510   24516      49   24525   24528      47
   24522   24525      49   24522   24528      49   24537   24540      47   24534
   24537      49   24534   24540      49   24549   24552      47   24546   24549
      49   24546   24552      49   24561   24564      47   24558   24561      49
   24558   24564      49   24573   24576      47   24570   24573      49   24570
   24576      49   24585   24588      47   24582   24585      49   24582   24588
      49   24597   24600      47   24594   24597      49   24594   24600      49
   24609   24612      47   24606   24609      49   24606   24612      49   24621
   24624      47   24618   24621      49   24618   24624      49   24633   24636
      47   24630   24633      49   24630   24636      49   24645   24648      47
   24642   24645      49   24642   24648      49   24657   24660      47   24654
   24657      49   24654   24660      49   24669   24672      47   24666   24669
      49   24666   24672      49   24681   24684      47   24678   24681      49
   24678   24684      49   24693   24696      47   24690   24693      49   24690
   24696      49   24705   24708      47   24702   24705      49   24702   24708
      49   24717   24720      47   24714   24717      49   24714   24720      49
   24729   24732      47   24726   24729      49   24726   24732      49   24741
   24744      47   24738   24741      49   24738   24744      49   24753   24756
      47   24750   24753      49   24750   24756      49   24765   24768      47
   24762   24765      49   24762   24768      49   24777   24780      47   24774
   24777      49   24774   24780      49   24789   24792      47   24786   24789
      49   24786   24792      49   24801   24804      47   24798   24801      49
   24798   24804      49   24813   24816      47   24810   24813      49   24810
   24816      49   24825   24828      47   24822   24825      49   24822   24828
      49   24837   24840      47   24834   24837      49   24834   24840      49
   24849   24852      47   24846   24849      49   24846   24852      49   24861
   24864      47   24858   24861      49   24858   24864      49   24873   24876
      47   24870   24873      49   24870   24876      49   24885   24888      47
   24882   24885      49   24882   24888      49   24897   24900      47   24894
   24897      49   24894   24900      49   24909   24912      47   24906   24909
      49   24906   24912      49   24921   24924      47   24918   24921      49
   24918   24924      49   24933   24936      47   24930   24933      49   24930
   24936      49   24945   24948      47   24942   24945      49   24942   24948
      49   24957   24960      47   24954   24957      49   24954   24960      49
   24969   24972      47   24966   24969      49   24966   24972      49   24981
   24984      47   24978   24981      49   24978   24984      49   24993   24996
      47   24990   24993      49   24990   24996      49   25005   25008      47
   25002   25005      49   25002   25008      49   25017   25020      47   25014
   25017      49   25014   25020      49   25029   25032      47   25026   25029
      49   25026   25032      49   25041   25044      47   25038   25041      49
   25038   25044      49   25053   25056      47   25050   25053      49   25050
   25056      49   25065   25068      47   25062   25065      49   25062   25068
      49   25077   25080      47   25074   25077      49   25074   25080      49
   25089   25092      47   25086   25089      49   25086   25092      49   25101
   25104      47   25098   25101      49   25098   25104      49   25113   25116
      47   25110   25113      49   25110   25116      49   25125   25128      47
   25122   25125      49   25122   25128      49   25137   25140      47   25134
   25137      49   25134   25140      49   25149   25152      47   25146   25149
      49   25146   25152      49   25161   25164      47   25158   25161      49
   25158   25164      49   25173   25176      47   25170   25173      49   25170
   25176      49   25185   25188      47   25182   25185      49   25182   25188
      49   25197   25200      47   25194   25197      49   25194   25200      49
   25209   25212      47   25206   25209      49   25206   25212      49   25221
   25224      47   25218   25221      49   25218   25224      49   25233   25236
      47   25230   25233      49   25230   25236      49   25245   25248      47
   25242   25245      49   25242   25248      49   25257   25260      47   25254
   25257      49   25254   25260      49   25269   25272      47   25266   25269
      49   25266   25272      49   25281   25284      47   25278   25281      49
   25278   25284      49   25293   25296      47   25290   25293      49   25290
   25296      49   25305   25308      47   25302   25305      49   25302   25308
      49   25317   25320      47   25314   25317      49   25314   25320      49
   25329   25332      47   25326   25329      49   25326   25332      49   25341
   25344      47   25338   25341      49   25338   25344      49   25353   25356
      47   25350   25353      49   25350   25356      49   25365   25368      47
   25362   25365      49   25362   25368      49   25377   25380      47   25374
   25377      49   25374   25380      49   25389   25392      47   25386   25389
      49   25386   25392      49   25401   25404      47   25398   25401      49
   25398   25404      49   25413   25416      47   25410   25413      49   25410
   25416      49   25425   25428      47   25422   25425      49   25422   25428
      49   25437   25440      47   25434   25437      49   25434   25440      49
   25449   25452      47   25446   25449      49   25446   25452      49   25461
   25464      47   25458   25461      49   25458   25464      49   25473   25476
      47   25470   25473      49   25470   25476      49   25485   25488      47
   25482   25485      49   25482   25488      49   25497   25500      47   25494
   25497      49   25494   25500      49   25509   25512      47   25506   25509
      49   25506   25512      49   25521   25524      47   25518   25521      49
   25518   25524      49   25533   25536      47   25530   25533      49   25530
   25536      49   25545   25548      47   25542   25545      49   25542   25548
      49   25557   25560      47   25554   25557      49   25554   25560      49
   25569   25572      47   25566   25569      49   25566   25572      49   25581
   25584      47   25578   25581      49   25578   25584      49   25593   25596
      47   25590   25593      49   25590   25596      49   25605   25608      47
   25602   25605      49   25602   25608      49   25617   25620      47   25614
   25617      49   25614   25620      49   25629   25632      47   25626   25629
      49   25626   25632      49   25641   25644      47   25638   25641      49
   25638   25644      49   25653   25656      47   25650   25653      49   25650
   25656      49   25665   25668      47   25662   25665      49   25662   25668
      49   25677   25680      47   25674   25677      49   25674   25680      49
   25689   25692      47   25686   25689      49   25686   25692      49   25701
   25704      47   25698   25701      49   25698   25704      49   25713   25716
      47   25710   25713      49   25710   25716      49   25725   25728      47
   25722   25725      49   25722   25728      49   25737   25740      47   25734
   25737      49   25734   25740      49   25749   25752      47   25746   25749
      49   25746   25752      49   25761   25764      47   25758   25761      49
   25758   25764      49   25773   25776      47   25770   25773      49   25770
   25776      49   25785   25788      47   25782   25785      49   25782   25788
      49   25797   25800      47   25794   25797      49   25794   25800      49
   25809   25812      47   25806   25809      49   25806   25812      49   25821
   25824      47   25818   25821      49   25818   25824      49   25833   25836
      47   25830   25833      49   25830   25836      49   25845   25848      47
   25842   25845      49   25842   25848      49   25857   25860      47   25854
   25857      49   25854   25860      49   25869   25872      47   25866   25869
      49   25866   25872      49   25881   25884      47   25878   25881      49
   25878   25884      49   25893   25896      47   25890   25893      49   25890
   25896      49   25905   25908      47   25902   25905      49   25902   25908
      49   25917   25920      47   25914   25917      49   25914   25920      49
   25929   25932      47   25926   25929      49   25926   25932      49   25941
   25944      47   25938   25941      49   25938   25944      49   25953   25956
      47   25950   25953      49   25950   25956      49   25965   25968      47
   25962   25965      49   25962   25968      49   25977   25980      47   25974
   25977      49   25974   25980      49   25989   25992      47   25986   25989
      49   25986   25992      49   26001   26004      47   25998   26001      49
   25998   26004      49   26013   26016      47   26010   26013      49   26010
   26016      49   26025   26028      47   26022   26025      49   26022   26028
      49   26037   26040      47   26034   26037      49   26034   26040      49
   26049   26052      47   26046   26049      49   26046   26052      49   26061
   26064      47   26058   26061      49   26058   26064      49   26073   26076
      47   26070   26073      49   26070   26076      49   26085   26088      47
   26082   26085      49   26082   26088      49   26097   26100      47   26094
   26097      49   26094   26100      49   26109   26112      47   26106   26109
      49   26106   26112      49   26121   26124      47   26118   26121      49
   26118   26124      49   26133   26136      47   26130   26133      49   26130
   26136      49   26145   26148      47   26142   26145      49   26142   26148
      49   26157   26160      47   26154   26157      49   26154   26160      49
   26169   26172      47   26166   26169      49   26166   26172      49   26181
   26184      47   26178   26181      49   26178   26184      49   26193   26196
      47   26190   26193      49   26190   26196      49   26205   26208      47
   26202   26205      49   26202   26208      49   26217   26220      47   26214
   26217      49   26214   26220      49   26229   26232      47   26226   26229
      49   26226   26232      49   26241   26244      47   26238   26241      49
   26238   26244      49   26253   26256      47   26250   26253      49   26250
   26256      49   26265   26268      47   26262   26265      49   26262   26268
      49   26277   26280      47   26274   26277      49   26274   26280      49
   26289   26292      47   26286   26289      49   26286   26292      49   26301
   26304      47   26298   26301      49   26298   26304      49   26313   26316
      47   26310   26313      49   26310   26316      49   26325   26328      47
   26322   26325      49   26322   26328      49   26337   26340      47   26334
   26337      49   26334   26340      49   26349   26352      47   26346   26349
      49   26346   26352      49   26361   26364      47   26358   26361      49
   26358   26364      49   26373   26376      47   26370   26373      49   26370
   26376      49   26385   26388      47   26382   26385      49   26382   26388
      49   26397   26400      47   26394   26397      49   26394   26400      49
   26409   26412      47   26406   26409      49   26406   26412      49   26421
   26424      47   26418   26421      49   26418   26424      49   26433   26436
      47   26430   26433      49   26430   26436      49   26445   26448      47
   26442   26445      49   26442   26448      49   26457   26460      47   26454
   26457      49   26454   26460      49   26469   26472      47   26466   26469
      49   26466   26472      49   26481   26484      47   26478   26481      49
   26478   26484      49   26493   26496      47   26490   26493      49   26490
   26496      49   26505   26508      47   26502   26505      49   26502   26508
      49   26517   26520      47   26514   26517      49   26514   26520      49
   26529   26532      47   26526   26529      49   26526   26532      49   26541
   26544      47   26538   26541      49   26538   26544      49   26553   26556
      47   26550   26553      49   26550   26556      49   26565   26568      47
   26562   26565      49   26562   26568      49   26577   26580      47   26574
   26577      49   26574   26580      49   26589   26592      47   26586   26589
      49   26586   26592      49   26601   26604      47   26598   26601      49
   26598   26604      49   26613   26616      47   26610   26613      49   26610
   26616      49   26625   26628      47   26622   26625      49   26622   26628
      49   26637   26640      47   26634   26637      49   26634   26640      49
   26649   26652      47   26646   26649      49   26646   26652      49   26661
   26664      47   26658   26661      49   26658   26664      49   26673   26676
      47   26670   26673      49   26670   26676      49   26685   26688      47
   26682   26685      49   26682   26688      49   26697   26700      47   26694
   26697      49   26694   26700      49   26709   26712      47   26706   26709
      49   26706   26712      49   26721   26724      47   26718   26721      49
   26718   26724      49   26733   26736      47   26730   26733      49   26730
   26736      49   26745   26748      47   26742   26745      49   26742   26748
      49   26757   26760      47   26754   26757      49   26754   26760      49
   26769   26772      47   26766   26769      49   26766   26772      49   26781
   26784      47   26778   26781      49   26778   26784      49   26793   26796
      47   26790   26793      49   26790   26796      49   26805   26808      47
   26802   26805      49   26802   26808      49   26817   26820      47   26814
   26817      49   26814   26820      49   26829   26832      47   26826   26829
      49   26826   26832      49   26841   26844      47   26838   26841      49
   26838   26844      49   26853   26856      47   26850   26853      49   26850
   26856      49   26865   26868      47   26862   26865      49   26862   26868
      49   26877   26880      47   26874   26877      49   26874   26880      49
   26889   26892      47   26886   26889      49   26886   26892      49   26901
   26904      47   26898   26901      49   26898   26904      49   26913   26916
      47   26910   26913      49   26910   26916      49   26925   26928      47
   26922   26925      49   26922   26928      49   26937   26940      47   26934
   26937      49   26934   26940      49   26949   26952      47   26946   26949
      49   26946   26952      49   26961   26964      47   26958   26961      49
   26958   26964      49   26973   26976      47   26970   26973      49   26970
   26976      49   26985   26988      47   26982   26985      49   26982   26988
      49   26997   27000      47   26994   26997      49   26994   27000      49
   27009   27012      47   27006   27009      49   27006   27012      49   27021
   27024      47   27018   27021      49   27018   27024      49   27033   27036
      47   27030   27033      49   27030   27036      49   27045   27048      47
   27042   27045      49   27042   27048      49   27057   27060      47   27054
   27057      49   27054   27060      49   27069   27072      47   27066   27069
      49   27066   27072      49   27081   27084      47   27078   27081      49
   27078   27084      49   27093   27096      47   27090   27093      49   27090
   27096      49   27105   27108      47   27102   27105      49   27102   27108
      49   27117   27120      47   27114   27117      49   27114   27120      49
   27129   27132      47   27126   27129      49   27126   27132      49   27141
   27144      47   27138   27141      49   27138   27144      49   27153   27156
      47   27150   27153      49   27150   27156      49   27165   27168      47
   27162   27165      49   27162   27168      49   27177   27180      47   27174
   27177      49   27174   27180      49   27189   27192      47   27186   27189
      49   27186   27192      49   27201   27204      47   27198   27201      49
   27198   27204      49   27213   27216      47   27210   27213      49   27210
   27216      49   27225   27228      47   27222   27225      49   27222   27228
      49   27237   27240      47   27234   27237      49   27234   27240      49
   27249   27252      47   27246   27249      49   27246   27252      49   27261
   27264      47   27258   27261      49   27258   27264      49   27273   27276
      47   27270   27273      49   27270   27276      49   27285   27288      47
   27282   27285      49   27282   27288      49   27297   27300      47   27294
   27297      49   27294   27300      49   27309   27312      47   27306   27309
      49   27306   27312      49   27321   27324      47   27318   27321      49
   27318   27324      49   27333   27336      47   27330   27333      49   27330
   27336      49   27345   27348      47   27342   27345      49   27342   27348
      49   27357   27360      47   27354   27357      49   27354   27360      49
   27369   27372      47   27366   27369      49   27366   27372      49   27381
   27384      47   27378   27381      49   27378   27384      49   27393   27396
      47   27390   27393      49   27390   27396      49   27405   27408      47
   27402   27405      49   27402   27408      49   27417   27420      47   27414
   27417      49   27414   27420      49   27429   27432      47   27426   27429
      49   27426   27432      49   27441   27444      47   27438   27441      49
   27438   27444      49   27453   27456      47   27450   27453      49   27450
   27456      49   27465   27468      47   27462   27465      49   27462   27468
      49   27477   27480      47   27474   27477      49   27474   27480      49
   27489   27492      47   27486   27489      49   27486   27492      49   27501
   27504      47   27498   27501      49   27498   27504      49   27513   27516
      47   27510   27513      49   27510   27516      49   27525   27528      47
   27522   27525      49   27522   27528      49   27537   27540      47   27534
   27537      49   27534   27540      49   27549   27552      47   27546   27549
      49   27546   27552      49   27561   27564      47   27558   27561      49
   27558   27564      49   27573   27576      47   27570   27573      49   27570
   27576      49   27585   27588      47   27582   27585      49   27582   27588
      49   27597   27600      47   27594   27597      49   27594   27600      49
   27609   27612      47   27606   27609      49   27606   27612      49   27621
   27624      47   27618   27621      49   27618   27624      49   27633   27636
      47   27630   27633      49   27630   27636      49   27645   27648      47
   27642   27645      49   27642   27648      49   27657   27660      47   27654
   27657      49   27654   27660      49   27669   27672      47   27666   27669
      49   27666   27672      49   27681   27684      47   27678   27681      49
   27678   27684      49   27693   27696      47   27690   27693      49   27690
   27696      49   27705   27708      47   27702   27705      49   27702   27708
      49   27717   27720      47   27714   27717      49   27714   27720      49
   27729   27732      47   27726   27729      49   27726   27732      49   27741
   27744      47   27738   27741      49   27738   27744      49   27753   27756
      47   27750   27753      49   27750   27756      49   27765   27768      47
   27762   27765      49   27762   27768      49   27777   27780      47   27774
   27777      49   27774   27780      49   27789   27792      47   27786   27789
      49   27786   27792      49   27801   27804      47   27798   27801      49
   27798   27804      49   27813   27816      47   27810   27813      49   27810
   27816      49   27825   27828      47   27822   27825      49   27822   27828
      49   27837   27840      47   27834   27837      49   27834   27840      49
   27849   27852      47   27846   27849      49   27846   27852      49   27861
   27864      47   27858   27861      49   27858   27864      49   27873   27876
      47   27870   27873      49   27870   27876      49   27885   27888      47
   27882   27885      49   27882   27888      49   27897   27900      47   27894
   27897      49   27894   27900      49   27909   27912      47   27906   27909
      49   27906   27912      49   27921   27924      47   27918   27921      49
   27918   27924      49   27933   27936      47   27930   27933      49   27930
   27936      49   27945   27948      47   27942   27945      49   27942   27948
      49   27957   27960      47   27954   27957      49   27954   27960      49
   27969   27972      47   27966   27969      49   27966   27972      49   27981
   27984      47   27978   27981      49   27978   27984      49   27993   27996
      47   27990   27993      49   27990   27996      49   28005   28008      47
   28002   28005      49   28002   28008      49   28017   28020      47   28014
   28017      49   28014   28020      49   28029   28032      47   28026   28029
      49   28026   28032      49   28041   28044      47   28038   28041      49
   28038   28044      49   28053   28056      47   28050   28053      49   28050
   28056      49   28065   28068      47   28062   28065      49   28062   28068
      49   28077   28080      47   28074   28077      49   28074   28080      49
   28089   28092      47   28086   28089      49   28086   28092      49   28101
   28104      47   28098   28101      49   28098   28104      49   28113   28116
      47   28110   28113      49   28110   28116      49   28125   28128      47
   28122   28125      49   28122   28128      49   28137   28140      47   28134
   28137      49   28134   28140      49   28149   28152      47   28146   28149
      49   28146   28152      49   28161   28164      47   28158   28161      49
   28158   28164      49   28173   28176      47   28170   28173      49   28170
   28176      49   28185   28188      47   28182   28185      49   28182   28188
      49   28197   28200      47   28194   28197      49   28194   28200      49
   28209   28212      47   28206   28209      49   28206   28212      49   28221
   28224      47   28218   28221      49   28218   28224      49   28233   28236
      47   28230   28233      49   28230   28236      49   28245   28248      47
   28242   28245      49   28242   28248      49   28257   28260      47   28254
   28257      49   28254   28260      49   28269   28272      47   28266   28269
      49   28266   28272      49   28281   28284      47   28278   28281      49
   28278   28284      49   28293   28296      47   28290   28293      49   28290
   28296      49   28305   28308      47   28302   28305      49   28302   28308
      49   28317   28320      47   28314   28317      49   28314   28320      49
   28329   28332      47   28326   28329      49   28326   28332      49   28341
   28344      47   28338   28341      49   28338   28344      49   28353   28356
      47   28350   28353      49   28350   28356      49   28365   28368      47
   28362   28365      49   28362   28368      49   28377   28380      47   28374
   28377      49   28374   28380      49   28389   28392      47   28386   28389
      49   28386   28392      49   28401   28404      47   28398   28401      49
   28398   28404      49   28413   28416      47   28410   28413      49   28410
   28416      49   28425   28428      47   28422   28425      49   28422   28428
      49   28437   28440      47   28434   28437      49   28434   28440      49
   28449   28452      47   28446   28449      49   28446   28452      49   28461
   28464      47   28458   28461      49   28458   28464      49   28473   28476
      47   28470   28473      49   28470   28476      49   28485   28488      47
   28482   28485      49   28482   28488      49   28497   28500      47   28494
   28497      49   28494   28500      49   28509   28512      47   28506   28509
      49   28506   28512      49   28521   28524      47   28518   28521      49
   28518   28524      49   28533   28536      47   28530   28533      49   28530
   28536      49   28545   28548      47   28542   28545      49   28542   28548
      49   28557   28560      47   28554   28557      49   28554   28560      49
   28569   28572      47   28566   28569      49   28566   28572      49   28581
   28584      47   28578   28581      49   28578   28584      49   28593   28596
      47   28590   28593      49   28590   28596      49   28605   28608      47
   28602   28605      49   28602   28608      49   28617   28620      47   28614
   28617      49   28614   28620      49   28629   28632      47   28626   28629
      49   28626   28632      49   28641   28644      47   28638   28641      49
   28638   28644      49   28653   28656      47   28650   28653      49   28650
   28656      49   28665   28668      47   28662   28665      49   28662   28668
      49   28677   28680      47   28674   28677      49   28674   28680      49
   28689   28692      47   28686   28689      49   28686   28692      49   28701
   28704      47   28698   28701      49   28698   28704      49   28713   28716
      47   28710   28713      49   28710   28716      49   28725   28728      47
   28722   28725      49   28722   28728      49   28737   28740      47   28734
   28737      49   28734   28740      49   28749   28752      47   28746   28749
      49   28746   28752      49   28761   28764      47   28758   28761      49
   28758   28764      49   28773   28776      47   28770   28773      49   28770
   28776      49   28785   28788      47   28782   28785      49   28782   28788
      49   28797   28800      47   28794   28797      49   28794   28800      49
   28809   28812      47   28806   28809      49   28806   28812      49   28821
   28824      47   28818   28821      49   28818   28824      49   28833   28836
      47   28830   28833      49   28830   28836      49   28845   28848      47
   28842   28845      49   28842   28848      49   28857   28860      47   28854
   28857      49   28854   28860      49   28869   28872      47   28866   28869
      49   28866   28872      49   28881   28884      47   28878   28881      49
   28878   28884      49   28893   28896      47   28890   28893      49   28890
   28896      49   28905   28908      47   28902   28905      49   28902   28908
      49   28917   28920      47   28914   28917      49   28914   28920      49
   28929   28932      47   28926   28929      49   28926   28932      49   28941
   28944      47   28938   28941      49   28938   28944      49   28953   28956
      47   28950   28953      49   28950   28956      49   28965   28968      47
   28962   28965      49   28962   28968      49   28977   28980      47   28974
   28977      49   28974   28980      49   28989   28992      47   28986   28989
      49   28986   28992      49   29001   29004      47   28998   29001      49
   28998   29004      49   29013   29016      47   29010   29013      49   29010
   29016      49   29025   29028      47   29022   29025      49   29022   29028
      49   29037   29040      47   29034   29037      49   29034   29040      49
   29049   29052      47   29046   29049      49   29046   29052      49   29061
   29064      47   29058   29061      49   29058   29064      49   29073   29076
      47   29070   29073      49   29070   29076      49   29085   29088      47
   29082   29085      49   29082   29088      49   29097   29100      47   29094
   29097      49   29094   29100      49   29109   29112      47   29106   29109
      49   29106   29112      49   29121   29124      47   29118   29121      49
   29118   29124      49   29133   29136      47   29130   29133      49   29130
   29136      49   29145   29148      47   29142   29145      49   29142   29148
      49   29157   29160      47   29154   29157      49   29154   29160      49
   29169   29172      47   29166   29169      49   29166   29172      49   29181
   29184      47   29178   29181      49   29178   29184      49   29193   29196
      47   29190   29193      49   29190   29196      49   29205   29208      47
   29202   29205      49   29202   29208      49   29217   29220      47   29214
   29217      49   29214   29220      49   29229   29232      47   29226   29229
      49   29226   29232      49   29241   29244      47   29238   29241      49
   29238   29244      49   29253   29256      47   29250   29253      49   29250
   29256      49   29265   29268      47   29262   29265      49   29262   29268
      49   29277   29280      47   29274   29277      49   29274   29280      49
   29289   29292      47   29286   29289      49   29286   29292      49   29301
   29304      47   29298   29301      49   29298   29304      49   29313   29316
      47   29310   29313      49   29310   29316      49   29325   29328      47
   29322   29325      49   29322   29328      49   29337   29340      47   29334
   29337      49   29334   29340      49   29349   29352      47   29346   29349
      49   29346   29352      49   29361   29364      47   29358   29361      49
   29358   29364      49   29373   29376      47   29370   29373      49   29370
   29376      49   29385   29388      47   29382   29385      49   29382   29388
      49   29397   29400      47   29394   29397      49   29394   29400      49
   29409   29412      47   29406   29409      49   29406   29412      49   29421
   29424      47   29418   29421      49   29418   29424      49   29433   29436
      47   29430   29433      49   29430   29436      49   29445   29448      47
   29442   29445      49   29442   29448      49   29457   29460      47   29454
   29457      49   29454   29460      49   29469   29472      47   29466   29469
      49   29466   29472      49   29481   29484      47   29478   29481      49
   29478   29484      49   29493   29496      47   29490   29493      49   29490
   29496      49   29505   29508      47   29502   29505      49   29502   29508
      49   29517   29520      47   29514   29517      49   29514   29520      49
   29529   29532      47   29526   29529      49   29526   29532      49   29541
   29544      47   29538   29541      49   29538   29544      49   29553   29556
      47   29550   29553      49   29550   29556      49   29565   29568      47
   29562   29565      49   29562   29568      49   29577   29580      47   29574
   29577      49   29574   29580      49   29589   29592      47   29586   29589
      49   29586   29592      49   29601   29604      47   29598   29601      49
   29598   29604      49   29613   29616      47   29610   29613      49   29610
   29616      49   29625   29628      47   29622   29625      49   29622   29628
      49   29637   29640      47   29634   29637      49   29634   29640      49
   29649   29652      47   29646   29649      49   29646   29652      49   29661
   29664      47   29658   29661      49   29658   29664      49   29673   29676
      47   29670   29673      49   29670   29676      49   29685   29688      47
   29682   29685      49   29682   29688      49   29697   29700      47   29694
   29697      49   29694   29700      49   29709   29712      47   29706   29709
      49   29706   29712      49   29721   29724      47   29718   29721      49
   29718   29724      49   29733   29736      47   29730   29733      49   29730
   29736      49   29745   29748      47   29742   29745      49   29742   29748
      49   29757   29760      47   29754   29757      49   29754   29760      49
   29769   29772      47   29766   29769      49   29766   29772      49   29781
   29784      47   29778   29781      49   29778   29784      49   29793   29796
      47   29790   29793      49   29790   29796      49   29805   29808      47
   29802   29805      49   29802   29808      49   29817   29820      47   29814
   29817      49   29814   29820      49   29829   29832      47   29826   29829
      49   29826   29832      49   29841   29844      47   29838   29841      49
   29838   29844      49   29853   29856      47   29850   29853      49   29850
   29856      49   29865   29868      47   29862   29865      49   29862   29868
      49   29877   29880      47   29874   29877      49   29874   29880      49
   29889   29892      47   29886   29889      49   29886   29892      49   29901
   29904      47   29898   29901      49   29898   29904      49   29913   29916
      47   29910   29913      49   29910   29916      49   29925   29928      47
   29922   29925      49   29922   29928      49   29937   29940      47   29934
   29937      49   29934   29940      49   29949   29952      47   29946   29949
      49   29946   29952      49   29961   29964      47   29958   29961      49
   29958   29964      49   29973   29976      47   29970   29973      49   29970
   29976      49   29985   29988      47   29982   29985      49   29982   29988
      49   29997   30000      47   29994   29997      49   29994   30000      49
   30009   30012      47   30006   30009      49   30006   30012      49   30021
   30024      47   30018   30021      49   30018   30024      49   30033   30036
      47   30030   30033      49   30030   30036      49   30045   30048      47
   30042   30045      49   30042   30048      49   30057   30060      47   30054
   30057      49   30054   30060      49   30069   30072      47   30066   30069
      49   30066   30072      49   30081   30084      47   30078   30081      49
   30078   30084      49   30093   30096      47   30090   30093      49   30090
   30096      49   30105   30108      47   30102   30105      49   30102   30108
      49   30117   30120      47   30114   30117      49   30114   30120      49
   30129   30132      47   30126   30129      49   30126   30132      49   30141
   30144      47   30138   30141      49   30138   30144      49   30153   30156
      47   30150   30153      49   30150   30156      49   30165   30168      47
   30162   30165      49   30162   30168      49   30177   30180      47   30174
   30177      49   30174   30180      49   30189   30192      47   30186   30189
      49   30186   30192      49   30201   30204      47   30198   30201      49
   30198   30204      49   30213   30216      47   30210   30213      49   30210
   30216      49   30225   30228      47   30222   30225      49   30222   30228
      49   30237   30240      47   30234   30237      49   30234   30240      49
   30249   30252      47   30246   30249      49   30246   30252      49   30261
   30264      47   30258   30261      49   30258   30264      49   30273   30276
      47   30270   30273      49   30270   30276      49   30285   30288      47
   30282   30285      49   30282   30288      49   30297   30300      47   30294
   30297      49   30294   30300      49   30309   30312      47   30306   30309
      49   30306   30312      49   30321   30324      47   30318   30321      49
   30318   30324      49   30333   30336      47   30330   30333      49   30330
   30336      49   30345   30348      47   30342   30345      49   30342   30348
      49   30357   30360      47   30354   30357      49   30354   30360      49
   30369   30372      47   30366   30369      49   30366   30372      49   30381
   30384      47   30378   30381      49   30378   30384      49   30393   30396
      47   30390   30393      49   30390   30396      49   30405   30408      47
   30402   30405      49   30402   30408      49   30417   30420      47   30414
   30417      49   30414   30420      49   30429   30432      47   30426   30429
      49   30426   30432      49   30441   30444      47   30438   30441      49
   30438   30444      49   30453   30456      47   30450   30453      49   30450
   30456      49   30465   30468      47   30462   30465      49   30462   30468
      49   30477   30480      47   30474   30477      49   30474   30480      49
   30489   30492      47   30486   30489      49   30486   30492      49   30501
   30504      47   30498   30501      49   30498   30504      49   30513   30516
      47   30510   30513      49   30510   30516      49   30525   30528      47
   30522   30525      49   30522   30528      49   30537   30540      47   30534
   30537      49   30534   30540      49   30549   30552      47   30546   30549
      49   30546   30552      49   30561   30564      47   30558   30561      49
   30558   30564      49   30573   30576      47   30570   30573      49   30570
   30576      49   30585   30588      47   30582   30585      49   30582   30588
      49   30597   30600      47   30594   30597      49   30594   30600      49
   30609   30612      47   30606   30609      49   30606   30612      49   30621
   30624      47   30618   30621      49   30618   30624      49   30633   30636
      47   30630   30633      49   30630   30636      49   30645   30648      47
   30642   30645      49   30642   30648      49   30657   30660      47   30654
   30657      49   30654   30660      49   30669   30672      47   30666   30669
      49   30666   30672      49   30681   30684      47   30678   30681      49
   30678   30684      49   30693   30696      47   30690   30693      49   30690
   30696      49   30705   30708      47   30702   30705      49   30702   30708
      49   30717   30720      47   30714   30717      49   30714   30720      49
   30729   30732      47   30726   30729      49   30726   30732      49   30741
   30744      47   30738   30741      49   30738   30744      49   30753   30756
      47   30750   30753      49   30750   30756      49   30765   30768      47
   30762   30765      49   30762   30768      49   30777   30780      47   30774
   30777      49   30774   30780      49   30789   30792      47   30786   30789
      49   30786   30792      49   30801   30804      47   30798   30801      49
   30798   30804      49   30813   30816      47   30810   30813      49   30810
   30816      49   30825   30828      47   30822   30825      49   30822   30828
      49   30837   30840      47   30834   30837      49   30834   30840      49
   30849   30852      47   30846   30849      49   30846   30852      49   30861
   30864      47   30858   30861      49   30858   30864      49   30873   30876
      47   30870   30873      49   30870   30876      49   30885   30888      47
   30882   30885      49   30882   30888      49   30897   30900      47   30894
   30897      49   30894   30900      49   30909   30912      47   30906   30909
      49   30906   30912      49   30921   30924      47   30918   30921      49
   30918   30924      49   30933   30936      47   30930   30933      49   30930
   30936      49   30945   30948      47   30942   30945      49   30942   30948
      49   30957   30960      47   30954   30957      49   30954   30960      49
   30969   30972      47   30966   30969      49   30966   30972      49   30981
   30984      47   30978   30981      49   30978   30984      49   30993   30996
      47   30990   30993      49   30990   30996      49   31005   31008      47
   31002   31005      49   31002   31008      49   31017   31020      47   31014
   31017      49   31014   31020      49   31029   31032      47   31026   31029
      49   31026   31032      49   31041   31044      47   31038   31041      49
   31038   31044      49   31053   31056      47   31050   31053      49   31050
   31056      49   31065   31068      47   31062   31065      49   31062   31068
      49   31077   31080      47   31074   31077      49   31074   31080      49
   31089   31092      47   31086   31089      49   31086   31092      49   31101
   31104      47   31098   31101      49   31098   31104      49   31113   31116
      47   31110   31113      49   31110   31116      49   31125   31128      47
   31122   31125      49   31122   31128      49   31137   31140      47   31134
   31137      49   31134   31140      49   31149   31152      47   31146   31149
      49   31146   31152      49   31161   31164      47   31158   31161      49
   31158   31164      49   31173   31176      47   31170   31173      49   31170
   31176      49   31185   31188      47   31182   31185      49   31182   31188
      49   31197   31200      47   31194   31197      49   31194   31200      49
   31209   31212      47   31206   31209      49   31206   31212      49   31221
   31224      47   31218   31221      49   31218   31224      49   31233   31236
      47   31230   31233      49   31230   31236      49   31245   31248      47
   31242   31245      49   31242   31248      49   31257   31260      47   31254
   31257      49   31254   31260      49   31269   31272      47   31266   31269
      49   31266   31272      49   31281   31284      47   31278   31281      49
   31278   31284      49   31293   31296      47   31290   31293      49   31290
   31296      49   31305   31308      47   31302   31305      49   31302   31308
      49   31317   31320      47   31314   31317      49   31314   31320      49
   31329   31332      47   31326   31329      49   31326   31332      49   31341
   31344      47   31338   31341      49   31338   31344      49   31353   31356
      47   31350   31353      49   31350   31356      49   31365   31368      47
   31362   31365      49   31362   31368      49   31377   31380      47   31374
   31377      49   31374   31380      49   31389   31392      47   31386   31389
      49   31386   31392      49   31401   31404      47   31398   31401      49
   31398   31404      49   31413   31416      47   31410   31413      49   31410
   31416      49   31425   31428      47   31422   31425      49   31422   31428
      49   31437   31440      47   31434   31437      49   31434   31440      49
   31449   31452      47   31446   31449      49   31446   31452      49   31461
   31464      47   31458   31461      49   31458   31464      49   31473   31476
      47   31470   31473      49   31470   31476      49   31485   31488      47
   31482   31485      49   31482   31488      49   31497   31500      47   31494
   31497      49   31494   31500      49   31509   31512      47   31506   31509
      49   31506   31512      49   31521   31524      47   31518   31521      49
   31518   31524      49   31533   31536      47   31530   31533      49   31530
   31536      49   31545   31548      47   31542   31545      49   31542   31548
      49   31557   31560      47   31554   31557      49   31554   31560      49
   31569   31572      47   31566   31569      49   31566   31572      49   31581
   31584      47   31578   31581      49   31578   31584      49   31593   31596
      47   31590   31593      49   31590   31596      49   31605   31608      47
   31602   31605      49   31602   31608      49   31617   31620      47   31614
   31617      49   31614   31620      49   31629   31632      47   31626   31629
      49   31626   31632      49   31641   31644      47   31638   31641      49
   31638   31644      49   31653   31656      47   31650   31653      49   31650
   31656      49   31665   31668      47   31662   31665      49   31662   31668
      49   31677   31680      47   31674   31677      49   31674   31680      49
   31689   31692      47   31686   31689      49   31686   31692      49   31701
   31704      47   31698   31701      49   31698   31704      49   31713   31716
      47   31710   31713      49   31710   31716      49   31725   31728      47
   31722   31725      49   31722   31728      49   31737   31740      47   31734
   31737      49   31734   31740      49   31749   31752      47   31746   31749
      49   31746   31752      49   31761   31764      47   31758   31761      49
   31758   31764      49   31773   31776      47   31770   31773      49   31770
   31776      49   31785   31788      47   31782   31785      49   31782   31788
      49   31797   31800      47   31794   31797      49   31794   31800      49
   31809   31812      47   31806   31809      49   31806   31812      49   31821
   31824      47   31818   31821      49   31818   31824      49   31833   31836
      47   31830   31833      49   31830   31836      49   31845   31848      47
   31842   31845      49   31842   31848      49   31857   31860      47   31854
   31857      49   31854   31860      49   31869   31872      47   31866   31869
      49   31866   31872      49   31881   31884      47   31878   31881      49
   31878   31884      49   31893   31896      47   31890   31893      49   31890
   31896      49   31905   31908      47   31902   31905      49   31902   31908
      49   31917   31920      47   31914   31917      49   31914   31920      49
   31929   31932      47   31926   31929      49   31926   31932      49   31941
   31944      47   31938   31941      49   31938   31944      49   31953   31956
      47   31950   31953      49   31950   31956      49   31965   31968      47
   31962   31965      49   31962   31968      49   31977   31980      47   31974
   31977      49   31974   31980      49   31989   31992      47   31986   31989
      49   31986   31992      49   32001   32004      47   31998   32001      49
   31998   32004      49   32013   32016      47   32010   32013      49   32010
   32016      49   32025   32028      47   32022   32025      49   32022   32028
      49   32037   32040      47   32034   32037      49   32034   32040      49
   32049   32052      47   32046   32049      49   32046   32052      49   32061
   32064      47   32058   32061      49   32058   32064      49   32073   32076
      47   32070   32073      49   32070   32076      49   32085   32088      47
   32082   32085      49   32082   32088      49   32097   32100      47   32094
   32097      49   32094   32100      49   32109   32112      47   32106   32109
      49   32106   32112      49   32121   32124      47   32118   32121      49
   32118   32124      49   32133   32136      47   32130   32133      49   32130
   32136      49   32145   32148      47   32142   32145      49   32142   32148
      49   32157   32160      47   32154   32157      49   32154   32160      49
   32169   32172      47   32166   32169      49   32166   32172      49   32181
   32184      47   32178   32181      49   32178   32184      49   32193   32196
      47   32190   32193      49   32190   32196      49   32205   32208      47
   32202   32205      49   32202   32208      49   32217   32220      47   32214
   32217      49   32214   32220      49   32229   32232      47   32226   32229
      49   32226   32232      49   32241   32244      47   32238   32241      49
   32238   32244      49   32253   32256      47   32250   32253      49   32250
   32256      49   32265   32268      47   32262   32265      49   32262   32268
      49   32277   32280      47   32274   32277      49   32274   32280      49
   32289   32292      47   32286   32289      49   32286   32292      49   32301
   32304      47   32298   32301      49   32298   32304      49   32313   32316
      47   32310   32313      49   32310   32316      49   32325   32328      47
   32322   32325      49   32322   32328      49   32337   32340      47   32334
   32337      49   32334   32340      49   32349   32352      47   32346   32349
      49   32346   32352      49   32361   32364      47   32358   32361      49
   32358   32364      49   32373   32376      47   32370   32373      49   32370
   32376      49   32385   32388      47   32382   32385      49   32382   32388
      49   32397   32400      47   32394   32397      49   32394   32400      49
   32409   32412      47   32406   32409      49   32406   32412      49   32421
   32424      47   32418   32421      49   32418   32424      49   32433   32436
      47   32430   32433      49   32430   32436      49   32445   32448      47
   32442   32445      49   32442   32448      49   32457   32460      47   32454
   32457      49   32454   32460      49   32469   32472      47   32466   32469
      49   32466   32472      49   32481   32484      47   32478   32481      49
   32478   32484      49   32493   32496      47   32490   32493      49   32490
   32496      49   32505   32508      47   32502   32505      49   32502   32508
      49   32517   32520      47   32514   32517      49   32514   32520      49
   32529   32532      47   32526   32529      49   32526   32532      49   32541
   32544      47   32538   32541      49   32538   32544      49   32553   32556
      47   32550   32553      49   32550   32556      49   32565   32568      47
   32562   32565      49   32562   32568      49   32577   32580      47   32574
   32577      49   32574   32580      49   32589   32592      47   32586   32589
      49   32586   32592      49   32601   32604      47   32598   32601      49
   32598   32604      49   32613   32616      47   32610   32613      49   32610
   32616      49   32625   32628      47   32622   32625      49   32622   32628
      49   32637   32640      47   32634   32637      49   32634   32640      49
   32649   32652      47   32646   32649      49   32646   32652      49   32661
   32664      47   32658   32661      49   32658   32664      49   32673   32676
      47   32670   32673      49   32670   32676      49   32685   32688      47
   32682   32685      49   32682   32688      49   32697   32700      47   32694
   32697      49   32694   32700      49   32709   32712      47   32706   32709
      49   32706   32712      49   32721   32724      47   32718   32721      49
   32718   32724      49   32733   32736      47   32730   32733      49   32730
   32736      49   32745   32748      47   32742   32745      49   32742   32748
      49   32757   32760      47   32754   32757      49   32754   32760      49
   32769   32772      47   32766   32769      49   32766   32772      49   32781
   32784      47   32778   32781      49   32778   32784      49   32793   32796
      47   32790   32793      49   32790   32796      49   32805   32808      47
   32802   32805      49   32802   32808      49   32817   32820      47   32814
   32817      49   32814   32820      49   32829   32832      47   32826   32829
      49   32826   32832      49   32841   32844      47   32838   32841      49
   32838   32844      49   32853   32856      47   32850   32853      49   32850
   32856      49   32865   32868      47   32862   32865      49   32862   32868
      49   32877   32880      47   32874   32877      49   32874   32880      49
   32889   32892      47   32886   32889      49   32886   32892      49   32901
   32904      47   32898   32901      49   32898   32904      49   32913   32916
      47   32910   32913      49   32910   32916      49   32925   32928      47
   32922   32925      49   32922   32928      49   32937   32940      47   32934
   32937      49   32934   32940      49   32949   32952      47   32946   32949
      49   32946   32952      49   32961   32964      47   32958   32961      49
   32958   32964      49   32973   32976      47   32970   32973      49   32970
   32976      49   32985   32988      47   32982   32985      49   32982   32988
      49   32997   33000      47   32994   32997      49   32994   33000      49
   33009   33012      47   33006   33009      49   33006   33012      49   33021
   33024      47   33018   33021      49   33018   33024      49   33033   33036
      47   33030   33033      49   33030   33036      49   33045   33048      47
   33042   33045      49   33042   33048      49   33057   33060      47   33054
   33057      49   33054   33060      49   33069   33072      47   33066   33069
      49   33066   33072      49   33081   33084      47   33078   33081      49
   33078   33084      49   33093   33096      47   33090   33093      49   33090
   33096      49   33105   33108      47   33102   33105      49   33102   33108
      49   33117   33120      47   33114   33117      49   33114   33120      49
   33129   33132      47   33126   33129      49   33126   33132      49   33141
   33144      47   33138   33141      49   33138   33144      49   33153   33156
      47   33150   33153      49   33150   33156      49   33165   33168      47
   33162   33165      49   33162   33168      49   33177   33180      47   33174
   33177      49   33174   33180      49   33189   33192      47   33186   33189
      49   33186   33192      49   33201   33204      47   33198   33201      49
   33198   33204      49   33213   33216      47   33210   33213      49   33210
   33216      49   33225   33228      47   33222   33225      49   33222   33228
      49   33237   33240      47   33234   33237      49   33234   33240      49
   33249   33252      47   33246   33249      49   33246   33252      49   33261
   33264      47   33258   33261      49   33258   33264      49   33273   33276
      47   33270   33273      49   33270   33276      49   33285   33288      47
   33282   33285      49   33282   33288      49   33297   33300      47   33294
   33297      49   33294   33300      49   33309   33312      47   33306   33309
      49   33306   33312      49   33321   33324      47   33318   33321      49
   33318   33324      49   33333   33336      47   33330   33333      49   33330
   33336      49   33345   33348      47   33342   33345      49   33342   33348
      49   33357   33360      47   33354   33357      49   33354   33360      49
   33369   33372      47   33366   33369      49   33366   33372      49   33381
   33384      47   33378   33381      49   33378   33384      49   33393   33396
      47   33390   33393      49   33390   33396      49   33405   33408      47
   33402   33405      49   33402   33408      49   33417   33420      47   33414
   33417      49   33414   33420      49   33429   33432      47   33426   33429
      49   33426   33432      49   33441   33444      47   33438   33441      49
   33438   33444      49   33453   33456      47   33450   33453      49   33450
   33456      49   33465   33468      47   33462   33465      49   33462   33468
      49   33477   33480      47   33474   33477      49   33474   33480      49
   33489   33492      47   33486   33489      49   33486   33492      49   33501
   33504      47   33498   33501      49   33498   33504      49   33513   33516
      47   33510   33513      49   33510   33516      49   33525   33528      47
   33522   33525      49   33522   33528      49   33537   33540      47   33534
   33537      49   33534   33540      49   33549   33552      47   33546   33549
      49   33546   33552      49   33561   33564      47   33558   33561      49
   33558   33564      49   33573   33576      47   33570   33573      49   33570
   33576      49   33585   33588      47   33582   33585      49   33582   33588
      49   33597   33600      47   33594   33597      49   33594   33600      49
   33609   33612      47   33606   33609      49   33606   33612      49   33621
   33624      47   33618   33621      49   33618   33624      49   33633   33636
      47   33630   33633      49   33630   33636      49   33645   33648      47
   33642   33645      49   33642   33648      49   33657   33660      47   33654
   33657      49   33654   33660      49   33669   33672      47   33666   33669
      49   33666   33672      49   33681   33684      47   33678   33681      49
   33678   33684      49   33693   33696      47   33690   33693      49   33690
   33696      49   33705   33708      47   33702   33705      49   33702   33708
      49   33717   33720      47   33714   33717      49   33714   33720      49
   33729   33732      47   33726   33729      49   33726   33732      49   33741
   33744      47   33738   33741      49   33738   33744      49   33753   33756
      47   33750   33753      49   33750   33756      49   33765   33768      47
   33762   33765      49   33762   33768      49   33777   33780      47   33774
   33777      49   33774   33780      49   33789   33792      47   33786   33789
      49   33786   33792      49   33801   33804      47   33798   33801      49
   33798   33804      49   33813   33816      47   33810   33813      49   33810
   33816      49   33825   33828      47   33822   33825      49   33822   33828
      49   33837   33840      47   33834   33837      49   33834   33840      49
   33849   33852      47   33846   33849      49   33846   33852      49   33861
   33864      47   33858   33861      49   33858   33864      49   33873   33876
      47   33870   33873      49   33870   33876      49   33885   33888      47
   33882   33885      49   33882   33888      49   33897   33900      47   33894
   33897      49   33894   33900      49   33909   33912      47   33906   33909
      49   33906   33912      49   33921   33924      47   33918   33921      49
   33918   33924      49   33933   33936      47   33930   33933      49   33930
   33936      49   33945   33948      47   33942   33945      49   33942   33948
      49   33957   33960      47   33954   33957      49   33954   33960      49
   33969   33972      47   33966   33969      49   33966   33972      49   33981
   33984      47   33978   33981      49   33978   33984      49   33993   33996
      47   33990   33993      49   33990   33996      49   34005   34008      47
   34002   34005      49   34002   34008      49   34017   34020      47   34014
   34017      49   34014   34020      49   34029   34032      47   34026   34029
      49   34026   34032      49   34041   34044      47   34038   34041      49
   34038   34044      49   34053   34056      47   34050   34053      49   34050
   34056      49   34065   34068      47   34062   34065      49   34062   34068
      49   34077   34080      47   34074   34077      49   34074   34080      49
   34089   34092      47   34086   34089      49   34086   34092      49   34101
   34104      47   34098   34101      49   34098   34104      49   34113   34116
      47   34110   34113      49   34110   34116      49   34125   34128      47
   34122   34125      49   34122   34128      49   34137   34140      47   34134
   34137      49   34134   34140      49   34149   34152      47   34146   34149
      49   34146   34152      49   34161   34164      47   34158   34161      49
   34158   34164      49   34173   34176      47   34170   34173      49   34170
   34176      49   34185   34188      47   34182   34185      49   34182   34188
      49   34197   34200      47   34194   34197      49   34194   34200      49
   34209   34212      47   34206   34209      49   34206   34212      49   34221
   34224      47   34218   34221      49   34218   34224      49   34233   34236
      47   34230   34233      49   34230   34236      49   34245   34248      47
   34242   34245      49   34242   34248      49   34257   34260      47   34254
   34257      49   34254   34260      49   34269   34272      47   34266   34269
      49   34266   34272      49   34281   34284      47   34278   34281      49
   34278   34284      49   34293   34296      47   34290   34293      49   34290
   34296      49   34305   34308      47   34302   34305      49   34302   34308
      49   34317   34320      47   34314   34317      49   34314   34320      49
   34329   34332      47   34326   34329      49   34326   34332      49   34341
   34344      47   34338   34341      49   34338   34344      49   34353   34356
      47   34350   34353      49   34350   34356      49   34365   34368      47
   34362   34365      49   34362   34368      49   34377   34380      47   34374
   34377      49   34374   34380      49   34389   34392      47   34386   34389
      49   34386   34392      49   34401   34404      47   34398   34401      49
   34398   34404      49   34413   34416      47   34410   34413      49   34410
   34416      49   34425   34428      47   34422   34425      49   34422   34428
      49   34437   34440      47   34434   34437      49   34434   34440      49
   34449   34452      47   34446   34449      49   34446   34452      49   34461
   34464      47   34458   34461      49   34458   34464      49   34473   34476
      47   34470   34473      49   34470   34476      49   34485   34488      47
   34482   34485      49   34482   34488      49   34497   34500      47   34494
   34497      49   34494   34500      49   34509   34512      47   34506   34509
      49   34506   34512      49   34521   34524      47   34518   34521      49
   34518   34524      49   34533   34536      47   34530   34533      49   34530
   34536      49   34545   34548      47   34542   34545      49   34542   34548
      49   34557   34560      47   34554   34557      49   34554   34560      49
   34569   34572      47   34566   34569      49   34566   34572      49   34581
   34584      47   34578   34581      49   34578   34584      49   34593   34596
      47   34590   34593      49   34590   34596      49   34605   34608      47
   34602   34605      49   34602   34608      49   34617   34620      47   34614
   34617      49   34614   34620      49   34629   34632      47   34626   34629
      49   34626   34632      49   34641   34644      47   34638   34641      49
   34638   34644      49   34653   34656      47   34650   34653      49   34650
   34656      49   34665   34668      47   34662   34665      49   34662   34668
      49   34677   34680      47   34674   34677      49   34674   34680      49
   34689   34692      47   34686   34689      49   34686   34692      49   34701
   34704      47   34698   34701      49   34698   34704      49   34713   34716
      47   34710   34713      49   34710   34716      49   34725   34728      47
   34722   34725      49   34722   34728      49   34737   34740      47   34734
   34737      49   34734   34740      49   34749   34752      47   34746   34749
      49   34746   34752      49   34761   34764      47   34758   34761      49
   34758   34764      49   34773   34776      47   34770   34773      49   34770
   34776      49   34785   34788      47   34782   34785      49   34782   34788
      49   34797   34800      47   34794   34797      49   34794   34800      49
   34809   34812      47   34806   34809      49   34806   34812      49   34821
   34824      47   34818   34821      49   34818   34824      49   34833   34836
      47   34830   34833      49   34830   34836      49   34845   34848      47
   34842   34845      49   34842   34848      49   34857   34860      47   34854
   34857      49   34854   34860      49   34869   34872      47   34866   34869
      49   34866   34872      49   34881   34884      47   34878   34881      49
   34878   34884      49   34893   34896      47   34890   34893      49   34890
   34896      49   34905   34908      47   34902   34905      49   34902   34908
      49   34917   34920      47   34914   34917      49   34914   34920      49
   34929   34932      47   34926   34929      49   34926   34932      49   34941
   34944      47   34938   34941      49   34938   34944      49   34953   34956
      47   34950   34953      49   34950   34956      49   34965   34968      47
   34962   34965      49   34962   34968      49   34977   34980      47   34974
   34977      49   34974   34980      49   34989   34992      47   34986   34989
      49   34986   34992      49   35001   35004      47   34998   35001      49
   34998   35004      49   35013   35016      47   35010   35013      49   35010
   35016      49   35025   35028      47   35022   35025      49   35022   35028
      49   35037   35040      47   35034   35037      49   35034   35040      49
   35049   35052      47   35046   35049      49   35046   35052      49   35061
   35064      47   35058   35061      49   35058   35064      49   35073   35076
      47   35070   35073      49   35070   35076      49   35085   35088      47
   35082   35085      49   35082   35088      49   35097   35100      47   35094
   35097      49   35094   35100      49   35109   35112      47   35106   35109
      49   35106   35112      49   35121   35124      47   35118   35121      49
   35118   35124      49   35133   35136      47   35130   35133      49   35130
   35136      49   35145   35148      47   35142   35145      49   35142   35148
      49   35157   35160      47   35154   35157      49   35154   35160      49
   35169   35172      47   35166   35169      49   35166   35172      49   35181
   35184      47   35178   35181      49   35178   35184      49   35193   35196
      47   35190   35193      49   35190   35196      49   35205   35208      47
   35202   35205      49   35202   35208      49   35217   35220      47   35214
   35217      49   35214   35220      49   35229   35232      47   35226   35229
      49   35226   35232      49   35241   35244      47   35238   35241      49
   35238   35244      49   35253   35256      47   35250   35253      49   35250
   35256      49   35265   35268      47   35262   35265      49   35262   35268
      49   35277   35280      47   35274   35277      49   35274   35280      49
   35289   35292      47   35286   35289      49   35286   35292      49   35301
   35304      47   35298   35301      49   35298   35304      49   35313   35316
      47   35310   35313      49   35310   35316      49   35325   35328      47
   35322   35325      49   35322   35328      49   35337   35340      47   35334
   35337      49   35334   35340      49   35349   35352      47   35346   35349
      49   35346   35352      49   35361   35364      47   35358   35361      49
   35358   35364      49   35373   35376      47   35370   35373      49   35370
   35376      49   35385   35388      47   35382   35385      49   35382   35388
      49   35397   35400      47   35394   35397      49   35394   35400      49
   35409   35412      47   35406   35409      49   35406   35412      49   35421
   35424      47   35418   35421      49   35418   35424      49   35433   35436
      47   35430   35433      49   35430   35436      49   35445   35448      47
   35442   35445      49   35442   35448      49   35457   35460      47   35454
   35457      49   35454   35460      49   35469   35472      47   35466   35469
      49   35466   35472      49   35481   35484      47   35478   35481      49
   35478   35484      49   35493   35496      47   35490   35493      49   35490
   35496      49   35505   35508      47   35502   35505      49   35502   35508
      49   35517   35520      47   35514   35517      49   35514   35520      49
   35529   35532      47   35526   35529      49   35526   35532      49   35541
   35544      47   35538   35541      49   35538   35544      49   35553   35556
      47   35550   35553      49   35550   35556      49   35565   35568      47
   35562   35565      49   35562   35568      49   35577   35580      47   35574
   35577      49   35574   35580      49   35589   35592      47   35586   35589
      49   35586   35592      49   35601   35604      47   35598   35601      49
   35598   35604      49   35613   35616      47   35610   35613      49   35610
   35616      49   35625   35628      47   35622   35625      49   35622   35628
      49   35637   35640      47   35634   35637      49   35634   35640      49
   35649   35652      47   35646   35649      49   35646   35652      49   35661
   35664      47   35658   35661      49   35658   35664      49   35673   35676
      47   35670   35673      49   35670   35676      49   35685   35688      47
   35682   35685      49   35682   35688      49   35697   35700      47   35694
   35697      49   35694   35700      49   35709   35712      47   35706   35709
      49   35706   35712      49   35721   35724      47   35718   35721      49
   35718   35724      49   35733   35736      47   35730   35733      49   35730
   35736      49   35745   35748      47   35742   35745      49   35742   35748
      49   35757   35760      47   35754   35757      49   35754   35760      49
   35769   35772      47   35766   35769      49   35766   35772      49   35781
   35784      47   35778   35781      49   35778   35784      49   35793   35796
      47   35790   35793      49   35790   35796      49   35805   35808      47
   35802   35805      49   35802   35808      49   35817   35820      47   35814
   35817      49   35814   35820      49   35829   35832      47   35826   35829
      49   35826   35832      49   35841   35844      47   35838   35841      49
   35838   35844      49   35853   35856      47   35850   35853      49   35850
   35856      49   35865   35868      47   35862   35865      49   35862   35868
      49   35877   35880      47   35874   35877      49   35874   35880      49
   35889   35892      47   35886   35889      49   35886   35892      49   35901
   35904      47   35898   35901      49   35898   35904      49   35913   35916
      47   35910   35913      49   35910   35916      49   35925   35928      47
   35922   35925      49   35922   35928      49   35937   35940      47   35934
   35937      49   35934   35940      49   35949   35952      47   35946   35949
      49   35946   35952      49   35961   35964      47   35958   35961      49
   35958   35964      49   35973   35976      47   35970   35973      49   35970
   35976      49   35985   35988      47   35982   35985      49   35982   35988
      49   35997   36000      47   35994   35997      49   35994   36000      49
   36009   36012      47   36006   36009      49   36006   36012      49   36021
   36024      47   36018   36021      49   36018   36024      49   36033   36036
      47   36030   36033      49   36030   36036      49   36045   36048      47
   36042   36045      49   36042   36048      49   36057   36060      47   36054
   36057      49   36054   36060      49   36069   36072      47   36066   36069
      49   36066   36072      49   36081   36084      47   36078   36081      49
   36078   36084      49   36093   36096      47   36090   36093      49   36090
   36096      49   36105   36108      47   36102   36105      49   36102   36108
      49   36117   36120      47   36114   36117      49   36114   36120      49
   36129   36132      47   36126   36129      49   36126   36132      49   36141
   36144      47   36138   36141      49   36138   36144      49   36153   36156
      47   36150   36153      49   36150   36156      49   36165   36168      47
   36162   36165      49   36162   36168      49   36177   36180      47   36174
   36177      49   36174   36180      49   36189   36192      47   36186   36189
      49   36186   36192      49   36201   36204      47   36198   36201      49
   36198   36204      49   36213   36216      47   36210   36213      49   36210
   36216      49   36225   36228      47   36222   36225      49   36222   36228
      49   36237   36240      47   36234   36237      49   36234   36240      49
   36249   36252      47   36246   36249      49   36246   36252      49   36261
   36264      47   36258   36261      49   36258   36264      49   36273   36276
      47   36270   36273      49   36270   36276      49   36285   36288      47
   36282   36285      49   36282   36288      49   36297   36300      47   36294
   36297      49   36294   36300      49   36309   36312      47   36306   36309
      49   36306   36312      49   36321   36324      47   36318   36321      49
   36318   36324      49   36333   36336      47   36330   36333      49   36330
   36336      49   36345   36348      47   36342   36345      49   36342   36348
      49   36357   36360      47   36354   36357      49   36354   36360      49
   36369   36372      47   36366   36369      49   36366   36372      49   36381
   36384      47   36378   36381      49   36378   36384      49   36393   36396
      47   36390   36393      49   36390   36396      49   36405   36408      47
   36402   36405      49   36402   36408      49   36417   36420      47   36414
   36417      49   36414   36420      49   36429   36432      47   36426   36429
      49   36426   36432      49   36441   36444      47   36438   36441      49
   36438   36444      49   36453   36456      47   36450   36453      49   36450
   36456      49   36465   36468      47   36462   36465      49   36462   36468
      49   36477   36480      47   36474   36477      49   36474   36480      49
   36489   36492      47   36486   36489      49   36486   36492      49   36501
   36504      47   36498   36501      49   36498   36504      49   36513   36516
      47   36510   36513      49   36510   36516      49   36525   36528      47
   36522   36525      49   36522   36528      49   36537   36540      47   36534
   36537      49   36534   36540      49   36549   36552      47   36546   36549
      49   36546   36552      49   36561   36564      47   36558   36561      49
   36558   36564      49   36573   36576      47   36570   36573      49   36570
   36576      49   36585   36588      47   36582   36585      49   36582   36588
      49   36597   36600      47   36594   36597      49   36594   36600      49
   36609   36612      47   36606   36609      49   36606   36612      49   36621
   36624      47   36618   36621      49   36618   36624      49   36633   36636
      47   36630   36633      49   36630   36636      49   36645   36648      47
   36642   36645      49   36642   36648      49   36657   36660      47   36654
   36657      49   36654   36660      49   36669   36672      47   36666   36669
      49   36666   36672      49   36681   36684      47   36678   36681      49
   36678   36684      49   36693   36696      47   36690   36693      49   36690
   36696      49   36705   36708      47   36702   36705      49   36702   36708
      49   36717   36720      47   36714   36717      49   36714   36720      49
   36729   36732      47   36726   36729      49   36726   36732      49   36741
   36744      47   36738   36741      49   36738   36744      49   36753   36756
      47   36750   36753      49   36750   36756      49   36765   36768      47
   36762   36765      49   36762   36768      49   36777   36780      47   36774
   36777      49   36774   36780      49   36789   36792      47   36786   36789
      49   36786   36792      49   36801   36804      47   36798   36801      49
   36798   36804      49   36813   36816      47   36810   36813      49   36810
   36816      49   36825   36828      47   36822   36825      49   36822   36828
      49   36837   36840      47   36834   36837      49   36834   36840      49
   36849   36852      47   36846   36849      49   36846   36852      49   36861
   36864      47   36858   36861      49   36858   36864      49   36873   36876
      47   36870   36873      49   36870   36876      49   36885   36888      47
   36882   36885      49   36882   36888      49   36897   36900      47   36894
   36897      49   36894   36900      49   36909   36912      47   36906   36909
      49   36906   36912      49   36921   36924      47   36918   36921      49
   36918   36924      49   36933   36936      47   36930   36933      49   36930
   36936      49   36945   36948      47   36942   36945      49   36942   36948
      49   36957   36960      47   36954   36957      49   36954   36960      49
   36969   36972      47   36966   36969      49   36966   36972      49   36981
   36984      47   36978   36981      49   36978   36984      49   36993   36996
      47   36990   36993      49   36990   36996      49   37005   37008      47
   37002   37005      49   37002   37008      49   37017   37020      47   37014
   37017      49   37014   37020      49   37029   37032      47   37026   37029
      49   37026   37032      49   37041   37044      47   37038   37041      49
   37038   37044      49   37053   37056      47   37050   37053      49   37050
   37056      49   37065   37068      47   37062   37065      49   37062   37068
      49   37077   37080      47   37074   37077      49   37074   37080      49
   37089   37092      47   37086   37089      49   37086   37092      49   37101
   37104      47   37098   37101      49   37098   37104      49   37113   37116
      47   37110   37113      49   37110   37116      49   37125   37128      47
   37122   37125      49   37122   37128      49   37137   37140      47   37134
   37137      49   37134   37140      49   37149   37152      47   37146   37149
      49   37146   37152      49   37161   37164      47   37158   37161      49
   37158   37164      49   37173   37176      47   37170   37173      49   37170
   37176      49   37185   37188      47   37182   37185      49   37182   37188
      49   37197   37200      47   37194   37197      49   37194   37200      49
   37209   37212      47   37206   37209      49   37206   37212      49   37221
   37224      47   37218   37221      49   37218   37224      49   37233   37236
      47   37230   37233      49   37230   37236      49   37245   37248      47
   37242   37245      49   37242   37248      49   37257   37260      47   37254
   37257      49   37254   37260      49   37269   37272      47   37266   37269
      49   37266   37272      49   37281   37284      47   37278   37281      49
   37278   37284      49   37293   37296      47   37290   37293      49   37290
   37296      49   37305   37308      47   37302   37305      49   37302   37308
      49   37317   37320      47   37314   37317      49   37314   37320      49
   37329   37332      47   37326   37329      49   37326   37332      49   37341
   37344      47   37338   37341      49   37338   37344      49   37353   37356
      47   37350   37353      49   37350   37356      49   37365   37368      47
   37362   37365      49   37362   37368      49   37377   37380      47   37374
   37377      49   37374   37380      49   37389   37392      47   37386   37389
      49   37386   37392      49   37401   37404      47   37398   37401      49
   37398   37404      49   37413   37416      47   37410   37413      49   37410
   37416      49   37425   37428      47   37422   37425      49   37422   37428
      49   37437   37440      47   37434   37437      49   37434   37440      49
   37449   37452      47   37446   37449      49   37446   37452      49   37461
   37464      47   37458   37461      49   37458   37464      49   37473   37476
      47   37470   37473      49   37470   37476      49   37485   37488      47
   37482   37485      49   37482   37488      49   37497   37500      47   37494
   37497      49   37494   37500      49   37509   37512      47   37506   37509
      49   37506   37512      49   37521   37524      47   37518   37521      49
   37518   37524      49   37533   37536      47   37530   37533      49   37530
   37536      49   37545   37548      47   37542   37545      49   37542   37548
      49   37557   37560      47   37554   37557      49   37554   37560      49
   37569   37572      47   37566   37569      49   37566   37572      49   37581
   37584      47   37578   37581      49   37578   37584      49   37593   37596
      47   37590   37593      49   37590   37596      49   37605   37608      47
   37602   37605      49   37602   37608      49   37617   37620      47   37614
   37617      49   37614   37620      49   37629   37632      47   37626   37629
      49   37626   37632      49   37641   37644      47   37638   37641      49
   37638   37644      49   37653   37656      47   37650   37653      49   37650
   37656      49   37665   37668      47   37662   37665      49   37662   37668
      49   37677   37680      47   37674   37677      49   37674   37680      49
   37689   37692      47   37686   37689      49   37686   37692      49   37701
   37704      47   37698   37701      49   37698   37704      49   37713   37716
      47   37710   37713      49   37710   37716      49   37725   37728      47
   37722   37725      49   37722   37728      49   37737   37740      47   37734
   37737      49   37734   37740      49   37749   37752      47   37746   37749
      49   37746   37752      49   37761   37764      47   37758   37761      49
   37758   37764      49   37773   37776      47   37770   37773      49   37770
   37776      49   37785   37788      47   37782   37785      49   37782   37788
      49   37797   37800      47   37794   37797      49   37794   37800      49
   37809   37812      47   37806   37809      49   37806   37812      49   37821
   37824      47   37818   37821      49   37818   37824      49   37833   37836
      47   37830   37833      49   37830   37836      49   37845   37848      47
   37842   37845      49   37842   37848      49   37857   37860      47   37854
   37857      49   37854   37860      49   37869   37872      47   37866   37869
      49   37866   37872      49   37881   37884      47   37878   37881      49
   37878   37884      49   37893   37896      47   37890   37893      49   37890
   37896      49   37905   37908      47   37902   37905      49   37902   37908
      49   37917   37920      47   37914   37917      49   37914   37920      49
   37929   37932      47   37926   37929      49   37926   37932      49   37941
   37944      47   37938   37941      49   37938   37944      49   37953   37956
      47   37950   37953      49   37950   37956      49   37965   37968      47
   37962   37965      49   37962   37968      49   37977   37980      47   37974
   37977      49   37974   37980      49   37989   37992      47   37986   37989
      49   37986   37992      49   38001   38004      47   37998   38001      49
   37998   38004      49   38013   38016      47   38010   38013      49   38010
   38016      49   38025   38028      47   38022   38025      49   38022   38028
      49   38037   38040      47   38034   38037      49   38034   38040      49
   38049   38052      47   38046   38049      49   38046   38052      49   38061
   38064      47   38058   38061      49   38058   38064      49   38073   38076
      47   38070   38073      49   38070   38076      49   38085   38088      47
   38082   38085      49   38082   38088      49   38097   38100      47   38094
   38097      49   38094   38100      49   38109   38112      47   38106   38109
      49   38106   38112      49   38121   38124      47   38118   38121      49
   38118   38124      49   38133   38136      47   38130   38133      49   38130
   38136      49   38145   38148      47   38142   38145      49   38142   38148
      49   38157   38160      47   38154   38157      49   38154   38160      49
   38169   38172      47   38166   38169      49   38166   38172      49   38181
   38184      47   38178   38181      49   38178   38184      49   38193   38196
      47   38190   38193      49   38190   38196      49   38205   38208      47
   38202   38205      49   38202   38208      49   38217   38220      47   38214
   38217      49   38214   38220      49   38229   38232      47   38226   38229
      49   38226   38232      49   38241   38244      47   38238   38241      49
   38238   38244      49   38253   38256      47   38250   38253      49   38250
   38256      49   38265   38268      47   38262   38265      49   38262   38268
      49   38277   38280      47   38274   38277      49   38274   38280      49
   38289   38292      47   38286   38289      49   38286   38292      49   38301
   38304      47   38298   38301      49   38298   38304      49   38313   38316
      47   38310   38313      49   38310   38316      49   38325   38328      47
   38322   38325      49   38322   38328      49   38337   38340      47   38334
   38337      49   38334   38340      49   38349   38352      47   38346   38349
      49   38346   38352      49   38361   38364      47   38358   38361      49
   38358   38364      49   38373   38376      47   38370   38373      49   38370
   38376      49   38385   38388      47   38382   38385      49   38382   38388
      49   38397   38400      47   38394   38397      49   38394   38400      49
   38409   38412      47   38406   38409      49   38406   38412      49   38421
   38424      47   38418   38421      49   38418   38424      49   38433   38436
      47   38430   38433      49   38430   38436      49   38445   38448      47
   38442   38445      49   38442   38448      49   38457   38460      47   38454
   38457      49   38454   38460      49   38469   38472      47   38466   38469
      49   38466   38472      49   38481   38484      47   38478   38481      49
   38478   38484      49   38493   38496      47   38490   38493      49   38490
   38496      49   38505   38508      47   38502   38505      49   38502   38508
      49   38517   38520      47   38514   38517      49   38514   38520      49
   38529   38532      47   38526   38529      49   38526   38532      49   38541
   38544      47   38538   38541      49   38538   38544      49   38553   38556
      47   38550   38553      49   38550   38556      49   38565   38568      47
   38562   38565      49   38562   38568      49   38577   38580      47   38574
   38577      49   38574   38580      49   38589   38592      47   38586   38589
      49   38586   38592      49   38601   38604      47   38598   38601      49
   38598   38604      49   38613   38616      47   38610   38613      49   38610
   38616      49   38625   38628      47   38622   38625      49   38622   38628
      49   38637   38640      47   38634   38637      49   38634   38640      49
   38649   38652      47   38646   38649      49   38646   38652      49   38661
   38664      47   38658   38661      49   38658   38664      49   38673   38676
      47   38670   38673      49   38670   38676      49   38685   38688      47
   38682   38685      49   38682   38688      49   38697   38700      47   38694
   38697      49   38694   38700      49   38709   38712      47   38706   38709
      49   38706   38712      49   38721   38724      47   38718   38721      49
   38718   38724      49   38733   38736      47   38730   38733      49   38730
   38736      49   38745   38748      47   38742   38745      49   38742   38748
      49   38757   38760      47   38754   38757      49   38754   38760      49
   38769   38772      47   38766   38769      49   38766   38772      49   38781
   38784      47   38778   38781      49   38778   38784      49   38793   38796
      47   38790   38793      49   38790   38796      49   38805   38808      47
   38802   38805      49   38802   38808      49   38817   38820      47   38814
   38817      49   38814   38820      49   38829   38832      47   38826   38829
      49   38826   38832      49   38841   38844      47   38838   38841      49
   38838   38844      49   38853   38856      47   38850   38853      49   38850
   38856      49   38865   38868      47   38862   38865      49   38862   38868
      49   38877   38880      47   38874   38877      49   38874   38880      49
   38889   38892      47   38886   38889      49   38886   38892      49   38901
   38904      47   38898   38901      49   38898   38904      49   38913   38916
      47   38910   38913      49   38910   38916      49   38925   38928      47
   38922   38925      49   38922   38928      49   38937   38940      47   38934
   38937      49   38934   38940      49   38949   38952      47   38946   38949
      49   38946   38952      49   38961   38964      47   38958   38961      49
   38958   38964      49   38973   38976      47   38970   38973      49   38970
   38976      49   38985   38988      47   38982   38985      49   38982   38988
      49   38997   39000      47   38994   38997      49   38994   39000      49
   39009   39012      47   39006   39009      49   39006   39012      49   39021
   39024      47   39018   39021      49   39018   39024      49   39033   39036
      47   39030   39033      49   39030   39036      49   39045   39048      47
   39042   39045      49   39042   39048      49   39057   39060      47   39054
   39057      49   39054   39060      49   39069   39072      47   39066   39069
      49   39066   39072      49   39081   39084      47   39078   39081      49
   39078   39084      49   39093   39096      47   39090   39093      49   39090
   39096      49   39105   39108      47   39102   39105      49   39102   39108
      49   39117   39120      47   39114   39117      49   39114   39120      49
   39129   39132      47   39126   39129      49   39126   39132      49   39141
   39144      47   39138   39141      49   39138   39144      49   39153   39156
      47   39150   39153      49   39150   39156      49   39165   39168      47
   39162   39165      49   39162   39168      49   39177   39180      47   39174
   39177      49   39174   39180      49   39189   39192      47   39186   39189
      49   39186   39192      49   39201   39204      47   39198   39201      49
   39198   39204      49   39213   39216      47   39210   39213      49   39210
   39216      49   39225   39228      47   39222   39225      49   39222   39228
      49   39237   39240      47   39234   39237      49   39234   39240      49
   39249   39252      47   39246   39249      49   39246   39252      49   39261
   39264      47   39258   39261      49   39258   39264      49   39273   39276
      47   39270   39273      49   39270   39276      49   39285   39288      47
   39282   39285      49   39282   39288      49   39297   39300      47   39294
   39297      49   39294   39300      49   39309   39312      47   39306   39309
      49   39306   39312      49   39321   39324      47   39318   39321      49
   39318   39324      49   39333   39336      47   39330   39333      49   39330
   39336      49   39345   39348      47   39342   39345      49   39342   39348
      49   39357   39360      47   39354   39357      49   39354   39360      49
   39369   39372      47   39366   39369      49   39366   39372      49   39381
   39384      47   39378   39381      49   39378   39384      49   39393   39396
      47   39390   39393      49   39390   39396      49   39405   39408      47
   39402   39405      49   39402   39408      49   39417   39420      47   39414
   39417      49   39414   39420      49   39429   39432      47   39426   39429
      49   39426   39432      49   39441   39444      47   39438   39441      49
   39438   39444      49   39453   39456      47   39450   39453      49   39450
   39456      49   39465   39468      47   39462   39465      49   39462   39468
      49   39477   39480      47   39474   39477      49   39474   39480      49
   39489   39492      47   39486   39489      49   39486   39492      49   39501
   39504      47   39498   39501      49   39498   39504      49   39513   39516
      47   39510   39513      49   39510   39516      49   39525   39528      47
   39522   39525      49   39522   39528      49   39537   39540      47   39534
   39537      49   39534   39540      49   39549   39552      47   39546   39549
      49   39546   39552      49   39561   39564      47   39558   39561      49
   39558   39564      49   39573   39576      47   39570   39573      49   39570
   39576      49   39585   39588      47   39582   39585      49   39582   39588
      49   39597   39600      47   39594   39597      49   39594   39600      49
   39609   39612      47   39606   39609      49   39606   39612      49   39621
   39624      47   39618   39621      49   39618   39624      49   39633   39636
      47   39630   39633      49   39630   39636      49   39645   39648      47
   39642   39645      49   39642   39648      49   39657   39660      47   39654
   39657      49   39654   39660      49   39669   39672      47   39666   39669
      49   39666   39672      49   39681   39684      47   39678   39681      49
   39678   39684      49   39693   39696      47   39690   39693      49   39690
   39696      49   39705   39708      47   39702   39705      49   39702   39708
      49   39717   39720      47   39714   39717      49   39714   39720      49
   39729   39732      47   39726   39729      49   39726   39732      49   39741
   39744      47   39738   39741      49   39738   39744      49   39753   39756
      47   39750   39753      49   39750   39756      49   39765   39768      47
   39762   39765      49   39762   39768      49   39777   39780      47   39774
   39777      49   39774   39780      49   39789   39792      47   39786   39789
      49   39786   39792      49   39801   39804      47   39798   39801      49
   39798   39804      49   39813   39816      47   39810   39813      49   39810
   39816      49   39825   39828      47   39822   39825      49   39822   39828
      49   39837   39840      47   39834   39837      49   39834   39840      49
   39849   39852      47   39846   39849      49   39846   39852      49   39861
   39864      47   39858   39861      49   39858   39864      49   39873   39876
      47   39870   39873      49   39870   39876      49   39885   39888      47
   39882   39885      49   39882   39888      49   39897   39900      47   39894
   39897      49   39894   39900      49   39909   39912      47   39906   39909
      49   39906   39912      49   39921   39924      47   39918   39921      49
   39918   39924      49   39933   39936      47   39930   39933      49   39930
   39936      49   39945   39948      47   39942   39945      49   39942   39948
      49   39957   39960      47   39954   39957      49   39954   39960      49
   39969   39972      47   39966   39969      49   39966   39972      49   39981
   39984      47   39978   39981      49   39978   39984      49   39993   39996
      47   39990   39993      49   39990   39996      49   40005   40008      47
   40002   40005      49   40002   40008      49   40017   40020      47   40014
   40017      49   40014   40020      49   40029   40032      47   40026   40029
      49   40026   40032      49   40041   40044      47   40038   40041      49
   40038   40044      49   40053   40056      47   40050   40053      49   40050
   40056      49   40065   40068      47   40062   40065      49   40062   40068
      49   40077   40080      47   40074   40077      49   40074   40080      49
   40089   40092      47   40086   40089      49   40086   40092      49   40101
   40104      47   40098   40101      49   40098   40104      49   40113   40116
      47   40110   40113      49   40110   40116      49   40125   40128      47
   40122   40125      49   40122   40128      49   40137   40140      47   40134
   40137      49   40134   40140      49   40149   40152      47   40146   40149
      49   40146   40152      49   40161   40164      47   40158   40161      49
   40158   40164      49   40173   40176      47   40170   40173      49   40170
   40176      49   40185   40188      47   40182   40185      49   40182   40188
      49   40197   40200      47   40194   40197      49   40194   40200      49
   40209   40212      47   40206   40209      49   40206   40212      49   40221
   40224      47   40218   40221      49   40218   40224      49   40233   40236
      47   40230   40233      49   40230   40236      49   40245   40248      47
   40242   40245      49   40242   40248      49   40257   40260      47   40254
   40257      49   40254   40260      49   40269   40272      47   40266   40269
      49   40266   40272      49   40281   40284      47   40278   40281      49
   40278   40284      49   40293   40296      47   40290   40293      49   40290
   40296      49   40305   40308      47   40302   40305      49   40302   40308
      49   40317   40320      47   40314   40317      49   40314   40320      49
   40329   40332      47   40326   40329      49   40326   40332      49   40341
   40344      47   40338   40341      49   40338   40344      49   40353   40356
      47   40350   40353      49   40350   40356      49   40365   40368      47
   40362   40365      49   40362   40368      49   40377   40380      47   40374
   40377      49   40374   40380      49   40389   40392      47   40386   40389
      49   40386   40392      49   40401   40404      47   40398   40401      49
   40398   40404      49   40413   40416      47   40410   40413      49   40410
   40416      49   40425   40428      47   40422   40425      49   40422   40428
      49   40437   40440      47   40434   40437      49   40434   40440      49
   40449   40452      47   40446   40449      49   40446   40452      49   40461
   40464      47   40458   40461      49   40458   40464      49   40473   40476
      47   40470   40473      49   40470   40476      49   40485   40488      47
   40482   40485      49   40482   40488      49   40497   40500      47   40494
   40497      49   40494   40500      49   40509   40512      47   40506   40509
      49   40506   40512      49   40521   40524      47   40518   40521      49
   40518   40524      49   40533   40536      47   40530   40533      49   40530
   40536      49   40545   40548      47   40542   40545      49   40542   40548
      49   40557   40560      47   40554   40557      49   40554   40560      49
   40569   40572      47   40566   40569      49   40566   40572      49   40581
   40584      47   40578   40581      49   40578   40584      49   40593   40596
      47   40590   40593      49   40590   40596      49   40605   40608      47
   40602   40605      49   40602   40608      49   40617   40620      47   40614
   40617      49   40614   40620      49   40629   40632      47   40626   40629
      49   40626   40632      49   40641   40644      47   40638   40641      49
   40638   40644      49   40653   40656      47   40650   40653      49   40650
   40656      49   40665   40668      47   40662   40665      49   40662   40668
      49   40677   40680      47   40674   40677      49   40674   40680      49
   40689   40692      47   40686   40689      49   40686   40692      49   40701
   40704      47   40698   40701      49   40698   40704      49   40713   40716
      47   40710   40713      49   40710   40716      49   40725   40728      47
   40722   40725      49   40722   40728      49   40737   40740      47   40734
   40737      49   40734   40740      49   40749   40752      47   40746   40749
      49   40746   40752      49   40761   40764      47   40758   40761      49
   40758   40764      49   40773   40776      47   40770   40773      49   40770
   40776      49   40785   40788      47   40782   40785      49   40782   40788
      49   40797   40800      47   40794   40797      49   40794   40800      49
   40809   40812      47   40806   40809      49   40806   40812      49   40821
   40824      47   40818   40821      49   40818   40824      49   40833   40836
      47   40830   40833      49   40830   40836      49   40845   40848      47
   40842   40845      49   40842   40848      49   40857   40860      47   40854
   40857      49   40854   40860      49   40869   40872      47   40866   40869
      49   40866   40872      49   40881   40884      47   40878   40881      49
   40878   40884      49   40893   40896      47   40890   40893      49   40890
   40896      49   40905   40908      47   40902   40905      49   40902   40908
      49   40917   40920      47   40914   40917      49   40914   40920      49
   40929   40932      47   40926   40929      49   40926   40932      49   40941
   40944      47   40938   40941      49   40938   40944      49   40953   40956
      47   40950   40953      49   40950   40956      49   40965   40968      47
   40962   40965      49   40962   40968      49   40977   40980      47   40974
   40977      49   40974   40980      49   40989   40992      47   40986   40989
      49   40986   40992      49   41001   41004      47   40998   41001      49
   40998   41004      49   41013   41016      47   41010   41013      49   41010
   41016      49   41025   41028      47   41022   41025      49   41022   41028
      49   41037   41040      47   41034   41037      49   41034   41040      49
   41049   41052      47   41046   41049      49   41046   41052      49   41061
   41064      47   41058   41061      49   41058   41064      49   41073   41076
      47   41070   41073      49   41070   41076      49   41085   41088      47
   41082   41085      49   41082   41088      49   41097   41100      47   41094
   41097      49   41094   41100      49   41109   41112      47   41106   41109
      49   41106   41112      49   41121   41124      47   41118   41121      49
   41118   41124      49   41133   41136      47   41130   41133      49   41130
   41136      49   41145   41148      47   41142   41145      49   41142   41148
      49   41157   41160      47   41154   41157      49   41154   41160      49
   41169   41172      47   41166   41169      49   41166   41172      49   41181
   41184      47   41178   41181      49   41178   41184      49   41193   41196
      47   41190   41193      49   41190   41196      49   41205   41208      47
   41202   41205      49   41202   41208      49   41217   41220      47   41214
   41217      49   41214   41220      49   41229   41232      47   41226   41229
      49   41226   41232      49   41241   41244      47   41238   41241      49
   41238   41244      49   41253   41256      47   41250   41253      49   41250
   41256      49   41265   41268      47   41262   41265      49   41262   41268
      49   41277   41280      47   41274   41277      49   41274   41280      49
   41289   41292      47   41286   41289      49   41286   41292      49   41301
   41304      47   41298   41301      49   41298   41304      49   41313   41316
      47   41310   41313      49   41310   41316      49   41325   41328      47
   41322   41325      49   41322   41328      49   41337   41340      47   41334
   41337      49   41334   41340      49   41349   41352      47   41346   41349
      49   41346   41352      49   41361   41364      47   41358   41361      49
   41358   41364      49   41373   41376      47   41370   41373      49   41370
   41376      49   41385   41388      47   41382   41385      49   41382   41388
      49   41397   41400      47   41394   41397      49   41394   41400      49
   41409   41412      47   41406   41409      49   41406   41412      49   41421
   41424      47   41418   41421      49   41418   41424      49   41433   41436
      47   41430   41433      49   41430   41436      49   41445   41448      47
   41442   41445      49   41442   41448      49   41457   41460      47   41454
   41457      49   41454   41460      49   41469   41472      47   41466   41469
      49   41466   41472      49   41481   41484      47   41478   41481      49
   41478   41484      49   41493   41496      47   41490   41493      49   41490
   41496      49   41505   41508      47   41502   41505      49   41502   41508
      49   41517   41520      47   41514   41517      49   41514   41520      49
   41529   41532      47   41526   41529      49   41526   41532      49   41541
   41544      47   41538   41541      49   41538   41544      49   41553   41556
      47   41550   41553      49   41550   41556      49   41565   41568      47
   41562   41565      49   41562   41568      49   41577   41580      47   41574
   41577      49   41574   41580      49   41589   41592      47   41586   41589
      49   41586   41592      49   41601   41604      47   41598   41601      49
   41598   41604      49   41613   41616      47   41610   41613      49   41610
   41616      49   41625   41628      47   41622   41625      49   41622   41628
      49   41637   41640      47   41634   41637      49   41634   41640      49
   41649   41652      47   41646   41649      49   41646   41652      49   41661
   41664      47   41658   41661      49   41658   41664      49   41673   41676
      47   41670   41673      49   41670   41676      49   41685   41688      47
   41682   41685      49   41682   41688      49   41697   41700      47   41694
   41697      49   41694   41700      49   41709   41712      47   41706   41709
      49   41706   41712      49   41721   41724      47   41718   41721      49
   41718   41724      49   41733   41736      47   41730   41733      49   41730
   41736      49   41745   41748      47   41742   41745      49   41742   41748
      49   41757   41760      47   41754   41757      49   41754   41760      49
   41769   41772      47   41766   41769      49   41766   41772      49   41781
   41784      47   41778   41781      49   41778   41784      49   41793   41796
      47   41790   41793      49   41790   41796      49   41805   41808      47
   41802   41805      49   41802   41808      49   41817   41820      47   41814
   41817      49   41814   41820      49   41829   41832      47   41826   41829
      49   41826   41832      49   41841   41844      47   41838   41841      49
   41838   41844      49   41853   41856      47   41850   41853      49   41850
   41856      49   41865   41868      47   41862   41865      49   41862   41868
      49   41877   41880      47   41874   41877      49   41874   41880      49
   41889   41892      47   41886   41889      49   41886   41892      49   41901
   41904      47   41898   41901      49   41898   41904      49   41913   41916
      47   41910   41913      49   41910   41916      49   41925   41928      47
   41922   41925      49   41922   41928      49   41937   41940      47   41934
   41937      49   41934   41940      49   41949   41952      47   41946   41949
      49   41946   41952      49   41961   41964      47   41958   41961      49
   41958   41964      49   41973   41976      47   41970   41973      49   41970
   41976      49   41985   41988      47   41982   41985      49   41982   41988
      49   41997   42000      47   41994   41997      49   41994   42000      49
   42009   42012      47   42006   42009      49   42006   42012      49   42021
   42024      47   42018   42021      49   42018   42024      49   42033   42036
      47   42030   42033      49   42030   42036      49   42045   42048      47
   42042   42045      49   42042   42048      49   42057   42060      47   42054
   42057      49   42054   42060      49   42069   42072      47   42066   42069
      49   42066   42072      49   42081   42084      47   42078   42081      49
   42078   42084      49   42093   42096      47   42090   42093      49   42090
   42096      49   42105   42108      47   42102   42105      49   42102   42108
      49   42117   42120      47   42114   42117      49   42114   42120      49
   42129   42132      47   42126   42129      49   42126   42132      49   42141
   42144      47   42138   42141      49   42138   42144      49   42153   42156
      47   42150   42153      49   42150   42156      49   42165   42168      47
   42162   42165      49   42162   42168      49   42177   42180      47   42174
   42177      49   42174   42180      49   42189   42192      47   42186   42189
      49   42186   42192      49   42201   42204      47   42198   42201      49
   42198   42204      49   42213   42216      47   42210   42213      49   42210
   42216      49   42225   42228      47   42222   42225      49   42222   42228
      49   42237   42240      47   42234   42237      49   42234   42240      49
   42249   42252      47   42246   42249      49   42246   42252      49   42261
   42264      47   42258   42261      49   42258   42264      49   42273   42276
      47   42270   42273      49   42270   42276      49   42285   42288      47
   42282   42285      49   42282   42288      49   42297   42300      47   42294
   42297      49   42294   42300      49   42309   42312      47   42306   42309
      49   42306   42312      49   42321   42324      47   42318   42321      49
   42318   42324      49   42333   42336      47   42330   42333      49   42330
   42336      49   42345   42348      47   42342   42345      49   42342   42348
      49   42357   42360      47   42354   42357      49   42354   42360      49
   42369   42372      47   42366   42369      49   42366   42372      49   42381
   42384      47   42378   42381      49   42378   42384      49   42393   42396
      47   42390   42393      49   42390   42396      49   42405   42408      47
   42402   42405      49   42402   42408      49   42417   42420      47   42414
   42417      49   42414   42420      49   42429   42432      47   42426   42429
      49   42426   42432      49   42441   42444      47   42438   42441      49
   42438   42444      49   42453   42456      47   42450   42453      49   42450
   42456      49   42465   42468      47   42462   42465      49   42462   42468
      49   42477   42480      47   42474   42477      49   42474   42480      49
   42489   42492      47   42486   42489      49   42486   42492      49   42501
   42504      47   42498   42501      49   42498   42504      49   42513   42516
      47   42510   42513      49   42510   42516      49   42525   42528      47
   42522   42525      49   42522   42528      49   42537   42540      47   42534
   42537      49   42534   42540      49   42549   42552      47   42546   42549
      49   42546   42552      49   42561   42564      47   42558   42561      49
   42558   42564      49   42573   42576      47   42570   42573      49   42570
   42576      49   42585   42588      47   42582   42585      49   42582   42588
      49   42597   42600      47   42594   42597      49   42594   42600      49
   42609   42612      47   42606   42609      49   42606   42612      49   42621
   42624      47   42618   42621      49   42618   42624      49   42633   42636
      47   42630   42633      49   42630   42636      49   42645   42648      47
   42642   42645      49   42642   42648      49   42657   42660      47   42654
   42657      49   42654   42660      49   42669   42672      47   42666   42669
      49   42666   42672      49   42681   42684      47   42678   42681      49
   42678   42684      49   42693   42696      47   42690   42693      49   42690
   42696      49   42705   42708      47   42702   42705      49   42702   42708
      49   42717   42720      47   42714   42717      49   42714   42720      49
   42729   42732      47   42726   42729      49   42726   42732      49   42741
   42744      47   42738   42741      49   42738   42744      49   42753   42756
      47   42750   42753      49   42750   42756      49   42765   42768      47
   42762   42765      49   42762   42768      49   42777   42780      47   42774
   42777      49   42774   42780      49   42789   42792      47   42786   42789
      49   42786   42792      49   42801   42804      47   42798   42801      49
   42798   42804      49   42813   42816      47   42810   42813      49   42810
   42816      49   42825   42828      47   42822   42825      49   42822   42828
      49   42837   42840      47   42834   42837      49   42834   42840      49
   42849   42852      47   42846   42849      49   42846   42852      49   42861
   42864      47   42858   42861      49   42858   42864      49   42873   42876
      47   42870   42873      49   42870   42876      49   42885   42888      47
   42882   42885      49   42882   42888      49   42897   42900      47   42894
   42897      49   42894   42900      49   42909   42912      47   42906   42909
      49   42906   42912      49   42921   42924      47   42918   42921      49
   42918   42924      49   42933   42936      47   42930   42933      49   42930
   42936      49   42945   42948      47   42942   42945      49   42942   42948
      49   42957   42960      47   42954   42957      49   42954   42960      49
   42969   42972      47   42966   42969      49   42966   42972      49   42981
   42984      47   42978   42981      49   42978   42984      49   42993   42996
      47   42990   42993      49   42990   42996      49   43005   43008      47
   43002   43005      49   43002   43008      49   43017   43020      47   43014
   43017      49   43014   43020      49   43029   43032      47   43026   43029
      49   43026   43032      49   43041   43044      47   43038   43041      49
   43038   43044      49   43053   43056      47   43050   43053      49   43050
   43056      49   43065   43068      47   43062   43065      49   43062   43068
      49   43077   43080      47   43074   43077      49   43074   43080      49
   43089   43092      47   43086   43089      49   43086   43092      49   43101
   43104      47   43098   43101      49   43098   43104      49   43113   43116
      47   43110   43113      49   43110   43116      49   43125   43128      47
   43122   43125      49   43122   43128      49   43137   43140      47   43134
   43137      49   43134   43140      49   43149   43152      47   43146   43149
      49   43146   43152      49   43161   43164      47   43158   43161      49
   43158   43164      49   43173   43176      47   43170   43173      49   43170
   43176      49   43185   43188      47   43182   43185      49   43182   43188
      49   43197   43200      47   43194   43197      49   43194   43200      49
   43209   43212      47   43206   43209      49   43206   43212      49   43221
   43224      47   43218   43221      49   43218   43224      49   43233   43236
      47   43230   43233      49   43230   43236      49   43245   43248      47
   43242   43245      49   43242   43248      49   43257   43260      47   43254
   43257      49   43254   43260      49   43269   43272      47   43266   43269
      49   43266   43272      49   43281   43284      47   43278   43281      49
   43278   43284      49   43293   43296      47   43290   43293      49   43290
   43296      49   43305   43308      47   43302   43305      49   43302   43308
      49   43317   43320      47   43314   43317      49   43314   43320      49
   43329   43332      47   43326   43329      49   43326   43332      49   43341
   43344      47   43338   43341      49   43338   43344      49   43353   43356
      47   43350   43353      49   43350   43356      49   43365   43368      47
   43362   43365      49   43362   43368      49   43377   43380      47   43374
   43377      49   43374   43380      49   43389   43392      47   43386   43389
      49   43386   43392      49   43401   43404      47   43398   43401      49
   43398   43404      49   43413   43416      47   43410   43413      49   43410
   43416      49   43425   43428      47   43422   43425      49   43422   43428
      49   43437   43440      47   43434   43437      49   43434   43440      49
   43449   43452      47   43446   43449      49   43446   43452      49   43461
   43464      47   43458   43461      49   43458   43464      49   43473   43476
      47   43470   43473      49   43470   43476      49   43485   43488      47
   43482   43485      49   43482   43488      49   43497   43500      47   43494
   43497      49   43494   43500      49   43509   43512      47   43506   43509
      49   43506   43512      49   43521   43524      47   43518   43521      49
   43518   43524      49   43533   43536      47   43530   43533      49   43530
   43536      49   43545   43548      47   43542   43545      49   43542   43548
      49   43557   43560      47   43554   43557      49   43554   43560      49
   43569   43572      47   43566   43569      49   43566   43572      49   43581
   43584      47   43578   43581      49   43578   43584      49   43593   43596
      47   43590   43593      49   43590   43596      49   43605   43608      47
   43602   43605      49   43602   43608      49   43617   43620      47   43614
   43617      49   43614   43620      49   43629   43632      47   43626   43629
      49   43626   43632      49   43641   43644      47   43638   43641      49
   43638   43644      49   43653   43656      47   43650   43653      49   43650
   43656      49   43665   43668      47   43662   43665      49   43662   43668
      49   43677   43680      47   43674   43677      49   43674   43680      49
   43689   43692      47   43686   43689      49   43686   43692      49   43701
   43704      47   43698   43701      49   43698   43704      49   43713   43716
      47   43710   43713      49   43710   43716      49   43725   43728      47
   43722   43725      49   43722   43728      49   43737   43740      47   43734
   43737      49   43734   43740      49   43749   43752      47   43746   43749
      49   43746   43752      49   43761   43764      47   43758   43761      49
   43758   43764      49   43773   43776      47   43770   43773      49   43770
   43776      49   43785   43788      47   43782   43785      49   43782   43788
      49   43797   43800      47   43794   43797      49   43794   43800      49
   43809   43812      47   43806   43809      49   43806   43812      49   43821
   43824      47   43818   43821      49   43818   43824      49   43833   43836
      47   43830   43833      49   43830   43836      49   43845   43848      47
   43842   43845      49   43842   43848      49   43857   43860      47   43854
   43857      49   43854   43860      49   43869   43872      47   43866   43869
      49   43866   43872      49   43881   43884      47   43878   43881      49
   43878   43884      49   43893   43896      47   43890   43893      49   43890
   43896      49   43905   43908      47   43902   43905      49   43902   43908
      49   43917   43920      47   43914   43917      49   43914   43920      49
   43929   43932      47   43926   43929      49   43926   43932      49   43941
   43944      47   43938   43941      49   43938   43944      49   43953   43956
      47   43950   43953      49   43950   43956      49   43965   43968      47
   43962   43965      49   43962   43968      49   43977   43980      47   43974
   43977      49   43974   43980      49   43989   43992      47   43986   43989
      49   43986   43992      49   44001   44004      47   43998   44001      49
   43998   44004      49   44013   44016      47   44010   44013      49   44010
   44016      49   44025   44028      47   44022   44025      49   44022   44028
      49   44037   44040      47   44034   44037      49   44034   44040      49
   44049   44052      47   44046   44049      49   44046   44052      49   44061
   44064      47   44058   44061      49   44058   44064      49   44073   44076
      47   44070   44073      49   44070   44076      49   44085   44088      47
   44082   44085      49   44082   44088      49   44097   44100      47   44094
   44097      49   44094   44100      49   44109   44112      47   44106   44109
      49   44106   44112      49   44121   44124      47   44118   44121      49
   44118   44124      49   44133   44136      47   44130   44133      49   44130
   44136      49   44145   44148      47   44142   44145      49   44142   44148
      49   44157   44160      47   44154   44157      49   44154   44160      49
   44169   44172      47   44166   44169      49   44166   44172      49   44181
   44184      47   44178   44181      49   44178   44184      49   44193   44196
      47   44190   44193      49   44190   44196      49   44205   44208      47
   44202   44205      49   44202   44208      49   44217   44220      47   44214
   44217      49   44214   44220      49   44229   44232      47   44226   44229
      49   44226   44232      49   44241   44244      47   44238   44241      49
   44238   44244      49   44253   44256      47   44250   44253      49   44250
   44256      49   44265   44268      47   44262   44265      49   44262   44268
      49   44277   44280      47   44274   44277      49   44274   44280      49
   44289   44292      47   44286   44289      49   44286   44292      49   44301
   44304      47   44298   44301      49   44298   44304      49   44313   44316
      47   44310   44313      49   44310   44316      49   44325   44328      47
   44322   44325      49   44322   44328      49   44337   44340      47   44334
   44337      49   44334   44340      49   44349   44352      47   44346   44349
      49   44346   44352      49   44361   44364      47   44358   44361      49
   44358   44364      49   44373   44376      47   44370   44373      49   44370
   44376      49   44385   44388      47   44382   44385      49   44382   44388
      49   44397   44400      47   44394   44397      49   44394   44400      49
   44409   44412      47   44406   44409      49   44406   44412      49   44421
   44424      47   44418   44421      49   44418   44424      49   44433   44436
      47   44430   44433      49   44430   44436      49   44445   44448      47
   44442   44445      49   44442   44448      49   44457   44460      47   44454
   44457      49   44454   44460      49   44469   44472      47   44466   44469
      49   44466   44472      49   44481   44484      47   44478   44481      49
   44478   44484      49   44493   44496      47   44490   44493      49   44490
   44496      49   44505   44508      47   44502   44505      49   44502   44508
      49   44517   44520      47   44514   44517      49   44514   44520      49
   44529   44532      47   44526   44529      49   44526   44532      49   44541
   44544      47   44538   44541      49   44538   44544      49   44553   44556
      47   44550   44553      49   44550   44556      49   44565   44568      47
   44562   44565      49   44562   44568      49   44577   44580      47   44574
   44577      49   44574   44580      49   44589   44592      47   44586   44589
      49   44586   44592      49   44601   44604      47   44598   44601      49
   44598   44604      49   44613   44616      47   44610   44613      49   44610
   44616      49   44625   44628      47   44622   44625      49   44622   44628
      49   44637   44640      47   44634   44637      49   44634   44640      49
   44649   44652      47   44646   44649      49   44646   44652      49   44661
   44664      47   44658   44661      49   44658   44664      49   44673   44676
      47   44670   44673      49   44670   44676      49   44685   44688      47
   44682   44685      49   44682   44688      49   44697   44700      47   44694
   44697      49   44694   44700      49   44709   44712      47   44706   44709
      49   44706   44712      49   44721   44724      47   44718   44721      49
   44718   44724      49   44733   44736      47   44730   44733      49   44730
   44736      49   44745   44748      47   44742   44745      49   44742   44748
      49   44757   44760      47   44754   44757      49   44754   44760      49
   44769   44772      47   44766   44769      49   44766   44772      49   44781
   44784      47   44778   44781      49   44778   44784      49   44793   44796
      47   44790   44793      49   44790   44796      49   44805   44808      47
   44802   44805      49   44802   44808      49   44817   44820      47   44814
   44817      49   44814   44820      49   44829   44832      47   44826   44829
      49   44826   44832      49   44841   44844      47   44838   44841      49
   44838   44844      49   44853   44856      47   44850   44853      49   44850
   44856      49   44865   44868      47   44862   44865      49   44862   44868
      49   44877   44880      47   44874   44877      49   44874   44880      49
   44889   44892      47   44886   44889      49   44886   44892      49   44901
   44904      47   44898   44901      49   44898   44904      49   44913   44916
      47   44910   44913      49   44910   44916      49   44925   44928      47
   44922   44925      49   44922   44928      49   44937   44940      47   44934
   44937      49   44934   44940      49   44949   44952      47   44946   44949
      49   44946   44952      49   44961   44964      47   44958   44961      49
   44958   44964      49   44973   44976      47   44970   44973      49   44970
   44976      49   44985   44988      47   44982   44985      49   44982   44988
      49   44997   45000      47   44994   44997      49   44994   45000      49
   45009   45012      47   45006   45009      49   45006   45012      49   45021
   45024      47   45018   45021      49   45018   45024      49   45033   45036
      47   45030   45033      49   45030   45036      49   45045   45048      47
   45042   45045      49   45042   45048      49   45057   45060      47   45054
   45057      49   45054   45060      49   45069   45072      47   45066   45069
      49   45066   45072      49   45081   45084      47   45078   45081      49
   45078   45084      49   45093   45096      47   45090   45093      49   45090
   45096      49   45105   45108      47   45102   45105      49   45102   45108
      49   45117   45120      47   45114   45117      49   45114   45120      49
   45129   45132      47   45126   45129      49   45126   45132      49   45141
   45144      47   45138   45141      49   45138   45144      49   45153   45156
      47   45150   45153      49   45150   45156      49   45165   45168      47
   45162   45165      49   45162   45168      49   45177   45180      47   45174
   45177      49   45174   45180      49   45189   45192      47   45186   45189
      49   45186   45192      49   45201   45204      47   45198   45201      49
   45198   45204      49   45213   45216      47   45210   45213      49   45210
   45216      49   45225   45228      47   45222   45225      49   45222   45228
      49   45237   45240      47   45234   45237      49   45234   45240      49
   45249   45252      47   45246   45249      49   45246   45252      49   45261
   45264      47   45258   45261      49   45258   45264      49   45273   45276
      47   45270   45273      49   45270   45276      49   45285   45288      47
   45282   45285      49   45282   45288      49   45297   45300      47   45294
   45297      49   45294   45300      49   45309   45312      47   45306   45309
      49   45306   45312      49   45321   45324      47   45318   45321      49
   45318   45324      49   45333   45336      47   45330   45333      49   45330
   45336      49   45345   45348      47   45342   45345      49   45342   45348
      49   45357   45360      47   45354   45357      49   45354   45360      49
   45369   45372      47   45366   45369      49   45366   45372      49   45381
   45384      47   45378   45381      49   45378   45384      49   45393   45396
      47   45390   45393      49   45390   45396      49   45405   45408      47
   45402   45405      49   45402   45408      49   45417   45420      47   45414
   45417      49   45414   45420      49   45429   45432      47   45426   45429
      49   45426   45432      49   45441   45444      47   45438   45441      49
   45438   45444      49   45453   45456      47   45450   45453      49   45450
   45456      49   45465   45468      47   45462   45465      49   45462   45468
      49   45477   45480      47   45474   45477      49   45474   45480      49
   45489   45492      47   45486   45489      49   45486   45492      49   45501
   45504      47   45498   45501      49   45498   45504      49   45513   45516
      47   45510   45513      49   45510   45516      49   45525   45528      47
   45522   45525      49   45522   45528      49   45537   45540      47   45534
   45537      49   45534   45540      49   45549   45552      47   45546   45549
      49   45546   45552      49   45561   45564      47   45558   45561      49
   45558   45564      49   45573   45576      47   45570   45573      49   45570
   45576      49   45585   45588      47   45582   45585      49   45582   45588
      49   45597   45600      47   45594   45597      49   45594   45600      49
   45609   45612      47   45606   45609      49   45606   45612      49   45621
   45624      47   45618   45621      49   45618   45624      49   45633   45636
      47   45630   45633      49   45630   45636      49   45645   45648      47
   45642   45645      49   45642   45648      49   45657   45660      47   45654
   45657      49   45654   45660      49   45669   45672      47   45666   45669
      49   45666   45672      49   45681   45684      47   45678   45681      49
   45678   45684      49   45693   45696      47   45690   45693      49   45690
   45696      49   45705   45708      47   45702   45705      49   45702   45708
      49   45717   45720      47   45714   45717      49   45714   45720      49
   45729   45732      47   45726   45729      49   45726   45732      49   45741
   45744      47   45738   45741      49   45738   45744      49   45753   45756
      47   45750   45753      49   45750   45756      49   45765   45768      47
   45762   45765      49   45762   45768      49   45777   45780      47   45774
   45777      49   45774   45780      49   45789   45792      47   45786   45789
      49   45786   45792      49   45801   45804      47   45798   45801      49
   45798   45804      49   45813   45816      47   45810   45813      49   45810
   45816      49   45825   45828      47   45822   45825      49   45822   45828
      49   45837   45840      47   45834   45837      49   45834   45840      49
   45849   45852      47   45846   45849      49   45846   45852      49   45861
   45864      47   45858   45861      49   45858   45864      49   45873   45876
      47   45870   45873      49   45870   45876      49   45885   45888      47
   45882   45885      49   45882   45888      49   45897   45900      47   45894
   45897      49   45894   45900      49   45909   45912      47   45906   45909
      49   45906   45912      49   45921   45924      47   45918   45921      49
   45918   45924      49   45933   45936      47   45930   45933      49   45930
   45936      49   45945   45948      47   45942   45945      49   45942   45948
      49   45957   45960      47   45954   45957      49   45954   45960      49
   45969   45972      47   45966   45969      49   45966   45972      49   45981
   45984      47   45978   45981      49   45978   45984      49   45993   45996
      47   45990   45993      49   45990   45996      49   46005   46008      47
   46002   46005      49   46002   46008      49   46017   46020      47   46014
   46017      49   46014   46020      49   46029   46032      47   46026   46029
      49   46026   46032      49   46041   46044      47   46038   46041      49
   46038   46044      49   46053   46056      47   46050   46053      49   46050
   46056      49   46065   46068      47   46062   46065      49   46062   46068
      49   46077   46080      47   46074   46077      49   46074   46080      49
   46089   46092      47   46086   46089      49   46086   46092      49   46101
   46104      47   46098   46101      49   46098   46104      49   46113   46116
      47   46110   46113      49   46110   46116      49   46125   46128      47
   46122   46125      49   46122   46128      49   46137   46140      47   46134
   46137      49   46134   46140      49   46149   46152      47   46146   46149
      49   46146   46152      49   46161   46164      47   46158   46161      49
   46158   46164      49   46173   46176      47   46170   46173      49   46170
   46176      49   46185   46188      47   46182   46185      49   46182   46188
      49   46197   46200      47   46194   46197      49   46194   46200      49
   46209   46212      47   46206   46209      49   46206   46212      49   46221
   46224      47   46218   46221      49   46218   46224      49   46233   46236
      47   46230   46233      49   46230   46236      49   46245   46248      47
   46242   46245      49   46242   46248      49   46257   46260      47   46254
   46257      49   46254   46260      49   46269   46272      47   46266   46269
      49   46266   46272      49   46281   46284      47   46278   46281      49
   46278   46284      49   46293   46296      47   46290   46293      49   46290
   46296      49   46305   46308      47   46302   46305      49   46302   46308
      49   46317   46320      47   46314   46317      49   46314   46320      49
   46329   46332      47   46326   46329      49   46326   46332      49   46341
   46344      47   46338   46341      49   46338   46344      49   46353   46356
      47   46350   46353      49   46350   46356      49   46365   46368      47
   46362   46365      49   46362   46368      49   46377   46380      47   46374
   46377      49   46374   46380      49   46389   46392      47   46386   46389
      49   46386   46392      49   46401   46404      47   46398   46401      49
   46398   46404      49   46413   46416      47   46410   46413      49   46410
   46416      49   46425   46428      47   46422   46425      49   46422   46428
      49   46437   46440      47   46434   46437      49   46434   46440      49
   46449   46452      47   46446   46449      49   46446   46452      49   46461
   46464      47   46458   46461      49   46458   46464      49   46473   46476
      47   46470   46473      49   46470   46476      49   46485   46488      47
   46482   46485      49   46482   46488      49   46497   46500      47   46494
   46497      49   46494   46500      49   46509   46512      47   46506   46509
      49   46506   46512      49   46521   46524      47   46518   46521      49
   46518   46524      49   46533   46536      47   46530   46533      49   46530
   46536      49   46545   46548      47   46542   46545      49   46542   46548
      49   46557   46560      47   46554   46557      49   46554   46560      49
   46569   46572      47   46566   46569      49   46566   46572      49   46581
   46584      47   46578   46581      49   46578   46584      49   46593   46596
      47   46590   46593      49   46590   46596      49   46605   46608      47
   46602   46605      49   46602   46608      49   46617   46620      47   46614
   46617      49   46614   46620      49   46629   46632      47   46626   46629
      49   46626   46632      49   46641   46644      47   46638   46641      49
   46638   46644      49   46653   46656      47   46650   46653      49   46650
   46656      49   46665   46668      47   46662   46665      49   46662   46668
      49   46677   46680      47   46674   46677      49   46674   46680      49
   46689   46692      47   46686   46689      49   46686   46692      49   46701
   46704      47   46698   46701      49   46698   46704      49   46713   46716
      47   46710   46713      49   46710   46716      49   46725   46728      47
   46722   46725      49   46722   46728      49   46737   46740      47   46734
   46737      49   46734   46740      49   46749   46752      47   46746   46749
      49   46746   46752      49   46761   46764      47   46758   46761      49
   46758   46764      49   46773   46776      47   46770   46773      49   46770
   46776      49   46785   46788      47   46782   46785      49   46782   46788
      49   46797   46800      47   46794   46797      49   46794   46800      49
   46809   46812      47   46806   46809      49   46806   46812      49   46821
   46824      47   46818   46821      49   46818   46824      49   46833   46836
      47   46830   46833      49   46830   46836      49   46845   46848      47
   46842   46845      49   46842   46848      49   46857   46860      47   46854
   46857      49   46854   46860      49   46869   46872      47   46866   46869
      49   46866   46872      49   46881   46884      47   46878   46881      49
   46878   46884      49   46893   46896      47   46890   46893      49   46890
   46896      49   46905   46908      47   46902   46905      49   46902   46908
      49   46917   46920      47   46914   46917      49   46914   46920      49
   46929   46932      47   46926   46929      49   46926   46932      49   46941
   46944      47   46938   46941      49   46938   46944      49   46953   46956
      47   46950   46953      49   46950   46956      49   46965   46968      47
   46962   46965      49   46962   46968      49   46977   46980      47   46974
   46977      49   46974   46980      49   46989   46992      47   46986   46989
      49   46986   46992      49   47001   47004      47   46998   47001      49
   46998   47004      49   47013   47016      47   47010   47013      49   47010
   47016      49   47025   47028      47   47022   47025      49   47022   47028
      49   47037   47040      47   47034   47037      49   47034   47040      49
   47049   47052      47   47046   47049      49   47046   47052      49   47061
   47064      47   47058   47061      49   47058   47064      49   47073   47076
      47   47070   47073      49   47070   47076      49   47085   47088      47
   47082   47085      49   47082   47088      49   47097   47100      47   47094
   47097      49   47094   47100      49   47109   47112      47   47106   47109
      49   47106   47112      49   47121   47124      47   47118   47121      49
   47118   47124      49   47133   47136      47   47130   47133      49   47130
   47136      49   47145   47148      47   47142   47145      49   47142   47148
      49   47157   47160      47   47154   47157      49   47154   47160      49
   47169   47172      47   47166   47169      49   47166   47172      49   47181
   47184      47   47178   47181      49   47178   47184      49   47193   47196
      47   47190   47193      49   47190   47196      49   47205   47208      47
   47202   47205      49   47202   47208      49   47217   47220      47   47214
   47217      49   47214   47220      49   47229   47232      47   47226   47229
      49   47226   47232      49   47241   47244      47   47238   47241      49
   47238   47244      49   47253   47256      47   47250   47253      49   47250
   47256      49   47265   47268      47   47262   47265      49   47262   47268
      49   47277   47280      47   47274   47277      49   47274   47280      49
   47289   47292      47   47286   47289      49   47286   47292      49   47301
   47304      47   47298   47301      49   47298   47304      49   47313   47316
      47   47310   47313      49   47310   47316      49   47325   47328      47
   47322   47325      49   47322   47328      49   47337   47340      47   47334
   47337      49   47334   47340      49   47349   47352      47   47346   47349
      49   47346   47352      49   47361   47364      47   47358   47361      49
   47358   47364      49   47373   47376      47   47370   47373      49   47370
   47376      49   47385   47388      47   47382   47385      49   47382   47388
      49   47397   47400      47   47394   47397      49   47394   47400      49
   47409   47412      47   47406   47409      49   47406   47412      49   47421
   47424      47   47418   47421      49   47418   47424      49   47433   47436
      47   47430   47433      49   47430   47436      49   47445   47448      47
   47442   47445      49   47442   47448      49   47457   47460      47   47454
   47457      49   47454   47460      49   47469   47472      47   47466   47469
      49   47466   47472      49   47481   47484      47   47478   47481      49
   47478   47484      49   47493   47496      47   47490   47493      49   47490
   47496      49   47505   47508      47   47502   47505      49   47502   47508
      49   47517   47520      47   47514   47517      49   47514   47520      49
   47529   47532      47   47526   47529      49   47526   47532      49   47541
   47544      47   47538   47541      49   47538   47544      49   47553   47556
      47   47550   47553      49   47550   47556      49   47565   47568      47
   47562   47565      49   47562   47568      49   47577   47580      47   47574
   47577      49   47574   47580      49   47589   47592      47   47586   47589
      49   47586   47592      49   47601   47604      47   47598   47601      49
   47598   47604      49   47613   47616      47   47610   47613      49   47610
   47616      49   47625   47628      47   47622   47625      49   47622   47628
      49   47637   47640      47   47634   47637      49   47634   47640      49
   47649   47652      47   47646   47649      49   47646   47652      49   47661
   47664      47   47658   47661      49   47658   47664      49   47673   47676
      47   47670   47673      49   47670   47676      49   47685   47688      47
   47682   47685      49   47682   47688      49   47697   47700      47   47694
   47697      49   47694   47700      49   47709   47712      47   47706   47709
      49   47706   47712      49   47721   47724      47   47718   47721      49
   47718   47724      49   47733   47736      47   47730   47733      49   47730
   47736      49   47745   47748      47   47742   47745      49   47742   47748
      49   47757   47760      47   47754   47757      49   47754   47760      49
   47769   47772      47   47766   47769      49   47766   47772      49   47781
   47784      47   47778   47781      49   47778   47784      49   47793   47796
      47   47790   47793      49   47790   47796      49   47805   47808      47
   47802   47805      49   47802   47808      49   47817   47820      47   47814
   47817      49   47814   47820      49   47829   47832      47   47826   47829
      49   47826   47832      49   47841   47844      47   47838   47841      49
   47838   47844      49   47853   47856      47   47850   47853      49   47850
   47856      49   47865   47868      47   47862   47865      49   47862   47868
      49   47877   47880      47   47874   47877      49   47874   47880      49
   47889   47892      47   47886   47889      49   47886   47892      49   47901
   47904      47   47898   47901      49   47898   47904      49   47913   47916
      47   47910   47913      49   47910   47916      49   47925   47928      47
   47922   47925      49   47922   47928      49   47937   47940      47   47934
   47937      49   47934   47940      49   47949   47952      47   47946   47949
      49   47946   47952      49   47961   47964      47   47958   47961      49
   47958   47964      49   47973   47976      47   47970   47973      49   47970
   47976      49   47985   47988      47   47982   47985      49   47982   47988
      49   47997   48000      47   47994   47997      49   47994   48000      49
   48009   48012      47   48006   48009      49   48006   48012      49   48021
   48024      47   48018   48021      49   48018   48024      49   48033   48036
      47   48030   48033      49   48030   48036      49   48045   48048      47
   48042   48045      49   48042   48048      49   48057   48060      47   48054
   48057      49   48054   48060      49   48069   48072      47   48066   48069
      49   48066   48072      49   48081   48084      47   48078   48081      49
   48078   48084      49   48093   48096      47   48090   48093      49   48090
   48096      49   48105   48108      47   48102   48105      49   48102   48108
      49   48117   48120      47   48114   48117      49   48114   48120      49
   48129   48132      47   48126   48129      49   48126   48132      49   48141
   48144      47   48138   48141      49   48138   48144      49   48153   48156
      47   48150   48153      49   48150   48156      49   48165   48168      47
   48162   48165      49   48162   48168      49   48177   48180      47   48174
   48177      49   48174   48180      49   48189   48192      47   48186   48189
      49   48186   48192      49   48201   48204      47   48198   48201      49
   48198   48204      49   48213   48216      47   48210   48213      49   48210
   48216      49   48225   48228      47   48222   48225      49   48222   48228
      49   48237   48240      47   48234   48237      49   48234   48240      49
   48249   48252      47   48246   48249      49   48246   48252      49   48261
   48264      47   48258   48261      49   48258   48264      49   48273   48276
      47   48270   48273      49   48270   48276      49   48285   48288      47
   48282   48285      49   48282   48288      49   48297   48300      47   48294
   48297      49   48294   48300      49   48309   48312      47   48306   48309
      49   48306   48312      49   48321   48324      47   48318   48321      49
   48318   48324      49   48333   48336      47   48330   48333      49   48330
   48336      49   48345   48348      47   48342   48345      49   48342   48348
      49   48357   48360      47   48354   48357      49   48354   48360      49
   48369   48372      47   48366   48369      49   48366   48372      49   48381
   48384      47   48378   48381      49   48378   48384      49   48393   48396
      47   48390   48393      49   48390   48396      49   48405   48408      47
   48402   48405      49   48402   48408      49   48417   48420      47   48414
   48417      49   48414   48420      49   48429   48432      47   48426   48429
      49   48426   48432      49   48441   48444      47   48438   48441      49
   48438   48444      49   48453   48456      47   48450   48453      49   48450
   48456      49   48465   48468      47   48462   48465      49   48462   48468
      49   48477   48480      47   48474   48477      49   48474   48480      49
   48489   48492      47   48486   48489      49   48486   48492      49   48501
   48504      47   48498   48501      49   48498   48504      49   48513   48516
      47   48510   48513      49   48510   48516      49   48525   48528      47
   48522   48525      49   48522   48528      49   48537   48540      47   48534
   48537      49   48534   48540      49   48549   48552      47   48546   48549
      49   48546   48552      49   48561   48564      47   48558   48561      49
   48558   48564      49   48573   48576      47   48570   48573      49   48570
   48576      49   48585   48588      47   48582   48585      49   48582   48588
      49   48597   48600      47   48594   48597      49   48594   48600      49
   48609   48612      47   48606   48609      49   48606   48612      49   48621
   48624      47   48618   48621      49   48618   48624      49   48633   48636
      47   48630   48633      49   48630   48636      49   48645   48648      47
   48642   48645      49   48642   48648      49   48657   48660      47   48654
   48657      49   48654   48660      49   48669   48672      47   48666   48669
      49   48666   48672      49   48681   48684      47   48678   48681      49
   48678   48684      49   48693   48696      47   48690   48693      49   48690
   48696      49   48705   48708      47   48702   48705      49   48702   48708
      49   48717   48720      47   48714   48717      49   48714   48720      49
   48729   48732      47   48726   48729      49   48726   48732      49   48741
   48744      47   48738   48741      49   48738   48744      49   48753   48756
      47   48750   48753      49   48750   48756      49   48765   48768      47
   48762   48765      49   48762   48768      49   48777   48780      47   48774
   48777      49   48774   48780      49   48789   48792      47   48786   48789
      49   48786   48792      49   48801   48804      47   48798   48801      49
   48798   48804      49   48813   48816      47   48810   48813      49   48810
   48816      49   48825   48828      47   48822   48825      49   48822   48828
      49   48837   48840      47   48834   48837      49   48834   48840      49
   48849   48852      47   48846   48849      49   48846   48852      49   48861
   48864      47   48858   48861      49   48858   48864      49   48873   48876
      47   48870   48873      49   48870   48876      49   48885   48888      47
   48882   48885      49   48882   48888      49   48897   48900      47   48894
   48897      49   48894   48900      49   48909   48912      47   48906   48909
      49   48906   48912      49   48921   48924      47   48918   48921      49
   48918   48924      49   48933   48936      47   48930   48933      49   48930
   48936      49   48945   48948      47   48942   48945      49   48942   48948
      49   48957   48960      47   48954   48957      49   48954   48960      49
   48969   48972      47   48966   48969      49   48966   48972      49   48981
   48984      47   48978   48981      49   48978   48984      49   48993   48996
      47   48990   48993      49   48990   48996      49   49005   49008      47
   49002   49005      49   49002   49008      49   49017   49020      47   49014
   49017      49   49014   49020      49   49029   49032      47   49026   49029
      49   49026   49032      49   49041   49044      47   49038   49041      49
   49038   49044      49   49053   49056      47   49050   49053      49   49050
   49056      49   49065   49068      47   49062   49065      49   49062   49068
      49   49077   49080      47   49074   49077      49   49074   49080      49
   49089   49092      47   49086   49089      49   49086   49092      49   49101
   49104      47   49098   49101      49   49098   49104      49   49113   49116
      47   49110   49113      49   49110   49116      49   49125   49128      47
   49122   49125      49   49122   49128      49   49137   49140      47   49134
   49137      49   49134   49140      49   49149   49152      47   49146   49149
      49   49146   49152      49   49161   49164      47   49158   49161      49
   49158   49164      49   49173   49176      47   49170   49173      49   49170
   49176      49   49185   49188      47   49182   49185      49   49182   49188
      49   49197   49200      47   49194   49197      49   49194   49200      49
   49209   49212      47   49206   49209      49   49206   49212      49   49221
   49224      47   49218   49221      49   49218   49224      49   49233   49236
      47   49230   49233      49   49230   49236      49   49245   49248      47
   49242   49245      49   49242   49248      49   49257   49260      47   49254
   49257      49   49254   49260      49   49269   49272      47   49266   49269
      49   49266   49272      49   49281   49284      47   49278   49281      49
   49278   49284      49   49293   49296      47   49290   49293      49   49290
   49296      49   49305   49308      47   49302   49305      49   49302   49308
      49   49317   49320      47   49314   49317      49   49314   49320      49
   49329   49332      47   49326   49329      49   49326   49332      49   49341
   49344      47   49338   49341      49   49338   49344      49   49353   49356
      47   49350   49353      49   49350   49356      49   49365   49368      47
   49362   49365      49   49362   49368      49   49377   49380      47   49374
   49377      49   49374   49380      49   49389   49392      47   49386   49389
      49   49386   49392      49   49401   49404      47   49398   49401      49
   49398   49404      49   49413   49416      47   49410   49413      49   49410
   49416      49   49425   49428      47   49422   49425      49   49422   49428
      49   49437   49440      47   49434   49437      49   49434   49440      49
   49449   49452      47   49446   49449      49   49446   49452      49   49461
   49464      47   49458   49461      49   49458   49464      49   49473   49476
      47   49470   49473      49   49470   49476      49   49485   49488      47
   49482   49485      49   49482   49488      49   49497   49500      47   49494
   49497      49   49494   49500      49   49509   49512      47   49506   49509
      49   49506   49512      49   49521   49524      47   49518   49521      49
   49518   49524      49   49533   49536      47   49530   49533      49   49530
   49536      49   49545   49548      47   49542   49545      49   49542   49548
      49   49557   49560      47   49554   49557      49   49554   49560      49
   49569   49572      47   49566   49569      49   49566   49572      49   49581
   49584      47   49578   49581      49   49578   49584      49   49593   49596
      47   49590   49593      49   49590   49596      49   49605   49608      47
   49602   49605      49   49602   49608      49   49617   49620      47   49614
   49617      49   49614   49620      49   49629   49632      47   49626   49629
      49   49626   49632      49   49641   49644      47   49638   49641      49
   49638   49644      49   49653   49656      47   49650   49653      49   49650
   49656      49   49665   49668      47   49662   49665      49   49662   49668
      49   49677   49680      47   49674   49677      49   49674   49680      49
   49689   49692      47   49686   49689      49   49686   49692      49   49701
   49704      47   49698   49701      49   49698   49704      49   49713   49716
      47   49710   49713      49   49710   49716      49   49725   49728      47
   49722   49725      49   49722   49728      49   49737   49740      47   49734
   49737      49   49734   49740      49   49749   49752      47   49746   49749
      49   49746   49752      49   49761   49764      47   49758   49761      49
   49758   49764      49   49773   49776      47   49770   49773      49   49770
   49776      49   49785   49788      47   49782   49785      49   49782   49788
      49   49797   49800      47   49794   49797      49   49794   49800      49
   49809   49812      47   49806   49809      49   49806   49812      49   49821
   49824      47   49818   49821      49   49818   49824      49   49833   49836
      47   49830   49833      49   49830   49836      49   49845   49848      47
   49842   49845      49   49842   49848      49   49857   49860      47   49854
   49857      49   49854   49860      49   49869   49872      47   49866   49869
      49   49866   49872      49   49881   49884      47   49878   49881      49
   49878   49884      49   49893   49896      47   49890   49893      49   49890
   49896      49   49905   49908      47   49902   49905      49   49902   49908
      49   49917   49920      47   49914   49917      49   49914   49920      49
   49929   49932      47   49926   49929      49   49926   49932      49   49941
   49944      47   49938   49941      49   49938   49944      49   49953   49956
      47   49950   49953      49   49950   49956      49   49965   49968      47
   49962   49965      49   49962   49968      49   49977   49980      47   49974
   49977      49   49974   49980      49   49989   49992      47   49986   49989
      49   49986   49992      49   50001   50004      47   49998   50001      49
   49998   50004      49   50013   50016      47   50010   50013      49   50010
   50016      49   50025   50028      47   50022   50025      49   50022   50028
      49   50037   50040      47   50034   50037      49   50034   50040      49
   50049   50052      47   50046   50049      49   50046   50052      49   50061
   50064      47   50058   50061      49   50058   50064      49   50073   50076
      47   50070   50073      49   50070   50076      49   50085   50088      47
   50082   50085      49   50082   50088      49   50097   50100      47   50094
   50097      49   50094   50100      49   50109   50112      47   50106   50109
      49   50106   50112      49   50121   50124      47   50118   50121      49
   50118   50124      49   50133   50136      47   50130   50133      49   50130
   50136      49   50145   50148      47   50142   50145      49   50142   50148
      49   50157   50160      47   50154   50157      49   50154   50160      49
   50169   50172      47   50166   50169      49   50166   50172      49   50181
   50184      47   50178   50181      49   50178   50184      49   50193   50196
      47   50190   50193      49   50190   50196      49   50205   50208      47
   50202   50205      49   50202   50208      49   50217   50220      47   50214
   50217      49   50214   50220      49   50229   50232      47   50226   50229
      49   50226   50232      49   50241   50244      47   50238   50241      49
   50238   50244      49   50253   50256      47   50250   50253      49   50250
   50256      49   50265   50268      47   50262   50265      49   50262   50268
      49   50277   50280      47   50274   50277      49   50274   50280      49
   50289   50292      47   50286   50289      49   50286   50292      49   50301
   50304      47   50298   50301      49   50298   50304      49   50313   50316
      47   50310   50313      49   50310   50316      49   50325   50328      47
   50322   50325      49   50322   50328      49   50337   50340      47   50334
   50337      49   50334   50340      49   50349   50352      47   50346   50349
      49   50346   50352      49   50361   50364      47   50358   50361      49
   50358   50364      49   50373   50376      47   50370   50373      49   50370
   50376      49   50385   50388      47   50382   50385      49   50382   50388
      49   50397   50400      47   50394   50397      49   50394   50400      49
   50409   50412      47   50406   50409      49   50406   50412      49   50421
   50424      47   50418   50421      49   50418   50424      49   50433   50436
      47   50430   50433      49   50430   50436      49   50445   50448      47
   50442   50445      49   50442   50448      49   50457   50460      47   50454
   50457      49   50454   50460      49   50469   50472      47   50466   50469
      49   50466   50472      49   50481   50484      47   50478   50481      49
   50478   50484      49   50493   50496      47   50490   50493      49   50490
   50496      49   50505   50508      47   50502   50505      49   50502   50508
      49   50517   50520      47   50514   50517      49   50514   50520      49
   50529   50532      47   50526   50529      49   50526   50532      49   50541
   50544      47   50538   50541      49   50538   50544      49   50553   50556
      47   50550   50553      49   50550   50556      49   50565   50568      47
   50562   50565      49   50562   50568      49   50577   50580      47   50574
   50577      49   50574   50580      49   50589   50592      47   50586   50589
      49   50586   50592      49   50601   50604      47   50598   50601      49
   50598   50604      49   50613   50616      47   50610   50613      49   50610
   50616      49   50625   50628      47   50622   50625      49   50622   50628
      49   50637   50640      47   50634   50637      49   50634   50640      49
   50649   50652      47   50646   50649      49   50646   50652      49   50661
   50664      47   50658   50661      49   50658   50664      49   50673   50676
      47   50670   50673      49   50670   50676      49   50685   50688      47
   50682   50685      49   50682   50688      49   50697   50700      47   50694
   50697      49   50694   50700      49   50709   50712      47   50706   50709
      49   50706   50712      49   50721   50724      47   50718   50721      49
   50718   50724      49   50733   50736      47   50730   50733      49   50730
   50736      49   50745   50748      47   50742   50745      49   50742   50748
      49   50757   50760      47   50754   50757      49   50754   50760      49
   50769   50772      47   50766   50769      49   50766   50772      49   50781
   50784      47   50778   50781      49   50778   50784      49   50793   50796
      47   50790   50793      49   50790   50796      49   50805   50808      47
   50802   50805      49   50802   50808      49   50817   50820      47   50814
   50817      49   50814   50820      49   50829   50832      47   50826   50829
      49   50826   50832      49   50841   50844      47   50838   50841      49
   50838   50844      49   50853   50856      47   50850   50853      49   50850
   50856      49   50865   50868      47   50862   50865      49   50862   50868
      49   50877   50880      47   50874   50877      49   50874   50880      49
   50889   50892      47   50886   50889      49   50886   50892      49   50901
   50904      47   50898   50901      49   50898   50904      49   50913   50916
      47   50910   50913      49   50910   50916      49   50925   50928      47
   50922   50925      49   50922   50928      49   50937   50940      47   50934
   50937      49   50934   50940      49   50949   50952      47   50946   50949
      49   50946   50952      49   50961   50964      47   50958   50961      49
   50958   50964      49   50973   50976      47   50970   50973      49   50970
   50976      49   50985   50988      47   50982   50985      49   50982   50988
      49   50997   51000      47   50994   50997      49   50994   51000      49
   51009   51012      47   51006   51009      49   51006   51012      49   51021
   51024      47   51018   51021      49   51018   51024      49   51033   51036
      47   51030   51033      49   51030   51036      49   51045   51048      47
   51042   51045      49   51042   51048      49   51057   51060      47   51054
   51057      49   51054   51060      49   51069   51072      47   51066   51069
      49   51066   51072      49   51081   51084      47   51078   51081      49
   51078   51084      49   51093   51096      47   51090   51093      49   51090
   51096      49   51105   51108      47   51102   51105      49   51102   51108
      49   51117   51120      47   51114   51117      49   51114   51120      49
   51129   51132      47   51126   51129      49   51126   51132      49   51141
   51144      47   51138   51141      49   51138   51144      49   51153   51156
      47   51150   51153      49   51150   51156      49   51165   51168      47
   51162   51165      49   51162   51168      49   51177   51180      47   51174
   51177      49   51174   51180      49   51189   51192      47   51186   51189
      49   51186   51192      49   51201   51204      47   51198   51201      49
   51198   51204      49   51213   51216      47   51210   51213      49   51210
   51216      49   51225   51228      47   51222   51225      49   51222   51228
      49   51237   51240      47   51234   51237      49   51234   51240      49
   51249   51252      47   51246   51249      49   51246   51252      49   51261
   51264      47   51258   51261      49   51258   51264      49   51273   51276
      47   51270   51273      49   51270   51276      49   51285   51288      47
   51282   51285      49   51282   51288      49   51297   51300      47   51294
   51297      49   51294   51300      49   51309   51312      47   51306   51309
      49   51306   51312      49   51321   51324      47   51318   51321      49
   51318   51324      49   51333   51336      47   51330   51333      49   51330
   51336      49   51345   51348      47   51342   51345      49   51342   51348
      49   51357   51360      47   51354   51357      49   51354   51360      49
   51369   51372      47   51366   51369      49   51366   51372      49   51381
   51384      47   51378   51381      49   51378   51384      49   51393   51396
      47   51390   51393      49   51390   51396      49   51405   51408      47
   51402   51405      49   51402   51408      49   51417   51420      47   51414
   51417      49   51414   51420      49   51429   51432      47   51426   51429
      49   51426   51432      49   51441   51444      47   51438   51441      49
   51438   51444      49   51453   51456      47   51450   51453      49   51450
   51456      49   51465   51468      47   51462   51465      49   51462   51468
      49   51477   51480      47   51474   51477      49   51474   51480      49
   51489   51492      47   51486   51489      49   51486   51492      49   51501
   51504      47   51498   51501      49   51498   51504      49   51513   51516
      47   51510   51513      49   51510   51516      49   51525   51528      47
   51522   51525      49   51522   51528      49   51537   51540      47   51534
   51537      49   51534   51540      49   51549   51552      47   51546   51549
      49   51546   51552      49   51561   51564      47   51558   51561      49
   51558   51564      49   51573   51576      47   51570   51573      49   51570
   51576      49   51585   51588      47   51582   51585      49   51582   51588
      49   51597   51600      47   51594   51597      49   51594   51600      49
   51609   51612      47   51606   51609      49   51606   51612      49   51621
   51624      47   51618   51621      49   51618   51624      49   51633   51636
      47   51630   51633      49   51630   51636      49   51645   51648      47
   51642   51645      49   51642   51648      49   51657   51660      47   51654
   51657      49   51654   51660      49   51669   51672      47   51666   51669
      49   51666   51672      49   51681   51684      47   51678   51681      49
   51678   51684      49   51693   51696      47   51690   51693      49   51690
   51696      49   51705   51708      47   51702   51705      49   51702   51708
      49   51717   51720      47   51714   51717      49   51714   51720      49
   51729   51732      47   51726   51729      49   51726   51732      49   51741
   51744      47   51738   51741      49   51738   51744      49   51753   51756
      47   51750   51753      49   51750   51756      49   51765   51768      47
   51762   51765      49   51762   51768      49   51777   51780      47   51774
   51777      49   51774   51780      49   51789   51792      47   51786   51789
      49   51786   51792      49   51801   51804      47   51798   51801      49
   51798   51804      49   51813   51816      47   51810   51813      49   51810
   51816      49   51825   51828      47   51822   51825      49   51822   51828
      49   51837   51840      47   51834   51837      49   51834   51840      49
   51849   51852      47   51846   51849      49   51846   51852      49   51861
   51864      47   51858   51861      49   51858   51864      49   51873   51876
      47   51870   51873      49   51870   51876      49   51885   51888      47
   51882   51885      49   51882   51888      49   51897   51900      47   51894
   51897      49   51894   51900      49   51909   51912      47   51906   51909
      49   51906   51912      49   51921   51924      47   51918   51921      49
   51918   51924      49   51933   51936      47   51930   51933      49   51930
   51936      49   51945   51948      47   51942   51945      49   51942   51948
      49   51957   51960      47   51954   51957      49   51954   51960      49
   51969   51972      47   51966   51969      49   51966   51972      49   51981
   51984      47   51978   51981      49   51978   51984      49   51993   51996
      47   51990   51993      49   51990   51996      49   52005   52008      47
   52002   52005      49   52002   52008      49   52017   52020      47   52014
   52017      49   52014   52020      49   52029   52032      47   52026   52029
      49   52026   52032      49   52041   52044      47   52038   52041      49
   52038   52044      49   52053   52056      47   52050   52053      49   52050
   52056      49   52065   52068      47   52062   52065      49   52062   52068
      49   52077   52080      47   52074   52077      49   52074   52080      49
   52089   52092      47   52086   52089      49   52086   52092      49   52101
   52104      47   52098   52101      49   52098   52104      49   52113   52116
      47   52110   52113      49   52110   52116      49   52125   52128      47
   52122   52125      49   52122   52128      49   52137   52140      47   52134
   52137      49   52134   52140      49   52149   52152      47   52146   52149
      49   52146   52152      49   52161   52164      47   52158   52161      49
   52158   52164      49   52173   52176      47   52170   52173      49   52170
   52176      49   52185   52188      47   52182   52185      49   52182   52188
      49   52197   52200      47   52194   52197      49   52194   52200      49
   52209   52212      47   52206   52209      49   52206   52212      49   52221
   52224      47   52218   52221      49   52218   52224      49   52233   52236
      47   52230   52233      49   52230   52236      49   52245   52248      47
   52242   52245      49   52242   52248      49   52257   52260      47   52254
   52257      49   52254   52260      49   52269   52272      47   52266   52269
      49   52266   52272      49   52281   52284      47   52278   52281      49
   52278   52284      49   52293   52296      47   52290   52293      49   52290
   52296      49   52305   52308      47   52302   52305      49   52302   52308
      49   52317   52320      47   52314   52317      49   52314   52320      49
   52329   52332      47   52326   52329      49   52326   52332      49   52341
   52344      47   52338   52341      49   52338   52344      49   52353   52356
      47   52350   52353      49   52350   52356      49   52365   52368      47
   52362   52365      49   52362   52368      49   52377   52380      47   52374
   52377      49   52374   52380      49   52389   52392      47   52386   52389
      49   52386   52392      49   52401   52404      47   52398   52401      49
   52398   52404      49   52413   52416      47   52410   52413      49   52410
   52416      49   52425   52428      47   52422   52425      49   52422   52428
      49   52437   52440      47   52434   52437      49   52434   52440      49
   52449   52452      47   52446   52449      49   52446   52452      49   52461
   52464      47   52458   52461      49   52458   52464      49   52473   52476
      47   52470   52473      49   52470   52476      49   52485   52488      47
   52482   52485      49   52482   52488      49   52497   52500      47   52494
   52497      49   52494   52500      49   52509   52512      47   52506   52509
      49   52506   52512      49   52521   52524      47   52518   52521      49
   52518   52524      49   52533   52536      47   52530   52533      49   52530
   52536      49   52545   52548      47   52542   52545      49   52542   52548
      49   52557   52560      47   52554   52557      49   52554   52560      49
   52569   52572      47   52566   52569      49   52566   52572      49   52581
   52584      47   52578   52581      49   52578   52584      49   52593   52596
      47   52590   52593      49   52590   52596      49   52605   52608      47
   52602   52605      49   52602   52608      49   52617   52620      47   52614
   52617      49   52614   52620      49   52629   52632      47   52626   52629
      49   52626   52632      49   52641   52644      47   52638   52641      49
   52638   52644      49   52653   52656      47   52650   52653      49   52650
   52656      49   52665   52668      47   52662   52665      49   52662   52668
      49   52677   52680      47   52674   52677      49   52674   52680      49
   52689   52692      47   52686   52689      49   52686   52692      49   52701
   52704      47   52698   52701      49   52698   52704      49   52713   52716
      47   52710   52713      49   52710   52716      49   52725   52728      47
   52722   52725      49   52722   52728      49   52737   52740      47   52734
   52737      49   52734   52740      49   52749   52752      47   52746   52749
      49   52746   52752      49   52761   52764      47   52758   52761      49
   52758   52764      49   52773   52776      47   52770   52773      49   52770
   52776      49   52785   52788      47   52782   52785      49   52782   52788
      49   52797   52800      47   52794   52797      49   52794   52800      49
   52809   52812      47   52806   52809      49   52806   52812      49   52821
   52824      47   52818   52821      49   52818   52824      49   52833   52836
      47   52830   52833      49   52830   52836      49   52845   52848      47
   52842   52845      49   52842   52848      49   52857   52860      47   52854
   52857      49   52854   52860      49   52869   52872      47   52866   52869
      49   52866   52872      49   52881   52884      47   52878   52881      49
   52878   52884      49   52893   52896      47   52890   52893      49   52890
   52896      49   52905   52908      47   52902   52905      49   52902   52908
      49   52917   52920      47   52914   52917      49   52914   52920      49
   52929   52932      47   52926   52929      49   52926   52932      49   52941
   52944      47   52938   52941      49   52938   52944      49   52953   52956
      47   52950   52953      49   52950   52956      49   52965   52968      47
   52962   52965      49   52962   52968      49   52977   52980      47   52974
   52977      49   52974   52980      49   52989   52992      47   52986   52989
      49   52986   52992      49   53001   53004      47   52998   53001      49
   52998   53004      49   53013   53016      47   53010   53013      49   53010
   53016      49   53025   53028      47   53022   53025      49   53022   53028
      49   53037   53040      47   53034   53037      49   53034   53040      49
   53049   53052      47   53046   53049      49   53046   53052      49   53061
   53064      47   53058   53061      49   53058   53064      49   53073   53076
      47   53070   53073      49   53070   53076      49   53085   53088      47
   53082   53085      49   53082   53088      49   53097   53100      47   53094
   53097      49   53094   53100      49   53109   53112      47   53106   53109
      49   53106   53112      49   53121   53124      47   53118   53121      49
   53118   53124      49   53133   53136      47   53130   53133      49   53130
   53136      49   53145   53148      47   53142   53145      49   53142   53148
      49   53157   53160      47   53154   53157      49   53154   53160      49
   53169   53172      47   53166   53169      49   53166   53172      49   53181
   53184      47   53178   53181      49   53178   53184      49   53193   53196
      47   53190   53193      49   53190   53196      49   53205   53208      47
   53202   53205      49   53202   53208      49   53217   53220      47   53214
   53217      49   53214   53220      49   53229   53232      47   53226   53229
      49   53226   53232      49   53241   53244      47   53238   53241      49
   53238   53244      49   53253   53256      47   53250   53253      49   53250
   53256      49   53265   53268      47   53262   53265      49   53262   53268
      49   53277   53280      47   53274   53277      49   53274   53280      49
   53289   53292      47   53286   53289      49   53286   53292      49   53301
   53304      47   53298   53301      49   53298   53304      49   53313   53316
      47   53310   53313      49   53310   53316      49   53325   53328      47
   53322   53325      49   53322   53328      49   53337   53340      47   53334
   53337      49   53334   53340      49   53349   53352      47   53346   53349
      49   53346   53352      49   53361   53364      47   53358   53361      49
   53358   53364      49   53373   53376      47   53370   53373      49   53370
   53376      49   53385   53388      47   53382   53385      49   53382   53388
      49   53397   53400      47   53394   53397      49   53394   53400      49
   53409   53412      47   53406   53409      49   53406   53412      49   53421
   53424      47   53418   53421      49   53418   53424      49   53433   53436
      47   53430   53433      49   53430   53436      49   53445   53448      47
   53442   53445      49   53442   53448      49   53457   53460      47   53454
   53457      49   53454   53460      49   53469   53472      47   53466   53469
      49   53466   53472      49   53481   53484      47   53478   53481      49
   53478   53484      49   53493   53496      47   53490   53493      49   53490
   53496      49   53505   53508      47   53502   53505      49   53502   53508
      49   53517   53520      47   53514   53517      49   53514   53520      49
   53529   53532      47   53526   53529      49   53526   53532      49   53541
   53544      47   53538   53541      49   53538   53544      49   53553   53556
      47   53550   53553      49   53550   53556      49   53565   53568      47
   53562   53565      49   53562   53568      49   53577   53580      47   53574
   53577      49   53574   53580      49   53589   53592      47   53586   53589
      49   53586   53592      49   53601   53604      47   53598   53601      49
   53598   53604      49   53613   53616      47   53610   53613      49   53610
   53616      49   53625   53628      47   53622   53625      49   53622   53628
      49   53637   53640      47   53634   53637      49   53634   53640      49
   53649   53652      47   53646   53649      49   53646   53652      49   53661
   53664      47   53658   53661      49   53658   53664      49   53673   53676
      47   53670   53673      49   53670   53676      49   53685   53688      47
   53682   53685      49   53682   53688      49   53697   53700      47   53694
   53697      49   53694   53700      49   53709   53712      47   53706   53709
      49   53706   53712      49   53721   53724      47   53718   53721      49
   53718   53724      49   53733   53736      47   53730   53733      49   53730
   53736      49   53745   53748      47   53742   53745      49   53742   53748
      49   53757   53760      47   53754   53757      49   53754   53760      49
   53769   53772      47   53766   53769      49   53766   53772      49   53781
   53784      47   53778   53781      49   53778   53784      49   53793   53796
      47   53790   53793      49   53790   53796      49   53805   53808      47
   53802   53805      49   53802   53808      49   53817   53820      47   53814
   53817      49   53814   53820      49   53829   53832      47   53826   53829
      49   53826   53832      49   53841   53844      47   53838   53841      49
   53838   53844      49   53853   53856      47   53850   53853      49   53850
   53856      49   53865   53868      47   53862   53865      49   53862   53868
      49   53877   53880      47   53874   53877      49   53874   53880      49
   53889   53892      47   53886   53889      49   53886   53892      49   53901
   53904      47   53898   53901      49   53898   53904      49   53913   53916
      47   53910   53913      49   53910   53916      49   53925   53928      47
   53922   53925      49   53922   53928      49   53937   53940      47   53934
   53937      49   53934   53940      49   53949   53952      47   53946   53949
      49   53946   53952      49   53961   53964      47   53958   53961      49
   53958   53964      49   53973   53976      47   53970   53973      49   53970
   53976      49   53985   53988      47   53982   53985      49   53982   53988
      49   53997   54000      47   53994   53997      49   53994   54000      49
   54009   54012      47   54006   54009      49   54006   54012      49   54021
   54024      47   54018   54021      49   54018   54024      49   54033   54036
      47   54030   54033      49   54030   54036      49   54045   54048      47
   54042   54045      49   54042   54048      49   54057   54060      47   54054
   54057      49   54054   54060      49   54069   54072      47   54066   54069
      49   54066   54072      49   54081   54084      47   54078   54081      49
   54078   54084      49   54093   54096      47   54090   54093      49   54090
   54096      49   54105   54108      47   54102   54105      49   54102   54108
      49   54117   54120      47   54114   54117      49   54114   54120      49
   54129   54132      47   54126   54129      49   54126   54132      49   54141
   54144      47   54138   54141      49   54138   54144      49   54153   54156
      47   54150   54153      49   54150   54156      49   54165   54168      47
   54162   54165      49   54162   54168      49   54177   54180      47   54174
   54177      49   54174   54180      49   54189   54192      47   54186   54189
      49   54186   54192      49   54201   54204      47   54198   54201      49
   54198   54204      49   54213   54216      47   54210   54213      49   54210
   54216      49   54225   54228      47   54222   54225      49   54222   54228
      49   54237   54240      47   54234   54237      49   54234   54240      49
   54249   54252      47   54246   54249      49   54246   54252      49   54261
   54264      47   54258   54261      49   54258   54264      49   54273   54276
      47   54270   54273      49   54270   54276      49   54285   54288      47
   54282   54285      49   54282   54288      49   54297   54300      47   54294
   54297      49   54294   54300      49   54309   54312      47   54306   54309
      49   54306   54312      49   54321   54324      47   54318   54321      49
   54318   54324      49   54333   54336      47   54330   54333      49   54330
   54336      49   54345   54348      47   54342   54345      49   54342   54348
      49   54357   54360      47   54354   54357      49   54354   54360      49
   54369   54372      47   54366   54369      49   54366   54372      49   54381
   54384      47   54378   54381      49   54378   54384      49   54393   54396
      47   54390   54393      49   54390   54396      49   54405   54408      47
   54402   54405      49   54402   54408      49   54417   54420      47   54414
   54417      49   54414   54420      49   54429   54432      47   54426   54429
      49   54426   54432      49   54441   54444      47   54438   54441      49
   54438   54444      49   54453   54456      47   54450   54453      49   54450
   54456      49   54465   54468      47   54462   54465      49   54462   54468
      49   54477   54480      47   54474   54477      49   54474   54480      49
   54489   54492      47   54486   54489      49   54486   54492      49   54501
   54504      47   54498   54501      49   54498   54504      49   54513   54516
      47   54510   54513      49   54510   54516      49   54525   54528      47
   54522   54525      49   54522   54528      49   54537   54540      47   54534
   54537      49   54534   54540      49   54549   54552      47   54546   54549
      49   54546   54552      49   54561   54564      47   54558   54561      49
   54558   54564      49   54573   54576      47   54570   54573      49   54570
   54576      49   54585   54588      47   54582   54585      49   54582   54588
      49   54597   54600      47   54594   54597      49   54594   54600      49
   54609   54612      47   54606   54609      49   54606   54612      49   54621
   54624      47   54618   54621      49   54618   54624      49   54633   54636
      47   54630   54633      49   54630   54636      49   54645   54648      47
   54642   54645      49   54642   54648      49   54657   54660      47   54654
   54657      49   54654   54660      49   54669   54672      47   54666   54669
      49   54666   54672      49   54681   54684      47   54678   54681      49
   54678   54684      49   54693   54696      47   54690   54693      49   54690
   54696      49   54705   54708      47   54702   54705      49   54702   54708
      49   54717   54720      47   54714   54717      49   54714   54720      49
   54729   54732      47   54726   54729      49   54726   54732      49   54741
   54744      47   54738   54741      49   54738   54744      49   54753   54756
      47   54750   54753      49   54750   54756      49   54765   54768      47
   54762   54765      49   54762   54768      49   54777   54780      47   54774
   54777      49   54774   54780      49   54789   54792      47   54786   54789
      49   54786   54792      49   54801   54804      47   54798   54801      49
   54798   54804      49   54813   54816      47   54810   54813      49   54810
   54816      49   54825   54828      47   54822   54825      49   54822   54828
      49   54837   54840      47   54834   54837      49   54834   54840      49
   54849   54852      47   54846   54849      49   54846   54852      49   54861
   54864      47   54858   54861      49   54858   54864      49   54873   54876
      47   54870   54873      49   54870   54876      49   54885   54888      47
   54882   54885      49   54882   54888      49   54897   54900      47   54894
   54897      49   54894   54900      49   54909   54912      47   54906   54909
      49   54906   54912      49   54921   54924      47   54918   54921      49
   54918   54924      49   54933   54936      47   54930   54933      49   54930
   54936      49   54945   54948      47   54942   54945      49   54942   54948
      49   54957   54960      47   54954   54957      49   54954   54960      49
   54969   54972      47   54966   54969      49   54966   54972      49   54981
   54984      47   54978   54981      49   54978   54984      49   54993   54996
      47   54990   54993      49   54990   54996      49   55005   55008      47
   55002   55005      49   55002   55008      49   55017   55020      47   55014
   55017      49   55014   55020      49   55029   55032      47   55026   55029
      49   55026   55032      49   55041   55044      47   55038   55041      49
   55038   55044      49   55053   55056      47   55050   55053      49   55050
   55056      49   55065   55068      47   55062   55065      49   55062   55068
      49   55077   55080      47   55074   55077      49   55074   55080      49
   55089   55092      47   55086   55089      49   55086   55092      49   55101
   55104      47   55098   55101      49   55098   55104      49   55113   55116
      47   55110   55113      49   55110   55116      49   55125   55128      47
   55122   55125      49   55122   55128      49   55137   55140      47   55134
   55137      49   55134   55140      49   55149   55152      47   55146   55149
      49   55146   55152      49   55161   55164      47   55158   55161      49
   55158   55164      49   55173   55176      47   55170   55173      49   55170
   55176      49   55185   55188      47   55182   55185      49   55182   55188
      49   55197   55200      47   55194   55197      49   55194   55200      49
   55209   55212      47   55206   55209      49   55206   55212      49   55221
   55224      47   55218   55221      49   55218   55224      49   55233   55236
      47   55230   55233      49   55230   55236      49   55245   55248      47
   55242   55245      49   55242   55248      49   55257   55260      47   55254
   55257      49   55254   55260      49   55269   55272      47   55266   55269
      49   55266   55272      49   55281   55284      47   55278   55281      49
   55278   55284      49   55293   55296      47   55290   55293      49   55290
   55296      49   55305   55308      47   55302   55305      49   55302   55308
      49   55317   55320      47   55314   55317      49   55314   55320      49
   55329   55332      47   55326   55329      49   55326   55332      49   55341
   55344      47   55338   55341      49   55338   55344      49   55353   55356
      47   55350   55353      49   55350   55356      49   55365   55368      47
   55362   55365      49   55362   55368      49   55377   55380      47   55374
   55377      49   55374   55380      49   55389   55392      47   55386   55389
      49   55386   55392      49   55401   55404      47   55398   55401      49
   55398   55404      49   55413   55416      47   55410   55413      49   55410
   55416      49   55425   55428      47   55422   55425      49   55422   55428
      49   55437   55440      47   55434   55437      49   55434   55440      49
   55449   55452      47   55446   55449      49   55446   55452      49   55461
   55464      47   55458   55461      49   55458   55464      49   55473   55476
      47   55470   55473      49   55470   55476      49   55485   55488      47
   55482   55485      49   55482   55488      49   55497   55500      47   55494
   55497      49   55494   55500      49   55509   55512      47   55506   55509
      49   55506   55512      49   55521   55524      47   55518   55521      49
   55518   55524      49   55533   55536      47   55530   55533      49   55530
   55536      49   55545   55548      47   55542   55545      49   55542   55548
      49   55557   55560      47   55554   55557      49   55554   55560      49
   55569   55572      47   55566   55569      49   55566   55572      49   55581
   55584      47   55578   55581      49   55578   55584      49   55593   55596
      47   55590   55593      49   55590   55596      49   55605   55608      47
   55602   55605      49   55602   55608      49   55617   55620      47   55614
   55617      49   55614   55620      49   55629   55632      47   55626   55629
      49   55626   55632      49   55641   55644      47   55638   55641      49
   55638   55644      49   55653   55656      47   55650   55653      49   55650
   55656      49   55665   55668      47   55662   55665      49   55662   55668
      49   55677   55680      47   55674   55677      49   55674   55680      49
   55689   55692      47   55686   55689      49   55686   55692      49   55701
   55704      47   55698   55701      49   55698   55704      49   55713   55716
      47   55710   55713      49   55710   55716      49   55725   55728      47
   55722   55725      49   55722   55728      49   55737   55740      47   55734
   55737      49   55734   55740      49   55749   55752      47   55746   55749
      49   55746   55752      49   55761   55764      47   55758   55761      49
   55758   55764      49   55773   55776      47   55770   55773      49   55770
   55776      49   55785   55788      47   55782   55785      49   55782   55788
      49   55797   55800      47   55794   55797      49   55794   55800      49
   55809   55812      47   55806   55809      49   55806   55812      49   55821
   55824      47   55818   55821      49   55818   55824      49   55833   55836
      47   55830   55833      49   55830   55836      49   55845   55848      47
   55842   55845      49   55842   55848      49   55857   55860      47   55854
   55857      49   55854   55860      49   55869   55872      47   55866   55869
      49   55866   55872      49   55881   55884      47   55878   55881      49
   55878   55884      49   55893   55896      47   55890   55893      49   55890
   55896      49   55905   55908      47   55902   55905      49   55902   55908
      49   55917   55920      47   55914   55917      49   55914   55920      49
   55929   55932      47   55926   55929      49   55926   55932      49   55941
   55944      47   55938   55941      49   55938   55944      49   55953   55956
      47   55950   55953      49   55950   55956      49   55965   55968      47
   55962   55965      49   55962   55968      49   55977   55980      47   55974
   55977      49   55974   55980      49   55989   55992      47   55986   55989
      49   55986   55992      49   56001   56004      47   55998   56001      49
   55998   56004      49   56013   56016      47   56010   56013      49   56010
   56016      49   56025   56028      47   56022   56025      49   56022   56028
      49   56037   56040      47   56034   56037      49   56034   56040      49
   56049   56052      47   56046   56049      49   56046   56052      49   56061
   56064      47   56058   56061      49   56058   56064      49   56073   56076
      47   56070   56073      49   56070   56076      49   56085   56088      47
   56082   56085      49   56082   56088      49   56097   56100      47   56094
   56097      49   56094   56100      49   56109   56112      47   56106   56109
      49   56106   56112      49   56121   56124      47   56118   56121      49
   56118   56124      49   56133   56136      47   56130   56133      49   56130
   56136      49   56145   56148      47   56142   56145      49   56142   56148
      49   56157   56160      47   56154   56157      49   56154   56160      49
   56169   56172      47   56166   56169      49   56166   56172      49   56181
   56184      47   56178   56181      49   56178   56184      49   56193   56196
      47   56190   56193      49   56190   56196      49   56205   56208      47
   56202   56205      49   56202   56208      49   56217   56220      47   56214
   56217      49   56214   56220      49   56229   56232      47   56226   56229
      49   56226   56232      49   56241   56244      47   56238   56241      49
   56238   56244      49   56253   56256      47   56250   56253      49   56250
   56256      49   56265   56268      47   56262   56265      49   56262   56268
      49   56277   56280      47   56274   56277      49   56274   56280      49
   56289   56292      47   56286   56289      49   56286   56292      49   56301
   56304      47   56298   56301      49   56298   56304      49   56313   56316
      47   56310   56313      49   56310   56316      49   56325   56328      47
   56322   56325      49   56322   56328      49   56337   56340      47   56334
   56337      49   56334   56340      49   56349   56352      47   56346   56349
      49   56346   56352      49   56361   56364      47   56358   56361      49
   56358   56364      49   56373   56376      47   56370   56373      49   56370
   56376      49   56385   56388      47   56382   56385      49   56382   56388
      49   56397   56400      47   56394   56397      49   56394   56400      49
   56409   56412      47   56406   56409      49   56406   56412      49   56421
   56424      47   56418   56421      49   56418   56424      49   56433   56436
      47   56430   56433      49   56430   56436      49   56445   56448      47
   56442   56445      49   56442   56448      49   56457   56460      47   56454
   56457      49   56454   56460      49   56469   56472      47   56466   56469
      49   56466   56472      49   56481   56484      47   56478   56481      49
   56478   56484      49   56493   56496      47   56490   56493      49   56490
   56496      49   56505   56508      47   56502   56505      49   56502   56508
      49   56517   56520      47   56514   56517      49   56514   56520      49
   56529   56532      47   56526   56529      49   56526   56532      49   56541
   56544      47   56538   56541      49   56538   56544      49   56553   56556
      47   56550   56553      49   56550   56556      49   56565   56568      47
   56562   56565      49   56562   56568      49   56577   56580      47   56574
   56577      49   56574   56580      49   56589   56592      47   56586   56589
      49   56586   56592      49   56601   56604      47   56598   56601      49
   56598   56604      49   56613   56616      47   56610   56613      49   56610
   56616      49   56625   56628      47   56622   56625      49   56622   56628
      49   56637   56640      47   56634   56637      49   56634   56640      49
   56649   56652      47   56646   56649      49   56646   56652      49   56661
   56664      47   56658   56661      49   56658   56664      49   56673   56676
      47   56670   56673      49   56670   56676      49   56685   56688      47
   56682   56685      49   56682   56688      49   56697   56700      47   56694
   56697      49   56694   56700      49   56709   56712      47   56706   56709
      49   56706   56712      49   56721   56724      47   56718   56721      49
   56718   56724      49   56733   56736      47   56730   56733      49   56730
   56736      49   56745   56748      47   56742   56745      49   56742   56748
      49   56757   56760      47   56754   56757      49   56754   56760      49
   56769   56772      47   56766   56769      49   56766   56772      49   56781
   56784      47   56778   56781      49   56778   56784      49   56793   56796
      47   56790   56793      49   56790   56796      49   56805   56808      47
   56802   56805      49   56802   56808      49   56817   56820      47   56814
   56817      49   56814   56820      49   56829   56832      47   56826   56829
      49   56826   56832      49   56841   56844      47   56838   56841      49
   56838   56844      49   56853   56856      47   56850   56853      49   56850
   56856      49   56865   56868      47   56862   56865      49   56862   56868
      49   56877   56880      47   56874   56877      49   56874   56880      49
   56889   56892      47   56886   56889      49   56886   56892      49   56901
   56904      47   56898   56901      49   56898   56904      49   56913   56916
      47   56910   56913      49   56910   56916      49   56925   56928      47
   56922   56925      49   56922   56928      49   56937   56940      47   56934
   56937      49   56934   56940      49   56949   56952      47   56946   56949
      49   56946   56952      49   56961   56964      47   56958   56961      49
   56958   56964      49   56973   56976      47   56970   56973      49   56970
   56976      49   56985   56988      47   56982   56985      49   56982   56988
      49   56997   57000      47   56994   56997      49   56994   57000      49
   57009   57012      47   57006   57009      49   57006   57012      49   57021
   57024      47   57018   57021      49   57018   57024      49   57033   57036
      47   57030   57033      49   57030   57036      49   57045   57048      47
   57042   57045      49   57042   57048      49   57057   57060      47   57054
   57057      49   57054   57060      49   57069   57072      47   57066   57069
      49   57066   57072      49   57081   57084      47   57078   57081      49
   57078   57084      49   57093   57096      47   57090   57093      49   57090
   57096      49   57105   57108      47   57102   57105      49   57102   57108
      49   57117   57120      47   57114   57117      49   57114   57120      49
   57129   57132      47   57126   57129      49   57126   57132      49   57141
   57144      47   57138   57141      49   57138   57144      49   57153   57156
      47   57150   57153      49   57150   57156      49   57165   57168      47
   57162   57165      49   57162   57168      49   57177   57180      47   57174
   57177      49   57174   57180      49   57189   57192      47   57186   57189
      49   57186   57192      49   57201   57204      47   57198   57201      49
   57198   57204      49   57213   57216      47   57210   57213      49   57210
   57216      49   57225   57228      47   57222   57225      49   57222   57228
      49   57237   57240      47   57234   57237      49   57234   57240      49
   57249   57252      47   57246   57249      49   57246   57252      49   57261
   57264      47   57258   57261      49   57258   57264      49   57273   57276
      47   57270   57273      49   57270   57276      49   57285   57288      47
   57282   57285      49   57282   57288      49   57297   57300      47   57294
   57297      49   57294   57300      49   57309   57312      47   57306   57309
      49   57306   57312      49   57321   57324      47   57318   57321      49
   57318   57324      49   57333   57336      47   57330   57333      49   57330
   57336      49   57345   57348      47   57342   57345      49   57342   57348
      49   57357   57360      47   57354   57357      49   57354   57360      49
   57369   57372      47   57366   57369      49   57366   57372      49   57381
   57384      47   57378   57381      49   57378   57384      49   57393   57396
      47   57390   57393      49   57390   57396      49   57405   57408      47
   57402   57405      49   57402   57408      49   57417   57420      47   57414
   57417      49   57414   57420      49   57429   57432      47   57426   57429
      49   57426   57432      49   57441   57444      47   57438   57441      49
   57438   57444      49   57453   57456      47   57450   57453      49   57450
   57456      49   57465   57468      47   57462   57465      49   57462   57468
      49   57477   57480      47   57474   57477      49   57474   57480      49
   57489   57492      47   57486   57489      49   57486   57492      49   57501
   57504      47   57498   57501      49   57498   57504      49   57513   57516
      47   57510   57513      49   57510   57516      49   57525   57528      47
   57522   57525      49   57522   57528      49   57537   57540      47   57534
   57537      49   57534   57540      49   57549   57552      47   57546   57549
      49   57546   57552      49   57561   57564      47   57558   57561      49
   57558   57564      49   57573   57576      47   57570   57573      49   57570
   57576      49   57585   57588      47   57582   57585      49   57582   57588
      49   57597   57600      47   57594   57597      49   57594   57600      49
   57609   57612      47   57606   57609      49   57606   57612      49   57621
   57624      47   57618   57621      49   57618   57624      49   57633   57636
      47   57630   57633      49   57630   57636      49   57645   57648      47
   57642   57645      49   57642   57648      49   57657   57660      47   57654
   57657      49   57654   57660      49   57669   57672      47   57666   57669
      49   57666   57672      49   57681   57684      47   57678   57681      49
   57678   57684      49   57693   57696      47   57690   57693      49   57690
   57696      49   57705   57708      47   57702   57705      49   57702   57708
      49   57717   57720      47   57714   57717      49   57714   57720      49
   57729   57732      47   57726   57729      49   57726   57732      49   57741
   57744      47   57738   57741      49   57738   57744      49   57753   57756
      47   57750   57753      49   57750   57756      49   57765   57768      47
   57762   57765      49   57762   57768      49   57777   57780      47   57774
   57777      49   57774   57780      49   57789   57792      47   57786   57789
      49   57786   57792      49   57801   57804      47   57798   57801      49
   57798   57804      49   57813   57816      47   57810   57813      49   57810
   57816      49   57825   57828      47   57822   57825      49   57822   57828
      49   57837   57840      47   57834   57837      49   57834   57840      49
   57849   57852      47   57846   57849      49   57846   57852      49   57861
   57864      47   57858   57861      49   57858   57864      49   57873   57876
      47   57870   57873      49   57870   57876      49   57885   57888      47
   57882   57885      49   57882   57888      49   57897   57900      47   57894
   57897      49   57894   57900      49   57909   57912      47   57906   57909
      49   57906   57912      49   57921   57924      47   57918   57921      49
   57918   57924      49   57933   57936      47   57930   57933      49   57930
   57936      49   57945   57948      47   57942   57945      49   57942   57948
      49   57957   57960      47   57954   57957      49   57954   57960      49
   57969   57972      47   57966   57969      49   57966   57972      49   57981
   57984      47   57978   57981      49   57978   57984      49   57993   57996
      47   57990   57993      49   57990   57996      49   58005   58008      47
   58002   58005      49   58002   58008      49   58017   58020      47   58014
   58017      49   58014   58020      49   58029   58032      47   58026   58029
      49   58026   58032      49   58041   58044      47   58038   58041      49
   58038   58044      49   58053   58056      47   58050   58053      49   58050
   58056      49   58065   58068      47   58062   58065      49   58062   58068
      49   58077   58080      47   58074   58077      49   58074   58080      49
   58089   58092      47   58086   58089      49   58086   58092      49   58101
   58104      47   58098   58101      49   58098   58104      49   58113   58116
      47   58110   58113      49   58110   58116      49   58125   58128      47
   58122   58125      49   58122   58128      49   58137   58140      47   58134
   58137      49   58134   58140      49   58149   58152      47   58146   58149
      49   58146   58152      49   58161   58164      47   58158   58161      49
   58158   58164      49   58173   58176      47   58170   58173      49   58170
   58176      49   58185   58188      47   58182   58185      49   58182   58188
      49   58197   58200      47   58194   58197      49   58194   58200      49
   58209   58212      47   58206   58209      49   58206   58212      49   58221
   58224      47   58218   58221      49   58218   58224      49   58233   58236
      47   58230   58233      49   58230   58236      49   58245   58248      47
   58242   58245      49   58242   58248      49   58257   58260      47   58254
   58257      49   58254   58260      49   58269   58272      47   58266   58269
      49   58266   58272      49   58281   58284      47   58278   58281      49
   58278   58284      49   58293   58296      47   58290   58293      49   58290
   58296      49   58305   58308      47   58302   58305      49   58302   58308
      49   58317   58320      47   58314   58317      49   58314   58320      49
   58329   58332      47   58326   58329      49   58326   58332      49   58341
   58344      47   58338   58341      49   58338   58344      49   58353   58356
      47   58350   58353      49   58350   58356      49   58365   58368      47
   58362   58365      49   58362   58368      49   58377   58380      47   58374
   58377      49   58374   58380      49   58389   58392      47   58386   58389
      49   58386   58392      49   58401   58404      47   58398   58401      49
   58398   58404      49   58413   58416      47   58410   58413      49   58410
   58416      49   58425   58428      47   58422   58425      49   58422   58428
      49   58437   58440      47   58434   58437      49   58434   58440      49
   58449   58452      47   58446   58449      49   58446   58452      49   58461
   58464      47   58458   58461      49   58458   58464      49   58473   58476
      47   58470   58473      49   58470   58476      49   58485   58488      47
   58482   58485      49   58482   58488      49   58497   58500      47   58494
   58497      49   58494   58500      49   58509   58512      47   58506   58509
      49   58506   58512      49   58521   58524      47   58518   58521      49
   58518   58524      49   58533   58536      47   58530   58533      49   58530
   58536      49   58545   58548      47   58542   58545      49   58542   58548
      49   58557   58560      47   58554   58557      49   58554   58560      49
   58569   58572      47   58566   58569      49   58566   58572      49   58581
   58584      47   58578   58581      49   58578   58584      49   58593   58596
      47   58590   58593      49   58590   58596      49   58605   58608      47
   58602   58605      49   58602   58608      49   58617   58620      47   58614
   58617      49   58614   58620      49   58629   58632      47   58626   58629
      49   58626   58632      49   58641   58644      47   58638   58641      49
   58638   58644      49   58653   58656      47   58650   58653      49   58650
   58656      49   58665   58668      47   58662   58665      49   58662   58668
      49   58677   58680      47   58674   58677      49   58674   58680      49
   58689   58692      47   58686   58689      49   58686   58692      49   58701
   58704      47   58698   58701      49   58698   58704      49   58713   58716
      47   58710   58713      49   58710   58716      49   58725   58728      47
   58722   58725      49   58722   58728      49   58737   58740      47   58734
   58737      49   58734   58740      49   58749   58752      47   58746   58749
      49   58746   58752      49   58761   58764      47   58758   58761      49
   58758   58764      49   58773   58776      47   58770   58773      49   58770
   58776      49   58785   58788      47   58782   58785      49   58782   58788
      49   58797   58800      47   58794   58797      49   58794   58800      49
   58809   58812      47   58806   58809      49   58806   58812      49   58821
   58824      47   58818   58821      49   58818   58824      49   58833   58836
      47   58830   58833      49   58830   58836      49   58845   58848      47
   58842   58845      49   58842   58848      49   58857   58860      47   58854
   58857      49   58854   58860      49   58869   58872      47   58866   58869
      49   58866   58872      49   58881   58884      47   58878   58881      49
   58878   58884      49   58893   58896      47   58890   58893      49   58890
   58896      49   58905   58908      47   58902   58905      49   58902   58908
      49   58917   58920      47   58914   58917      49   58914   58920      49
   58929   58932      47   58926   58929      49   58926   58932      49   58941
   58944      47   58938   58941      49   58938   58944      49   58953   58956
      47   58950   58953      49   58950   58956      49   58965   58968      47
   58962   58965      49   58962   58968      49   58977   58980      47   58974
   58977      49   58974   58980      49   58989   58992      47   58986   58989
      49   58986   58992      49   59001   59004      47   58998   59001      49
   58998   59004      49   59013   59016      47   59010   59013      49   59010
   59016      49   59025   59028      47   59022   59025      49   59022   59028
      49   59037   59040      47   59034   59037      49   59034   59040      49
   59049   59052      47   59046   59049      49   59046   59052      49   59061
   59064      47   59058   59061      49   59058   59064      49   59073   59076
      47   59070   59073      49   59070   59076      49   59085   59088      47
   59082   59085      49   59082   59088      49   59097   59100      47   59094
   59097      49   59094   59100      49   59109   59112      47   59106   59109
      49   59106   59112      49   59121   59124      47   59118   59121      49
   59118   59124      49   59133   59136      47   59130   59133      49   59130
   59136      49   59145   59148      47   59142   59145      49   59142   59148
      49   59157   59160      47   59154   59157      49   59154   59160      49
   59169   59172      47   59166   59169      49   59166   59172      49   59181
   59184      47   59178   59181      49   59178   59184      49   59193   59196
      47   59190   59193      49   59190   59196      49   59205   59208      47
   59202   59205      49   59202   59208      49   59217   59220      47   59214
   59217      49   59214   59220      49   59229   59232      47   59226   59229
      49   59226   59232      49   59241   59244      47   59238   59241      49
   59238   59244      49   59253   59256      47   59250   59253      49   59250
   59256      49   59265   59268      47   59262   59265      49   59262   59268
      49   59277   59280      47   59274   59277      49   59274   59280      49
   59289   59292      47   59286   59289      49   59286   59292      49   59301
   59304      47   59298   59301      49   59298   59304      49   59313   59316
      47   59310   59313      49   59310   59316      49   59325   59328      47
   59322   59325      49   59322   59328      49   59337   59340      47   59334
   59337      49   59334   59340      49   59349   59352      47   59346   59349
      49   59346   59352      49   59361   59364      47   59358   59361      49
   59358   59364      49   59373   59376      47   59370   59373      49   59370
   59376      49   59385   59388      47   59382   59385      49   59382   59388
      49   59397   59400      47   59394   59397      49   59394   59400      49
   59409   59412      47   59406   59409      49   59406   59412      49   59421
   59424      47   59418   59421      49   59418   59424      49   59433   59436
      47   59430   59433      49   59430   59436      49   59445   59448      47
   59442   59445      49   59442   59448      49   59457   59460      47   59454
   59457      49   59454   59460      49   59469   59472      47   59466   59469
      49   59466   59472      49   59481   59484      47   59478   59481      49
   59478   59484      49   59493   59496      47   59490   59493      49   59490
   59496      49   59505   59508      47   59502   59505      49   59502   59508
      49   59517   59520      47   59514   59517      49   59514   59520      49
   59529   59532      47   59526   59529      49   59526   59532      49   59541
   59544      47   59538   59541      49   59538   59544      49   59553   59556
      47   59550   59553      49   59550   59556      49   59565   59568      47
   59562   59565      49   59562   59568      49   59577   59580      47   59574
   59577      49   59574   59580      49   59589   59592      47   59586   59589
      49   59586   59592      49   59601   59604      47   59598   59601      49
   59598   59604      49   59613   59616      47   59610   59613      49   59610
   59616      49   59625   59628      47   59622   59625      49   59622   59628
      49   59637   59640      47   59634   59637      49   59634   59640      49
   59649   59652      47   59646   59649      49   59646   59652      49   59661
   59664      47   59658   59661      49   59658   59664      49   59673   59676
      47   59670   59673      49   59670   59676      49   59685   59688      47
   59682   59685      49   59682   59688      49   59697   59700      47   59694
   59697      49   59694   59700      49   59709   59712      47   59706   59709
      49   59706   59712      49   59721   59724      47   59718   59721      49
   59718   59724      49   59733   59736      47   59730   59733      49   59730
   59736      49   59745   59748      47   59742   59745      49   59742   59748
      49   59757   59760      47   59754   59757      49   59754   59760      49
   59769   59772      47   59766   59769      49   59766   59772      49   59781
   59784      47   59778   59781      49   59778   59784      49   59793   59796
      47   59790   59793      49   59790   59796      49   59805   59808      47
   59802   59805      49   59802   59808      49   59817   59820      47   59814
   59817      49   59814   59820      49   59829   59832      47   59826   59829
      49   59826   59832      49   59841   59844      47   59838   59841      49
   59838   59844      49   59853   59856      47   59850   59853      49   59850
   59856      49   59865   59868      47   59862   59865      49   59862   59868
      49   59877   59880      47   59874   59877      49   59874   59880      49
   59889   59892      47   59886   59889      49   59886   59892      49   59901
   59904      47   59898   59901      49   59898   59904      49   59913   59916
      47   59910   59913      49   59910   59916      49   59925   59928      47
   59922   59925      49   59922   59928      49   59937   59940      47   59934
   59937      49   59934   59940      49   59949   59952      47   59946   59949
      49   59946   59952      49   59961   59964      47   59958   59961      49
   59958   59964      49   59973   59976      47   59970   59973      49   59970
   59976      49   59985   59988      47   59982   59985      49   59982   59988
      49   59997   60000      47   59994   59997      49   59994   60000      49
   60009   60012      47   60006   60009      49   60006   60012      49   60021
   60024      47   60018   60021      49   60018   60024      49   60033   60036
      47   60030   60033      49   60030   60036      49   60045   60048      47
   60042   60045      49   60042   60048      49   60057   60060      47   60054
   60057      49   60054   60060      49   60069   60072      47   60066   60069
      49   60066   60072      49   60081   60084      47   60078   60081      49
   60078   60084      49   60093   60096      47   60090   60093      49   60090
   60096      49   60105   60108      47   60102   60105      49   60102   60108
      49   60117   60120      47   60114   60117      49   60114   60120      49
   60129   60132      47   60126   60129      49   60126   60132      49   60141
   60144      47   60138   60141      49   60138   60144      49   60153   60156
      47   60150   60153      49   60150   60156      49   60165   60168      47
   60162   60165      49   60162   60168      49   60177   60180      47   60174
   60177      49   60174   60180      49   60189   60192      47   60186   60189
      49   60186   60192      49   60201   60204      47   60198   60201      49
   60198   60204      49   60213   60216      47   60210   60213      49   60210
   60216      49   60225   60228      47   60222   60225      49   60222   60228
      49   60237   60240      47   60234   60237      49   60234   60240      49
   60249   60252      47   60246   60249      49   60246   60252      49   60261
   60264      47   60258   60261      49   60258   60264      49   60273   60276
      47   60270   60273      49   60270   60276      49   60285   60288      47
   60282   60285      49   60282   60288      49   60297   60300      47   60294
   60297      49   60294   60300      49   60309   60312      47   60306   60309
      49   60306   60312      49   60321   60324      47   60318   60321      49
   60318   60324      49   60333   60336      47   60330   60333      49   60330
   60336      49   60345   60348      47   60342   60345      49   60342   60348
      49   60357   60360      47   60354   60357      49   60354   60360      49
   60369   60372      47   60366   60369      49   60366   60372      49   60381
   60384      47   60378   60381      49   60378   60384      49   60393   60396
      47   60390   60393      49   60390   60396      49   60405   60408      47
   60402   60405      49   60402   60408      49   60417   60420      47   60414
   60417      49   60414   60420      49   60429   60432      47   60426   60429
      49   60426   60432      49   60441   60444      47   60438   60441      49
   60438   60444      49   60453   60456      47   60450   60453      49   60450
   60456      49   60465   60468      47   60462   60465      49   60462   60468
      49   60477   60480      47   60474   60477      49   60474   60480      49
   60489   60492      47   60486   60489      49   60486   60492      49   60501
   60504      47   60498   60501      49   60498   60504      49   60513   60516
      47   60510   60513      49   60510   60516      49   60525   60528      47
   60522   60525      49   60522   60528      49   60537   60540      47   60534
   60537      49   60534   60540      49   60549   60552      47   60546   60549
      49   60546   60552      49   60561   60564      47   60558   60561      49
   60558   60564      49   60573   60576      47   60570   60573      49   60570
   60576      49   60585   60588      47   60582   60585      49   60582   60588
      49   60597   60600      47   60594   60597      49   60594   60600      49
   60609   60612      47   60606   60609      49   60606   60612      49   60621
   60624      47   60618   60621      49   60618   60624      49   60633   60636
      47   60630   60633      49   60630   60636      49   60645   60648      47
   60642   60645      49   60642   60648      49   60657   60660      47   60654
   60657      49   60654   60660      49   60669   60672      47   60666   60669
      49   60666   60672      49   60681   60684      47   60678   60681      49
   60678   60684      49   60693   60696      47   60690   60693      49   60690
   60696      49   60705   60708      47   60702   60705      49   60702   60708
      49   60717   60720      47   60714   60717      49   60714   60720      49
   60729   60732      47   60726   60729      49   60726   60732      49   60741
   60744      47   60738   60741      49   60738   60744      49   60753   60756
      47   60750   60753      49   60750   60756      49   60765   60768      47
   60762   60765      49   60762   60768      49   60777   60780      47   60774
   60777      49   60774   60780      49   60789   60792      47   60786   60789
      49   60786   60792      49   60801   60804      47   60798   60801      49
   60798   60804      49   60813   60816      47   60810   60813      49   60810
   60816      49   60825   60828      47   60822   60825      49   60822   60828
      49   60837   60840      47   60834   60837      49   60834   60840      49
   60849   60852      47   60846   60849      49   60846   60852      49   60861
   60864      47   60858   60861      49   60858   60864      49   60873   60876
      47   60870   60873      49   60870   60876      49   60885   60888      47
   60882   60885      49   60882   60888      49   60897   60900      47   60894
   60897      49   60894   60900      49   60909   60912      47   60906   60909
      49   60906   60912      49   60921   60924      47   60918   60921      49
   60918   60924      49   60933   60936      47   60930   60933      49   60930
   60936      49   60945   60948      47   60942   60945      49   60942   60948
      49   60957   60960      47   60954   60957      49   60954   60960      49
   60969   60972      47   60966   60969      49   60966   60972      49   60981
   60984      47   60978   60981      49   60978   60984      49   60993   60996
      47   60990   60993      49   60990   60996      49   61005   61008      47
   61002   61005      49   61002   61008      49   61017   61020      47   61014
   61017      49   61014   61020      49   61029   61032      47   61026   61029
      49   61026   61032      49   61041   61044      47   61038   61041      49
   61038   61044      49   61053   61056      47   61050   61053      49   61050
   61056      49   61065   61068      47   61062   61065      49   61062   61068
      49   61077   61080      47   61074   61077      49   61074   61080      49
   61089   61092      47   61086   61089      49   61086   61092      49   61101
   61104      47   61098   61101      49   61098   61104      49   61113   61116
      47   61110   61113      49   61110   61116      49   61125   61128      47
   61122   61125      49   61122   61128      49   61137   61140      47   61134
   61137      49   61134   61140      49   61149   61152      47   61146   61149
      49   61146   61152      49   61161   61164      47   61158   61161      49
   61158   61164      49   61173   61176      47   61170   61173      49   61170
   61176      49   61185   61188      47   61182   61185      49   61182   61188
      49   61197   61200      47   61194   61197      49   61194   61200      49
   61209   61212      47   61206   61209      49   61206   61212      49   61221
   61224      47   61218   61221      49   61218   61224      49   61233   61236
      47   61230   61233      49   61230   61236      49   61245   61248      47
   61242   61245      49   61242   61248      49   61257   61260      47   61254
   61257      49   61254   61260      49   61269   61272      47   61266   61269
      49   61266   61272      49   61281   61284      47   61278   61281      49
   61278   61284      49   61293   61296      47   61290   61293      49   61290
   61296      49   61305   61308      47   61302   61305      49   61302   61308
      49   61317   61320      47   61314   61317      49   61314   61320      49
   61329   61332      47   61326   61329      49   61326   61332      49   61341
   61344      47   61338   61341      49   61338   61344      49   61353   61356
      47   61350   61353      49   61350   61356      49   61365   61368      47
   61362   61365      49   61362   61368      49   61377   61380      47   61374
   61377      49   61374   61380      49   61389   61392      47   61386   61389
      49   61386   61392      49   61401   61404      47   61398   61401      49
   61398   61404      49   61413   61416      47   61410   61413      49   61410
   61416      49   61425   61428      47   61422   61425      49   61422   61428
      49   61437   61440      47   61434   61437      49   61434   61440      49
   61449   61452      47   61446   61449      49   61446   61452      49   61461
   61464      47   61458   61461      49   61458   61464      49   61473   61476
      47   61470   61473      49   61470   61476      49   61485   61488      47
   61482   61485      49   61482   61488      49   61497   61500      47   61494
   61497      49   61494   61500      49   61509   61512      47   61506   61509
      49   61506   61512      49   61521   61524      47   61518   61521      49
   61518   61524      49   61533   61536      47   61530   61533      49   61530
   61536      49   61545   61548      47   61542   61545      49   61542   61548
      49   61557   61560      47   61554   61557      49   61554   61560      49
   61569   61572      47   61566   61569      49   61566   61572      49   61581
   61584      47   61578   61581      49   61578   61584      49   61593   61596
      47   61590   61593      49   61590   61596      49   61605   61608      47
   61602   61605      49   61602   61608      49   61617   61620      47   61614
   61617      49   61614   61620      49   61629   61632      47   61626   61629
      49   61626   61632      49   61641   61644      47   61638   61641      49
   61638   61644      49   61653   61656      47   61650   61653      49   61650
   61656      49   61665   61668      47   61662   61665      49   61662   61668
      49   61677   61680      47   61674   61677      49   61674   61680      49
   61689   61692      47   61686   61689      49   61686   61692      49   61701
   61704      47   61698   61701      49   61698   61704      49   61713   61716
      47   61710   61713      49   61710   61716      49   61725   61728      47
   61722   61725      49   61722   61728      49   61737   61740      47   61734
   61737      49   61734   61740      49   61749   61752      47   61746   61749
      49   61746   61752      49   61761   61764      47   61758   61761      49
   61758   61764      49   61773   61776      47   61770   61773      49   61770
   61776      49   61785   61788      47   61782   61785      49   61782   61788
      49   61797   61800      47   61794   61797      49   61794   61800      49
   61809   61812      47   61806   61809      49   61806   61812      49   61821
   61824      47   61818   61821      49   61818   61824      49   61833   61836
      47   61830   61833      49   61830   61836      49   61845   61848      47
   61842   61845      49   61842   61848      49   61857   61860      47   61854
   61857      49   61854   61860      49   61869   61872      47   61866   61869
      49   61866   61872      49   61881   61884      47   61878   61881      49
   61878   61884      49   61893   61896      47   61890   61893      49   61890
   61896      49   61905   61908      47   61902   61905      49   61902   61908
      49   61917   61920      47   61914   61917      49   61914   61920      49
   61929   61932      47   61926   61929      49   61926   61932      49   61941
   61944      47   61938   61941      49   61938   61944      49   61953   61956
      47   61950   61953      49   61950   61956      49   61965   61968      47
   61962   61965      49   61962   61968      49   61977   61980      47   61974
   61977      49   61974   61980      49   61989   61992      47   61986   61989
      49   61986   61992      49   62001   62004      47   61998   62001      49
   61998   62004      49   62013   62016      47   62010   62013      49   62010
   62016      49   62025   62028      47   62022   62025      49   62022   62028
      49   62037   62040      47   62034   62037      49   62034   62040      49
   62049   62052      47   62046   62049      49   62046   62052      49   62061
   62064      47   62058   62061      49   62058   62064      49   62073   62076
      47   62070   62073      49   62070   62076      49   62085   62088      47
   62082   62085      49   62082   62088      49   62097   62100      47   62094
   62097      49   62094   62100      49   62109   62112      47   62106   62109
      49   62106   62112      49   62121   62124      47   62118   62121      49
   62118   62124      49   62133   62136      47   62130   62133      49   62130
   62136      49   62145   62148      47   62142   62145      49   62142   62148
      49   62157   62160      47   62154   62157      49   62154   62160      49
   62169   62172      47   62166   62169      49   62166   62172      49   62181
   62184      47   62178   62181      49   62178   62184      49   62193   62196
      47   62190   62193      49   62190   62196      49   62205   62208      47
   62202   62205      49   62202   62208      49   62217   62220      47   62214
   62217      49   62214   62220      49   62229   62232      47   62226   62229
      49   62226   62232      49   62241   62244      47   62238   62241      49
   62238   62244      49   62253   62256      47   62250   62253      49   62250
   62256      49   62265   62268      47   62262   62265      49   62262   62268
      49   62277   62280      47   62274   62277      49   62274   62280      49
   62289   62292      47   62286   62289      49   62286   62292      49   62301
   62304      47   62298   62301      49   62298   62304      49   62313   62316
      47   62310   62313      49   62310   62316      49   62325   62328      47
   62322   62325      49   62322   62328      49   62337   62340      47   62334
   62337      49   62334   62340      49   62349   62352      47   62346   62349
      49   62346   62352      49   62361   62364      47   62358   62361      49
   62358   62364      49   62373   62376      47   62370   62373      49   62370
   62376      49   62385   62388      47   62382   62385      49   62382   62388
      49   62397   62400      47   62394   62397      49   62394   62400      49
   62409   62412      47   62406   62409      49   62406   62412      49   62421
   62424      47   62418   62421      49   62418   62424      49   62433   62436
      47   62430   62433      49   62430   62436      49   62445   62448      47
   62442   62445      49   62442   62448      49   62457   62460      47   62454
   62457      49   62454   62460      49   62469   62472      47   62466   62469
      49   62466   62472      49   62481   62484      47   62478   62481      49
   62478   62484      49   62493   62496      47   62490   62493      49   62490
   62496      49   62505   62508      47   62502   62505      49   62502   62508
      49   62517   62520      47   62514   62517      49   62514   62520      49
   62529   62532      47   62526   62529      49   62526   62532      49   62541
   62544      47   62538   62541      49   62538   62544      49   62553   62556
      47   62550   62553      49   62550   62556      49   62565   62568      47
   62562   62565      49   62562   62568      49   62577   62580      47   62574
   62577      49   62574   62580      49   62589   62592      47   62586   62589
      49   62586   62592      49   62601   62604      47   62598   62601      49
   62598   62604      49   62613   62616      47   62610   62613      49   62610
   62616      49   62625   62628      47   62622   62625      49   62622   62628
      49   62637   62640      47   62634   62637      49   62634   62640      49
   62649   62652      47   62646   62649      49   62646   62652      49   62661
   62664      47   62658   62661      49   62658   62664      49   62673   62676
      47   62670   62673      49   62670   62676      49   62685   62688      47
   62682   62685      49   62682   62688      49   62697   62700      47   62694
   62697      49   62694   62700      49   62709   62712      47   62706   62709
      49   62706   62712      49   62721   62724      47   62718   62721      49
   62718   62724      49   62733   62736      47   62730   62733      49   62730
   62736      49   62745   62748      47   62742   62745      49   62742   62748
      49   62757   62760      47   62754   62757      49   62754   62760      49
   62769   62772      47   62766   62769      49   62766   62772      49   62781
   62784      47   62778   62781      49   62778   62784      49   62793   62796
      47   62790   62793      49   62790   62796      49   62805   62808      47
   62802   62805      49   62802   62808      49   62817   62820      47   62814
   62817      49   62814   62820      49   62829   62832      47   62826   62829
      49   62826   62832      49   62841   62844      47   62838   62841      49
   62838   62844      49   62853   62856      47   62850   62853      49   62850
   62856      49   62865   62868      47   62862   62865      49   62862   62868
      49   62877   62880      47   62874   62877      49   62874   62880      49
   62889   62892      47   62886   62889      49   62886   62892      49   62901
   62904      47   62898   62901      49   62898   62904      49   62913   62916
      47   62910   62913      49   62910   62916      49   62925   62928      47
   62922   62925      49   62922   62928      49   62937   62940      47   62934
   62937      49   62934   62940      49   62949   62952      47   62946   62949
      49   62946   62952      49   62961   62964      47   62958   62961      49
   62958   62964      49   62973   62976      47   62970   62973      49   62970
   62976      49   62985   62988      47   62982   62985      49   62982   62988
      49   62997   63000      47   62994   62997      49   62994   63000      49
   63009   63012      47   63006   63009      49   63006   63012      49   63021
   63024      47   63018   63021      49   63018   63024      49   63033   63036
      47   63030   63033      49   63030   63036      49   63045   63048      47
   63042   63045      49   63042   63048      49   63057   63060      47   63054
   63057      49   63054   63060      49   63069   63072      47   63066   63069
      49   63066   63072      49   63081   63084      47   63078   63081      49
   63078   63084      49   63093   63096      47   63090   63093      49   63090
   63096      49   63105   63108      47   63102   63105      49   63102   63108
      49   63117   63120      47   63114   63117      49   63114   63120      49
   63129   63132      47   63126   63129      49   63126   63132      49   63141
   63144      47   63138   63141      49   63138   63144      49   63153   63156
      47   63150   63153      49   63150   63156      49   63165   63168      47
   63162   63165      49   63162   63168      49   63177   63180      47   63174
   63177      49   63174   63180      49   63189   63192      47   63186   63189
      49   63186   63192      49   63201   63204      47   63198   63201      49
   63198   63204      49   63213   63216      47   63210   63213      49   63210
   63216      49   63225   63228      47   63222   63225      49   63222   63228
      49   63237   63240      47   63234   63237      49   63234   63240      49
   63249   63252      47   63246   63249      49   63246   63252      49   63261
   63264      47   63258   63261      49   63258   63264      49   63273   63276
      47   63270   63273      49   63270   63276      49   63285   63288      47
   63282   63285      49   63282   63288      49   63297   63300      47   63294
   63297      49   63294   63300      49   63309   63312      47   63306   63309
      49   63306   63312      49   63321   63324      47   63318   63321      49
   63318   63324      49   63333   63336      47   63330   63333      49   63330
   63336      49   63345   63348      47   63342   63345      49   63342   63348
      49   63357   63360      47   63354   63357      49   63354   63360      49
   63369   63372      47   63366   63369      49   63366   63372      49   63381
   63384      47   63378   63381      49   63378   63384      49   63393   63396
      47   63390   63393      49   63390   63396      49   63405   63408      47
   63402   63405      49   63402   63408      49   63417   63420      47   63414
   63417      49   63414   63420      49   63429   63432      47   63426   63429
      49   63426   63432      49   63441   63444      47   63438   63441      49
   63438   63444      49   63453   63456      47   63450   63453      49   63450
   63456      49   63465   63468      47   63462   63465      49   63462   63468
      49   63477   63480      47   63474   63477      49   63474   63480      49
   63489   63492      47   63486   63489      49   63486   63492      49   63501
   63504      47   63498   63501      49   63498   63504      49   63513   63516
      47   63510   63513      49   63510   63516      49   63525   63528      47
   63522   63525      49   63522   63528      49   63537   63540      47   63534
   63537      49   63534   63540      49   63549   63552      47   63546   63549
      49   63546   63552      49   63561   63564      47   63558   63561      49
   63558   63564      49   63573   63576      47   63570   63573      49   63570
   63576      49   63585   63588      47   63582   63585      49   63582   63588
      49   63597   63600      47   63594   63597      49   63594   63600      49
   63609   63612      47   63606   63609      49   63606   63612      49   63621
   63624      47   63618   63621      49   63618   63624      49   63633   63636
      47   63630   63633      49   63630   63636      49   63645   63648      47
   63642   63645      49   63642   63648      49   63657   63660      47   63654
   63657      49   63654   63660      49   63669   63672      47   63666   63669
      49   63666   63672      49   63681   63684      47   63678   63681      49
   63678   63684      49   63693   63696      47   63690   63693      49   63690
   63696      49   63705   63708      47   63702   63705      49   63702   63708
      49   63717   63720      47   63714   63717      49   63714   63720      49
   63729   63732      47   63726   63729      49   63726   63732      49   63741
   63744      47   63738   63741      49   63738   63744      49   63753   63756
      47   63750   63753      49   63750   63756      49   63765   63768      47
   63762   63765      49   63762   63768      49   63777   63780      47   63774
   63777      49   63774   63780      49   63789   63792      47   63786   63789
      49   63786   63792      49   63801   63804      47   63798   63801      49
   63798   63804      49   63813   63816      47   63810   63813      49   63810
   63816      49   63825   63828      47   63822   63825      49   63822   63828
      49   63837   63840      47   63834   63837      49   63834   63840      49
   63849   63852      47   63846   63849      49   63846   63852      49   63861
   63864      47   63858   63861      49   63858   63864      49   63873   63876
      47   63870   63873      49   63870   63876      49   63885   63888      47
   63882   63885      49   63882   63888      49   63897   63900      47   63894
   63897      49   63894   63900      49   63909   63912      47   63906   63909
      49   63906   63912      49   63921   63924      47   63918   63921      49
   63918   63924      49   63933   63936      47   63930   63933      49   63930
   63936      49   63945   63948      47   63942   63945      49   63942   63948
      49   63957   63960      47   63954   63957      49   63954   63960      49
   63969   63972      47   63966   63969      49   63966   63972      49   63981
   63984      47   63978   63981      49   63978   63984      49   63993   63996
      47   63990   63993      49   63990   63996      49   64005   64008      47
   64002   64005      49   64002   64008      49   64017   64020      47   64014
   64017      49   64014   64020      49   64029   64032      47   64026   64029
      49   64026   64032      49   64041   64044      47   64038   64041      49
   64038   64044      49   64053   64056      47   64050   64053      49   64050
   64056      49   64065   64068      47   64062   64065      49   64062   64068
      49   64077   64080      47   64074   64077      49   64074   64080      49
   64089   64092      47   64086   64089      49   64086   64092      49   64101
   64104      47   64098   64101      49   64098   64104      49   64113   64116
      47   64110   64113      49   64110   64116      49   64125   64128      47
   64122   64125      49   64122   64128      49   64137   64140      47   64134
   64137      49   64134   64140      49   64149   64152      47   64146   64149
      49   64146   64152      49   64161   64164      47   64158   64161      49
   64158   64164      49   64173   64176      47   64170   64173      49   64170
   64176      49   64185   64188      47   64182   64185      49   64182   64188
      49   64197   64200      47   64194   64197      49   64194   64200      49
   64209   64212      47   64206   64209      49   64206   64212      49   64221
   64224      47   64218   64221      49   64218   64224      49   64233   64236
      47   64230   64233      49   64230   64236      49   64245   64248      47
   64242   64245      49   64242   64248      49   64257   64260      47   64254
   64257      49   64254   64260      49   64269   64272      47   64266   64269
      49   64266   64272      49   64281   64284      47   64278   64281      49
   64278   64284      49   64293   64296      47   64290   64293      49   64290
   64296      49   64305   64308      47   64302   64305      49   64302   64308
      49   64317   64320      47   64314   64317      49   64314   64320      49
   64329   64332      47   64326   64329      49   64326   64332      49   64341
   64344      47   64338   64341      49   64338   64344      49   64353   64356
      47   64350   64353      49   64350   64356      49   64365   64368      47
   64362   64365      49   64362   64368      49   64377   64380      47   64374
   64377      49   64374   64380      49   64389   64392      47   64386   64389
      49   64386   64392      49   64401   64404      47   64398   64401      49
   64398   64404      49   64413   64416      47   64410   64413      49   64410
   64416      49   64425   64428      47   64422   64425      49   64422   64428
      49   64437   64440      47   64434   64437      49   64434   64440      49
   64449   64452      47   64446   64449      49   64446   64452      49   64461
   64464      47   64458   64461      49   64458   64464      49   64473   64476
      47   64470   64473      49   64470   64476      49   64485   64488      47
   64482   64485      49   64482   64488      49   64497   64500      47   64494
   64497      49   64494   64500      49   64509   64512      47   64506   64509
      49   64506   64512      49   64521   64524      47   64518   64521      49
   64518   64524      49   64533   64536      47   64530   64533      49   64530
   64536      49   64545   64548      47   64542   64545      49   64542   64548
      49   64557   64560      47   64554   64557      49   64554   64560      49
   64569   64572      47   64566   64569      49   64566   64572      49   64581
   64584      47   64578   64581      49   64578   64584      49   64593   64596
      47   64590   64593      49   64590   64596      49   64605   64608      47
   64602   64605      49   64602   64608      49   64617   64620      47   64614
   64617      49   64614   64620      49   64629   64632      47   64626   64629
      49   64626   64632      49   64641   64644      47   64638   64641      49
   64638   64644      49   64653   64656      47   64650   64653      49   64650
   64656      49   64665   64668      47   64662   64665      49   64662   64668
      49   64677   64680      47   64674   64677      49   64674   64680      49
   64689   64692      47   64686   64689      49   64686   64692      49   64701
   64704      47   64698   64701      49   64698   64704      49   64713   64716
      47   64710   64713      49   64710   64716      49   64725   64728      47
   64722   64725      49   64722   64728      49   64737   64740      47   64734
   64737      49   64734   64740      49   64749   64752      47   64746   64749
      49   64746   64752      49   64761   64764      47   64758   64761      49
   64758   64764      49   64773   64776      47   64770   64773      49   64770
   64776      49   64785   64788      47   64782   64785      49   64782   64788
      49   64797   64800      47   64794   64797      49   64794   64800      49
   64809   64812      47   64806   64809      49   64806   64812      49   64821
   64824      47   64818   64821      49   64818   64824      49   64833   64836
      47   64830   64833      49   64830   64836      49   64845   64848      47
   64842   64845      49   64842   64848      49   64857   64860      47   64854
   64857      49   64854   64860      49   64869   64872      47   64866   64869
      49   64866   64872      49   64881   64884      47   64878   64881      49
   64878   64884      49   64893   64896      47   64890   64893      49   64890
   64896      49   64905   64908      47   64902   64905      49   64902   64908
      49   64917   64920      47   64914   64917      49   64914   64920      49
   64929   64932      47   64926   64929      49   64926   64932      49   64941
   64944      47   64938   64941      49   64938   64944      49   64953   64956
      47   64950   64953      49   64950   64956      49   64965   64968      47
   64962   64965      49   64962   64968      49   64977   64980      47   64974
   64977      49   64974   64980      49   64989   64992      47   64986   64989
      49   64986   64992      49   65001   65004      47   64998   65001      49
   64998   65004      49   65013   65016      47   65010   65013      49   65010
   65016      49   65025   65028      47   65022   65025      49   65022   65028
      49   65037   65040      47   65034   65037      49   65034   65040      49
   65049   65052      47   65046   65049      49   65046   65052      49   65061
   65064      47   65058   65061      49   65058   65064      49   65073   65076
      47   65070   65073      49   65070   65076      49   65085   65088      47
   65082   65085      49   65082   65088      49   65097   65100      47   65094
   65097      49   65094   65100      49   65109   65112      47   65106   65109
      49   65106   65112      49   65121   65124      47   65118   65121      49
   65118   65124      49   65133   65136      47   65130   65133      49   65130
   65136      49   65145   65148      47   65142   65145      49   65142   65148
      49   65157   65160      47   65154   65157      49   65154   65160      49
   65169   65172      47   65166   65169      49   65166   65172      49   65181
   65184      47   65178   65181      49   65178   65184      49   65193   65196
      47   65190   65193      49   65190   65196      49   65205   65208      47
   65202   65205      49   65202   65208      49   65217   65220      47   65214
   65217      49   65214   65220      49   65229   65232      47   65226   65229
      49   65226   65232      49   65241   65244      47   65238   65241      49
   65238   65244      49   65253   65256      47   65250   65253      49   65250
   65256      49   65265   65268      47   65262   65265      49   65262   65268
      49   65277   65280      47   65274   65277      49   65274   65280      49
   65289   65292      47   65286   65289      49   65286   65292      49   65301
   65304      47   65298   65301      49   65298   65304      49   65313   65316
      47   65310   65313      49   65310   65316      49   65325   65328      47
   65322   65325      49   65322   65328      49   65337   65340      47   65334
   65337      49   65334   65340      49   65349   65352      47   65346   65349
      49   65346   65352      49   65361   65364      47   65358   65361      49
   65358   65364      49   65373   65376      47   65370   65373      49   65370
   65376      49   65385   65388      47   65382   65385      49   65382   65388
      49   65397   65400      47   65394   65397      49   65394   65400      49
   65409   65412      47   65406   65409      49   65406   65412      49   65421
   65424      47   65418   65421      49   65418   65424      49   65433   65436
      47   65430   65433      49   65430   65436      49   65445   65448      47
   65442   65445      49   65442   65448      49   65457   65460      47   65454
   65457      49   65454   65460      49   65469   65472      47   65466   65469
      49   65466   65472      49   65481   65484      47   65478   65481      49
   65478   65484      49   65493   65496      47   65490   65493      49   65490
   65496      49   65505   65508      47   65502   65505      49   65502   65508
      49   65517   65520      47   65514   65517      49   65514   65520      49
   65529   65532      47   65526   65529      49   65526   65532      49   65541
   65544      47   65538   65541      49   65538   65544      49   65553   65556
      47   65550   65553      49   65550   65556      49   65565   65568      47
   65562   65565      49   65562   65568      49   65577   65580      47   65574
   65577      49   65574   65580      49   65589   65592      47   65586   65589
      49   65586   65592      49   65601   65604      47   65598   65601      49
   65598   65604      49   65613   65616      47   65610   65613      49   65610
   65616      49   65625   65628      47   65622   65625      49   65622   65628
      49   65637   65640      47   65634   65637      49   65634   65640      49
   65649   65652      47   65646   65649      49   65646   65652      49   65661
   65664      47   65658   65661      49   65658   65664      49   65673   65676
      47   65670   65673      49   65670   65676      49   65685   65688      47
   65682   65685      49   65682   65688      49   65697   65700      47   65694
   65697      49   65694   65700      49   65709   65712      47   65706   65709
      49   65706   65712      49   65721   65724      47   65718   65721      49
   65718   65724      49   65733   65736      47   65730   65733      49   65730
   65736      49   65745   65748      47   65742   65745      49   65742   65748
      49   65757   65760      47   65754   65757      49   65754   65760      49
   65769   65772      47   65766   65769      49   65766   65772      49   65781
   65784      47   65778   65781      49   65778   65784      49   65793   65796
      47   65790   65793      49   65790   65796      49   65805   65808      47
   65802   65805      49   65802   65808      49   65817   65820      47   65814
   65817      49   65814   65820      49   65829   65832      47   65826   65829
      49   65826   65832      49   65841   65844      47   65838   65841      49
   65838   65844      49   65853   65856      47   65850   65853      49   65850
   65856      49   65865   65868      47   65862   65865      49   65862   65868
      49   65877   65880      47   65874   65877      49   65874   65880      49
   65889   65892      47   65886   65889      49   65886   65892      49   65901
   65904      47   65898   65901      49   65898   65904      49   65913   65916
      47   65910   65913      49   65910   65916      49   65925   65928      47
   65922   65925      49   65922   65928      49   65937   65940      47   65934
   65937      49   65934   65940      49   65949   65952      47   65946   65949
      49   65946   65952      49   65961   65964      47   65958   65961      49
   65958   65964      49   65973   65976      47   65970   65973      49   65970
   65976      49   65985   65988      47   65982   65985      49   65982   65988
      49   65997   66000      47   65994   65997      49   65994   66000      49
   66009   66012      47   66006   66009      49   66006   66012      49   66021
   66024      47   66018   66021      49   66018   66024      49   66033   66036
      47   66030   66033      49   66030   66036      49   66045   66048      47
   66042   66045      49   66042   66048      49   66057   66060      47   66054
   66057      49   66054   66060      49   66069   66072      47   66066   66069
      49   66066   66072      49   66081   66084      47   66078   66081      49
   66078   66084      49   66093   66096      47   66090   66093      49   66090
   66096      49   66105   66108      47   66102   66105      49   66102   66108
      49   66117   66120      47   66114   66117      49   66114   66120      49
   66129   66132      47   66126   66129      49   66126   66132      49   66141
   66144      47   66138   66141      49   66138   66144      49   66153   66156
      47   66150   66153      49   66150   66156      49   66165   66168      47
   66162   66165      49   66162   66168      49   66177   66180      47   66174
   66177      49   66174   66180      49   66189   66192      47   66186   66189
      49   66186   66192      49   66201   66204      47   66198   66201      49
   66198   66204      49   66213   66216      47   66210   66213      49   66210
   66216      49   66225   66228      47   66222   66225      49   66222   66228
      49   66237   66240      47   66234   66237      49   66234   66240      49
   66249   66252      47   66246   66249      49   66246   66252      49   66261
   66264      47   66258   66261      49   66258   66264      49   66273   66276
      47   66270   66273      49   66270   66276      49   66285   66288      47
   66282   66285      49   66282   66288      49   66297   66300      47   66294
   66297      49   66294   66300      49   66309   66312      47   66306   66309
      49   66306   66312      49   66321   66324      47   66318   66321      49
   66318   66324      49   66333   66336      47   66330   66333      49   66330
   66336      49   66345   66348      47   66342   66345      49   66342   66348
      49   66357   66360      47   66354   66357      49   66354   66360      49
   66369   66372      47   66366   66369      49   66366   66372      49   66381
   66384      47   66378   66381      49   66378   66384      49   66393   66396
      47   66390   66393      49   66390   66396      49   66405   66408      47
   66402   66405      49   66402   66408      49   66417   66420      47   66414
   66417      49   66414   66420      49   66429   66432      47   66426   66429
      49   66426   66432      49   66441   66444      47   66438   66441      49
   66438   66444      49   66453   66456      47   66450   66453      49   66450
   66456      49   66465   66468      47   66462   66465      49   66462   66468
      49   66477   66480      47   66474   66477      49   66474   66480      49
   66489   66492      47   66486   66489      49   66486   66492      49   66501
   66504      47   66498   66501      49   66498   66504      49   66513   66516
      47   66510   66513      49   66510   66516      49   66525   66528      47
   66522   66525      49   66522   66528      49   66537   66540      47   66534
   66537      49   66534   66540      49   66549   66552      47   66546   66549
      49   66546   66552      49   66561   66564      47   66558   66561      49
   66558   66564      49   66573   66576      47   66570   66573      49   66570
   66576      49   66585   66588      47   66582   66585      49   66582   66588
      49   66597   66600      47   66594   66597      49   66594   66600      49
   66609   66612      47   66606   66609      49   66606   66612      49   66621
   66624      47   66618   66621      49   66618   66624      49   66633   66636
      47   66630   66633      49   66630   66636      49   66645   66648      47
   66642   66645      49   66642   66648      49   66657   66660      47   66654
   66657      49   66654   66660      49   66669   66672      47   66666   66669
      49   66666   66672      49   66681   66684      47   66678   66681      49
   66678   66684      49   66693   66696      47   66690   66693      49   66690
   66696      49   66705   66708      47   66702   66705      49   66702   66708
      49   66717   66720      47   66714   66717      49   66714   66720      49
   66729   66732      47   66726   66729      49   66726   66732      49   66741
   66744      47   66738   66741      49   66738   66744      49   66753   66756
      47   66750   66753      49   66750   66756      49   66765   66768      47
   66762   66765      49   66762   66768      49   66777   66780      47   66774
   66777      49   66774   66780      49   66789   66792      47   66786   66789
      49   66786   66792      49   66801   66804      47   66798   66801      49
   66798   66804      49   66813   66816      47   66810   66813      49   66810
   66816      49   66825   66828      47   66822   66825      49   66822   66828
      49   66837   66840      47   66834   66837      49   66834   66840      49
   66849   66852      47   66846   66849      49   66846   66852      49   66861
   66864      47   66858   66861      49   66858   66864      49   66873   66876
      47   66870   66873      49   66870   66876      49   66885   66888      47
   66882   66885      49   66882   66888      49   66897   66900      47   66894
   66897      49   66894   66900      49   66909   66912      47   66906   66909
      49   66906   66912      49   66921   66924      47   66918   66921      49
   66918   66924      49   66933   66936      47   66930   66933      49   66930
   66936      49   66945   66948      47   66942   66945      49   66942   66948
      49   66957   66960      47   66954   66957      49   66954   66960      49
   66969   66972      47   66966   66969      49   66966   66972      49   66981
   66984      47   66978   66981      49   66978   66984      49   66993   66996
      47   66990   66993      49   66990   66996      49   67005   67008      47
   67002   67005      49   67002   67008      49   67017   67020      47   67014
   67017      49   67014   67020      49   67029   67032      47   67026   67029
      49   67026   67032      49   67041   67044      47   67038   67041      49
   67038   67044      49   67053   67056      47   67050   67053      49   67050
   67056      49   67065   67068      47   67062   67065      49   67062   67068
      49   67077   67080      47   67074   67077      49   67074   67080      49
   67089   67092      47   67086   67089      49   67086   67092      49   67101
   67104      47   67098   67101      49   67098   67104      49   67113   67116
      47   67110   67113      49   67110   67116      49   67125   67128      47
   67122   67125      49   67122   67128      49   67137   67140      47   67134
   67137      49   67134   67140      49   67149   67152      47   67146   67149
      49   67146   67152      49   67161   67164      47   67158   67161      49
   67158   67164      49   67173   67176      47   67170   67173      49   67170
   67176      49   67185   67188      47   67182   67185      49   67182   67188
      49   67197   67200      47   67194   67197      49   67194   67200      49
   67209   67212      47   67206   67209      49   67206   67212      49   67221
   67224      47   67218   67221      49   67218   67224      49   67233   67236
      47   67230   67233      49   67230   67236      49   67245   67248      47
   67242   67245      49   67242   67248      49   67257   67260      47   67254
   67257      49   67254   67260      49   67269   67272      47   67266   67269
      49   67266   67272      49   67281   67284      47   67278   67281      49
   67278   67284      49   67293   67296      47   67290   67293      49   67290
   67296      49   67305   67308      47   67302   67305      49   67302   67308
      49   67317   67320      47   67314   67317      49   67314   67320      49
   67329   67332      47   67326   67329      49   67326   67332      49   67341
   67344      47   67338   67341      49   67338   67344      49   67353   67356
      47   67350   67353      49   67350   67356      49   67365   67368      47
   67362   67365      49   67362   67368      49   67377   67380      47   67374
   67377      49   67374   67380      49   67389   67392      47   67386   67389
      49   67386   67392      49   67401   67404      47   67398   67401      49
   67398   67404      49   67413   67416      47   67410   67413      49   67410
   67416      49   67425   67428      47   67422   67425      49   67422   67428
      49   67437   67440      47   67434   67437      49   67434   67440      49
   67449   67452      47   67446   67449      49   67446   67452      49   67461
   67464      47   67458   67461      49   67458   67464      49   67473   67476
      47   67470   67473      49   67470   67476      49   67485   67488      47
   67482   67485      49   67482   67488      49   67497   67500      47   67494
   67497      49   67494   67500      49   67509   67512      47   67506   67509
      49   67506   67512      49   67521   67524      47   67518   67521      49
   67518   67524      49   67533   67536      47   67530   67533      49   67530
   67536      49   67545   67548      47   67542   67545      49   67542   67548
      49   67557   67560      47   67554   67557      49   67554   67560      49
   67569   67572      47   67566   67569      49   67566   67572      49   67581
   67584      47   67578   67581      49   67578   67584      49   67593   67596
      47   67590   67593      49   67590   67596      49   67605   67608      47
   67602   67605      49   67602   67608      49   67617   67620      47   67614
   67617      49   67614   67620      49   67629   67632      47   67626   67629
      49   67626   67632      49   67641   67644      47   67638   67641      49
   67638   67644      49   67653   67656      47   67650   67653      49   67650
   67656      49   67665   67668      47   67662   67665      49   67662   67668
      49   67677   67680      47   67674   67677      49   67674   67680      49
   67689   67692      47   67686   67689      49   67686   67692      49   67701
   67704      47   67698   67701      49   67698   67704      49   67713   67716
      47   67710   67713      49   67710   67716      49   67725   67728      47
   67722   67725      49   67722   67728      49   67737   67740      47   67734
   67737      49   67734   67740      49   67749   67752      47   67746   67749
      49   67746   67752      49   67761   67764      47   67758   67761      49
   67758   67764      49   67773   67776      47   67770   67773      49   67770
   67776      49   67785   67788      47   67782   67785      49   67782   67788
      49   67797   67800      47   67794   67797      49   67794   67800      49
   67809   67812      47   67806   67809      49   67806   67812      49   67821
   67824      47   67818   67821      49   67818   67824      49   67833   67836
      47   67830   67833      49   67830   67836      49   67845   67848      47
   67842   67845      49   67842   67848      49   67857   67860      47   67854
   67857      49   67854   67860      49   67869   67872      47   67866   67869
      49   67866   67872      49   67881   67884      47   67878   67881      49
   67878   67884      49   67893   67896      47   67890   67893      49   67890
   67896      49   67905   67908      47   67902   67905      49   67902   67908
      49   67917   67920      47   67914   67917      49   67914   67920      49
   67929   67932      47   67926   67929      49   67926   67932      49   67941
   67944      47   67938   67941      49   67938   67944      49   67953   67956
      47   67950   67953      49   67950   67956      49   67965   67968      47
   67962   67965      49   67962   67968      49   67977   67980      47   67974
   67977      49   67974   67980      49   67989   67992      47   67986   67989
      49   67986   67992      49   68001   68004      47   67998   68001      49
   67998   68004      49   68013   68016      47   68010   68013      49   68010
   68016      49   68025   68028      47   68022   68025      49   68022   68028
      49   68037   68040      47   68034   68037      49   68034   68040      49
   68049   68052      47   68046   68049      49   68046   68052      49   68061
   68064      47   68058   68061      49   68058   68064      49   68073   68076
      47   68070   68073      49   68070   68076      49   68085   68088      47
   68082   68085      49   68082   68088      49   68097   68100      47   68094
   68097      49   68094   68100      49   68109   68112      47   68106   68109
      49   68106   68112      49   68121   68124      47   68118   68121      49
   68118   68124      49   68133   68136      47   68130   68133      49   68130
   68136      49   68145   68148      47   68142   68145      49   68142   68148
      49   68157   68160      47   68154   68157      49   68154   68160      49
   68169   68172      47   68166   68169      49   68166   68172      49   68181
   68184      47   68178   68181      49   68178   68184      49   68193   68196
      47   68190   68193      49   68190   68196      49   68205   68208      47
   68202   68205      49   68202   68208      49   68217   68220      47   68214
   68217      49   68214   68220      49   68229   68232      47   68226   68229
      49   68226   68232      49   68241   68244      47   68238   68241      49
   68238   68244      49   68253   68256      47   68250   68253      49   68250
   68256      49   68265   68268      47   68262   68265      49   68262   68268
      49   68277   68280      47   68274   68277      49   68274   68280      49
   68289   68292      47   68286   68289      49   68286   68292      49   68301
   68304      47   68298   68301      49   68298   68304      49   68313   68316
      47   68310   68313      49   68310   68316      49   68325   68328      47
   68322   68325      49   68322   68328      49   68337   68340      47   68334
   68337      49   68334   68340      49   68349   68352      47   68346   68349
      49   68346   68352      49   68361   68364      47   68358   68361      49
   68358   68364      49   68373   68376      47   68370   68373      49   68370
   68376      49   68385   68388      47   68382   68385      49   68382   68388
      49   68397   68400      47   68394   68397      49   68394   68400      49
   68409   68412      47   68406   68409      49   68406   68412      49   68421
   68424      47   68418   68421      49   68418   68424      49   68433   68436
      47   68430   68433      49   68430   68436      49   68445   68448      47
   68442   68445      49   68442   68448      49   68457   68460      47   68454
   68457      49   68454   68460      49   68469   68472      47   68466   68469
      49   68466   68472      49   68481   68484      47   68478   68481      49
   68478   68484      49   68493   68496      47   68490   68493      49   68490
   68496      49   68505   68508      47   68502   68505      49   68502   68508
      49   68517   68520      47   68514   68517      49   68514   68520      49
   68529   68532      47   68526   68529      49   68526   68532      49   68541
   68544      47   68538   68541      49   68538   68544      49   68553   68556
      47   68550   68553      49   68550   68556      49   68565   68568      47
   68562   68565      49   68562   68568      49   68577   68580      47   68574
   68577      49   68574   68580      49   68589   68592      47   68586   68589
      49   68586   68592      49   68601   68604      47   68598   68601      49
   68598   68604      49   68613   68616      47   68610   68613      49   68610
   68616      49   68625   68628      47   68622   68625      49   68622   68628
      49   68637   68640      47   68634   68637      49   68634   68640      49
   68649   68652      47   68646   68649      49   68646   68652      49   68661
   68664      47   68658   68661      49   68658   68664      49   68673   68676
      47   68670   68673      49   68670   68676      49   68685   68688      47
   68682   68685      49   68682   68688      49   68697   68700      47   68694
   68697      49   68694   68700      49   68709   68712      47   68706   68709
      49   68706   68712      49   68721   68724      47   68718   68721      49
   68718   68724      49   68733   68736      47   68730   68733      49   68730
   68736      49   68745   68748      47   68742   68745      49   68742   68748
      49   68757   68760      47   68754   68757      49   68754   68760      49
   68769   68772      47   68766   68769      49   68766   68772      49   68781
   68784      47   68778   68781      49   68778   68784      49   68793   68796
      47   68790   68793      49   68790   68796      49   68805   68808      47
   68802   68805      49   68802   68808      49   68817   68820      47   68814
   68817      49   68814   68820      49   68829   68832      47   68826   68829
      49   68826   68832      49   68841   68844      47   68838   68841      49
   68838   68844      49   68853   68856      47   68850   68853      49   68850
   68856      49   68865   68868      47   68862   68865      49   68862   68868
      49   68877   68880      47   68874   68877      49   68874   68880      49
   68889   68892      47   68886   68889      49   68886   68892      49   68901
   68904      47   68898   68901      49   68898   68904      49   68913   68916
      47   68910   68913      49   68910   68916      49   68925   68928      47
   68922   68925      49   68922   68928      49   68937   68940      47   68934
   68937      49   68934   68940      49   68949   68952      47   68946   68949
      49   68946   68952      49   68961   68964      47   68958   68961      49
   68958   68964      49   68973   68976      47   68970   68973      49   68970
   68976      49   68985   68988      47   68982   68985      49   68982   68988
      49   68997   69000      47   68994   68997      49   68994   69000      49
   69009   69012      47   69006   69009      49   69006   69012      49   69021
   69024      47   69018   69021      49   69018   69024      49   69033   69036
      47   69030   69033      49   69030   69036      49   69045   69048      47
   69042   69045      49   69042   69048      49   69057   69060      47   69054
   69057      49   69054   69060      49   69069   69072      47   69066   69069
      49   69066   69072      49   69081   69084      47   69078   69081      49
   69078   69084      49   69093   69096      47   69090   69093      49   69090
   69096      49   69105   69108      47   69102   69105      49   69102   69108
      49   69117   69120      47   69114   69117      49   69114   69120      49
   69129   69132      47   69126   69129      49   69126   69132      49   69141
   69144      47   69138   69141      49   69138   69144      49   69153   69156
      47   69150   69153      49   69150   69156      49   69165   69168      47
   69162   69165      49   69162   69168      49   69177   69180      47   69174
   69177      49   69174   69180      49   69189   69192      47   69186   69189
      49   69186   69192      49   69201   69204      47   69198   69201      49
   69198   69204      49   69213   69216      47   69210   69213      49   69210
   69216      49   69225   69228      47   69222   69225      49   69222   69228
      49   69237   69240      47   69234   69237      49   69234   69240      49
   69249   69252      47   69246   69249      49   69246   69252      49   69261
   69264      47   69258   69261      49   69258   69264      49   69273   69276
      47   69270   69273      49   69270   69276      49   69285   69288      47
   69282   69285      49   69282   69288      49   69297   69300      47   69294
   69297      49   69294   69300      49   69309   69312      47   69306   69309
      49   69306   69312      49   69321   69324      47   69318   69321      49
   69318   69324      49   69333   69336      47   69330   69333      49   69330
   69336      49   69345   69348      47   69342   69345      49   69342   69348
      49   69357   69360      47   69354   69357      49   69354   69360      49
   69369   69372      47   69366   69369      49   69366   69372      49   69381
   69384      47   69378   69381      49   69378   69384      49   69393   69396
      47   69390   69393      49   69390   69396      49   69405   69408      47
   69402   69405      49   69402   69408      49   69417   69420      47   69414
   69417      49   69414   69420      49   69429   69432      47   69426   69429
      49   69426   69432      49   69441   69444      47   69438   69441      49
   69438   69444      49   69453   69456      47   69450   69453      49   69450
   69456      49   69465   69468      47   69462   69465      49   69462   69468
      49   69477   69480      47   69474   69477      49   69474   69480      49
   69489   69492      47   69486   69489      49   69486   69492      49   69501
   69504      47   69498   69501      49   69498   69504      49   69513   69516
      47   69510   69513      49   69510   69516      49   69525   69528      47
   69522   69525      49   69522   69528      49   69537   69540      47   69534
   69537      49   69534   69540      49   69549   69552      47   69546   69549
      49   69546   69552      49   69561   69564      47   69558   69561      49
   69558   69564      49   69573   69576      47   69570   69573      49   69570
   69576      49   69585   69588      47   69582   69585      49   69582   69588
      49   69597   69600      47   69594   69597      49   69594   69600      49
   69609   69612      47   69606   69609      49   69606   69612      49   69621
   69624      47   69618   69621      49   69618   69624      49   69633   69636
      47   69630   69633      49   69630   69636      49   69645   69648      47
   69642   69645      49   69642   69648      49   69657   69660      47   69654
   69657      49   69654   69660      49   69669   69672      47   69666   69669
      49   69666   69672      49   69681   69684      47   69678   69681      49
   69678   69684      49   69693   69696      47   69690   69693      49   69690
   69696      49   69705   69708      47   69702   69705      49   69702   69708
      49   69717   69720      47   69714   69717      49   69714   69720      49
   69729   69732      47   69726   69729      49   69726   69732      49   69741
   69744      47   69738   69741      49   69738   69744      49   69753   69756
      47   69750   69753      49   69750   69756      49   69765   69768      47
   69762   69765      49   69762   69768      49   69777   69780      47   69774
   69777      49   69774   69780      49   69789   69792      47   69786   69789
      49   69786   69792      49   69801   69804      47   69798   69801      49
   69798   69804      49   69813   69816      47   69810   69813      49   69810
   69816      49   69825   69828      47   69822   69825      49   69822   69828
      49   69837   69840      47   69834   69837      49   69834   69840      49
   69849   69852      47   69846   69849      49   69846   69852      49   69861
   69864      47   69858   69861      49   69858   69864      49   69873   69876
      47   69870   69873      49   69870   69876      49   69885   69888      47
   69882   69885      49   69882   69888      49   69897   69900      47   69894
   69897      49   69894   69900      49   69909   69912      47   69906   69909
      49   69906   69912      49   69921   69924      47   69918   69921      49
   69918   69924      49   69933   69936      47   69930   69933      49   69930
   69936      49   69945   69948      47   69942   69945      49   69942   69948
      49   69957   69960      47   69954   69957      49   69954   69960      49
   69969   69972      47   69966   69969      49   69966   69972      49   69981
   69984      47   69978   69981      49   69978   69984      49   69993   69996
      47   69990   69993      49   69990   69996      49   70005   70008      47
   70002   70005      49   70002   70008      49   70017   70020      47   70014
   70017      49   70014   70020      49   70029   70032      47   70026   70029
      49   70026   70032      49   70041   70044      47   70038   70041      49
   70038   70044      49   70053   70056      47   70050   70053      49   70050
   70056      49   70065   70068      47   70062   70065      49   70062   70068
      49   70077   70080      47   70074   70077      49   70074   70080      49
   70089   70092      47   70086   70089      49   70086   70092      49   70101
   70104      47   70098   70101      49   70098   70104      49   70113   70116
      47   70110   70113      49   70110   70116      49   70125   70128      47
   70122   70125      49   70122   70128      49   70137   70140      47   70134
   70137      49   70134   70140      49   70149   70152      47   70146   70149
      49   70146   70152      49   70161   70164      47   70158   70161      49
   70158   70164      49   70173   70176      47   70170   70173      49   70170
   70176      49   70185   70188      47   70182   70185      49   70182   70188
      49   70197   70200      47   70194   70197      49   70194   70200      49
   70209   70212      47   70206   70209      49   70206   70212      49   70221
   70224      47   70218   70221      49   70218   70224      49   70233   70236
      47   70230   70233      49   70230   70236      49   70245   70248      47
   70242   70245      49   70242   70248      49   70257   70260      47   70254
   70257      49   70254   70260      49   70269   70272      47   70266   70269
      49   70266   70272      49   70281   70284      47   70278   70281      49
   70278   70284      49   70293   70296      47   70290   70293      49   70290
   70296      49   70305   70308      47   70302   70305      49   70302   70308
      49   70317   70320      47   70314   70317      49   70314   70320      49
   70329   70332      47   70326   70329      49   70326   70332      49   70341
   70344      47   70338   70341      49   70338   70344      49   70353   70356
      47   70350   70353      49   70350   70356      49   70365   70368      47
   70362   70365      49   70362   70368      49   70377   70380      47   70374
   70377      49   70374   70380      49   70389   70392      47   70386   70389
      49   70386   70392      49   70401   70404      47   70398   70401      49
   70398   70404      49   70413   70416      47   70410   70413      49   70410
   70416      49   70425   70428      47   70422   70425      49   70422   70428
      49   70437   70440      47   70434   70437      49   70434   70440      49
   70449   70452      47   70446   70449      49   70446   70452      49   70461
   70464      47   70458   70461      49   70458   70464      49   70473   70476
      47   70470   70473      49   70470   70476      49   70485   70488      47
   70482   70485      49   70482   70488      49   70497   70500      47   70494
   70497      49   70494   70500      49   70509   70512      47   70506   70509
      49   70506   70512      49   70521   70524      47   70518   70521      49
   70518   70524      49   70533   70536      47   70530   70533      49   70530
   70536      49   70545   70548      47   70542   70545      49   70542   70548
      49   70557   70560      47   70554   70557      49   70554   70560      49
   70569   70572      47   70566   70569      49   70566   70572      49   70581
   70584      47   70578   70581      49   70578   70584      49   70593   70596
      47   70590   70593      49   70590   70596      49   70605   70608      47
   70602   70605      49   70602   70608      49   70617   70620      47   70614
   70617      49   70614   70620      49   70629   70632      47   70626   70629
      49   70626   70632      49   70641   70644      47   70638   70641      49
   70638   70644      49   70653   70656      47   70650   70653      49   70650
   70656      49   70665   70668      47   70662   70665      49   70662   70668
      49   70677   70680      47   70674   70677      49   70674   70680      49
   70689   70692      47   70686   70689      49   70686   70692      49   70701
   70704      47   70698   70701      49   70698   70704      49   70713   70716
      47   70710   70713      49   70710   70716      49   70725   70728      47
   70722   70725      49   70722   70728      49   70737   70740      47   70734
   70737      49   70734   70740      49   70749   70752      47   70746   70749
      49   70746   70752      49   70761   70764      47   70758   70761      49
   70758   70764      49   70773   70776      47   70770   70773      49   70770
   70776      49   70785   70788      47   70782   70785      49   70782   70788
      49   70797   70800      47   70794   70797      49   70794   70800      49
   70809   70812      47   70806   70809      49   70806   70812      49   70821
   70824      47   70818   70821      49   70818   70824      49   70833   70836
      47   70830   70833      49   70830   70836      49   70845   70848      47
   70842   70845      49   70842   70848      49   70857   70860      47   70854
   70857      49   70854   70860      49   70869   70872      47   70866   70869
      49   70866   70872      49   70881   70884      47   70878   70881      49
   70878   70884      49   70893   70896      47   70890   70893      49   70890
   70896      49   70905   70908      47   70902   70905      49   70902   70908
      49   70917   70920      47   70914   70917      49   70914   70920      49
   70929   70932      47   70926   70929      49   70926   70932      49   70941
   70944      47   70938   70941      49   70938   70944      49   70953   70956
      47   70950   70953      49   70950   70956      49   70965   70968      47
   70962   70965      49   70962   70968      49   70977   70980      47   70974
   70977      49   70974   70980      49   70989   70992      47   70986   70989
      49   70986   70992      49   71001   71004      47   70998   71001      49
   70998   71004      49   71013   71016      47   71010   71013      49   71010
   71016      49   71025   71028      47   71022   71025      49   71022   71028
      49   71037   71040      47   71034   71037      49   71034   71040      49
   71049   71052      47   71046   71049      49   71046   71052      49   71061
   71064      47   71058   71061      49   71058   71064      49   71073   71076
      47   71070   71073      49   71070   71076      49   71085   71088      47
   71082   71085      49   71082   71088      49   71097   71100      47   71094
   71097      49   71094   71100      49   71109   71112      47   71106   71109
      49   71106   71112      49   71121   71124      47   71118   71121      49
   71118   71124      49   71133   71136      47   71130   71133      49   71130
   71136      49   71145   71148      47   71142   71145      49   71142   71148
      49   71157   71160      47   71154   71157      49   71154   71160      49
   71169   71172      47   71166   71169      49   71166   71172      49   71181
   71184      47   71178   71181      49   71178   71184      49   71193   71196
      47   71190   71193      49   71190   71196      49   71205   71208      47
   71202   71205      49   71202   71208      49   71217   71220      47   71214
   71217      49   71214   71220      49   71229   71232      47   71226   71229
      49   71226   71232      49   71241   71244      47   71238   71241      49
   71238   71244      49   71253   71256      47   71250   71253      49   71250
   71256      49   71265   71268      47   71262   71265      49   71262   71268
      49   71277   71280      47   71274   71277      49   71274   71280      49
   71289   71292      47   71286   71289      49   71286   71292      49   71301
   71304      47   71298   71301      49   71298   71304      49   71313   71316
      47   71310   71313      49   71310   71316      49   71325   71328      47
   71322   71325      49   71322   71328      49   71337   71340      47   71334
   71337      49   71334   71340      49   71349   71352      47   71346   71349
      49   71346   71352      49   71361   71364      47   71358   71361      49
   71358   71364      49   71373   71376      47   71370   71373      49   71370
   71376      49   71385   71388      47   71382   71385      49   71382   71388
      49   71397   71400      47   71394   71397      49   71394   71400      49
   71409   71412      47   71406   71409      49   71406   71412      49   71421
   71424      47   71418   71421      49   71418   71424      49   71433   71436
      47   71430   71433      49   71430   71436      49   71445   71448      47
   71442   71445      49   71442   71448      49   71457   71460      47   71454
   71457      49   71454   71460      49   71469   71472      47   71466   71469
      49   71466   71472      49   71481   71484      47   71478   71481      49
   71478   71484      49   71493   71496      47   71490   71493      49   71490
   71496      49   71505   71508      47   71502   71505      49   71502   71508
      49   71517   71520      47   71514   71517      49   71514   71520      49
   71529   71532      47   71526   71529      49   71526   71532      49   71541
   71544      47   71538   71541      49   71538   71544      49   71553   71556
      47   71550   71553      49   71550   71556      49   71565   71568      47
   71562   71565      49   71562   71568      49   71577   71580      47   71574
   71577      49   71574   71580      49   71589   71592      47   71586   71589
      49   71586   71592      49   71601   71604      47   71598   71601      49
   71598   71604      49   71613   71616      47   71610   71613      49   71610
   71616      49   71625   71628      47   71622   71625      49   71622   71628
      49   71637   71640      47   71634   71637      49   71634   71640      49
   71649   71652      47   71646   71649      49   71646   71652      49   71661
   71664      47   71658   71661      49   71658   71664      49   71673   71676
      47   71670   71673      49   71670   71676      49   71685   71688      47
   71682   71685      49   71682   71688      49   71697   71700      47   71694
   71697      49   71694   71700      49   71709   71712      47   71706   71709
      49   71706   71712      49   71721   71724      47   71718   71721      49
   71718   71724      49   71733   71736      47   71730   71733      49   71730
   71736      49   71745   71748      47   71742   71745      49   71742   71748
      49   71757   71760      47   71754   71757      49   71754   71760      49
   71769   71772      47   71766   71769      49   71766   71772      49   71781
   71784      47   71778   71781      49   71778   71784      49   71793   71796
      47   71790   71793      49   71790   71796      49   71805   71808      47
   71802   71805      49   71802   71808      49   71817   71820      47   71814
   71817      49   71814   71820      49   71829   71832      47   71826   71829
      49   71826   71832      49   71841   71844      47   71838   71841      49
   71838   71844      49   71853   71856      47   71850   71853      49   71850
   71856      49   71865   71868      47   71862   71865      49   71862   71868
      49   71877   71880      47   71874   71877      49   71874   71880      49
   71889   71892      47   71886   71889      49   71886   71892      49   71901
   71904      47   71898   71901      49   71898   71904      49   71913   71916
      47   71910   71913      49   71910   71916      49   71925   71928      47
   71922   71925      49   71922   71928      49   71937   71940      47   71934
   71937      49   71934   71940      49   71949   71952      47   71946   71949
      49   71946   71952      49   71961   71964      47   71958   71961      49
   71958   71964      49   71973   71976      47   71970   71973      49   71970
   71976      49   71985   71988      47   71982   71985      49   71982   71988
      49   71997   72000      47   71994   71997      49   71994   72000      49
   72009   72012      47   72006   72009      49   72006   72012      49   72021
   72024      47   72018   72021      49   72018   72024      49   72033   72036
      47   72030   72033      49   72030   72036      49   72045   72048      47
   72042   72045      49   72042   72048      49   72057   72060      47   72054
   72057      49   72054   72060      49   72069   72072      47   72066   72069
      49   72066   72072      49   72081   72084      47   72078   72081      49
   72078   72084      49   72093   72096      47   72090   72093      49   72090
   72096      49   72105   72108      47   72102   72105      49   72102   72108
      49   72117   72120      47   72114   72117      49   72114   72120      49
   72129   72132      47   72126   72129      49   72126   72132      49   72141
   72144      47   72138   72141      49   72138   72144      49   72153   72156
      47   72150   72153      49   72150   72156      49   72165   72168      47
   72162   72165      49   72162   72168      49   72177   72180      47   72174
   72177      49   72174   72180      49   72189   72192      47   72186   72189
      49   72186   72192      49   72201   72204      47   72198   72201      49
   72198   72204      49   72213   72216      47   72210   72213      49   72210
   72216      49   72225   72228      47   72222   72225      49   72222   72228
      49   72237   72240      47   72234   72237      49   72234   72240      49
   72249   72252      47   72246   72249      49   72246   72252      49   72261
   72264      47   72258   72261      49   72258   72264      49   72273   72276
      47   72270   72273      49   72270   72276      49   72285   72288      47
   72282   72285      49   72282   72288      49   72297   72300      47   72294
   72297      49   72294   72300      49   72309   72312      47   72306   72309
      49   72306   72312      49   72321   72324      47   72318   72321      49
   72318   72324      49   72333   72336      47   72330   72333      49   72330
   72336      49   72345   72348      47   72342   72345      49   72342   72348
      49   72357   72360      47   72354   72357      49   72354   72360      49
   72369   72372      47   72366   72369      49   72366   72372      49   72381
   72384      47   72378   72381      49   72378   72384      49   72393   72396
      47   72390   72393      49   72390   72396      49   72405   72408      47
   72402   72405      49   72402   72408      49   72417   72420      47   72414
   72417      49   72414   72420      49   72429   72432      47   72426   72429
      49   72426   72432      49   72441   72444      47   72438   72441      49
   72438   72444      49   72453   72456      47   72450   72453      49   72450
   72456      49   72465   72468      47   72462   72465      49   72462   72468
      49   72477   72480      47   72474   72477      49   72474   72480      49
   72489   72492      47   72486   72489      49   72486   72492      49   72501
   72504      47   72498   72501      49   72498   72504      49   72513   72516
      47   72510   72513      49   72510   72516      49   72525   72528      47
   72522   72525      49   72522   72528      49   72537   72540      47   72534
   72537      49   72534   72540      49   72549   72552      47   72546   72549
      49   72546   72552      49   72561   72564      47   72558   72561      49
   72558   72564      49   72573   72576      47   72570   72573      49   72570
   72576      49   72585   72588      47   72582   72585      49   72582   72588
      49   72597   72600      47   72594   72597      49   72594   72600      49
   72609   72612      47   72606   72609      49   72606   72612      49   72621
   72624      47   72618   72621      49   72618   72624      49   72633   72636
      47   72630   72633      49   72630   72636      49   72645   72648      47
   72642   72645      49   72642   72648      49   72657   72660      47   72654
   72657      49   72654   72660      49   72669   72672      47   72666   72669
      49   72666   72672      49   72681   72684      47   72678   72681      49
   72678   72684      49   72693   72696      47   72690   72693      49   72690
   72696      49   72705   72708      47   72702   72705      49   72702   72708
      49   72717   72720      47   72714   72717      49   72714   72720      49
   72729   72732      47   72726   72729      49   72726   72732      49   72741
   72744      47   72738   72741      49   72738   72744      49   72753   72756
      47   72750   72753      49   72750   72756      49   72765   72768      47
   72762   72765      49   72762   72768      49   72777   72780      47   72774
   72777      49   72774   72780      49   72789   72792      47   72786   72789
      49   72786   72792      49   72801   72804      47   72798   72801      49
   72798   72804      49   72813   72816      47   72810   72813      49   72810
   72816      49   72825   72828      47   72822   72825      49   72822   72828
      49   72837   72840      47   72834   72837      49   72834   72840      49
   72849   72852      47   72846   72849      49   72846   72852      49   72861
   72864      47   72858   72861      49   72858   72864      49   72873   72876
      47   72870   72873      49   72870   72876      49   72885   72888      47
   72882   72885      49   72882   72888      49   72897   72900      47   72894
   72897      49   72894   72900      49   72909   72912      47   72906   72909
      49   72906   72912      49   72921   72924      47   72918   72921      49
   72918   72924      49   72933   72936      47   72930   72933      49   72930
   72936      49   72945   72948      47   72942   72945      49   72942   72948
      49   72957   72960      47   72954   72957      49   72954   72960      49
   72969   72972      47   72966   72969      49   72966   72972      49   72981
   72984      47   72978   72981      49   72978   72984      49   72993   72996
      47   72990   72993      49   72990   72996      49   73005   73008      47
   73002   73005      49   73002   73008      49   73017   73020      47   73014
   73017      49   73014   73020      49   73029   73032      47   73026   73029
      49   73026   73032      49   73041   73044      47   73038   73041      49
   73038   73044      49   73053   73056      47   73050   73053      49   73050
   73056      49   73065   73068      47   73062   73065      49   73062   73068
      49   73077   73080      47   73074   73077      49   73074   73080      49
   73089   73092      47   73086   73089      49   73086   73092      49   73101
   73104      47   73098   73101      49   73098   73104      49   73113   73116
      47   73110   73113      49   73110   73116      49   73125   73128      47
   73122   73125      49   73122   73128      49   73137   73140      47   73134
   73137      49   73134   73140      49   73149   73152      47   73146   73149
      49   73146   73152      49   73161   73164      47   73158   73161      49
   73158   73164      49   73173   73176      47   73170   73173      49   73170
   73176      49   73185   73188      47   73182   73185      49   73182   73188
      49   73197   73200      47   73194   73197      49   73194   73200      49
   73209   73212      47   73206   73209      49   73206   73212      49   73221
   73224      47   73218   73221      49   73218   73224      49   73233   73236
      47   73230   73233      49   73230   73236      49   73245   73248      47
   73242   73245      49   73242   73248      49   73257   73260      47   73254
   73257      49   73254   73260      49   73269   73272      47   73266   73269
      49   73266   73272      49   73281   73284      47   73278   73281      49
   73278   73284      49   73293   73296      47   73290   73293      49   73290
   73296      49   73305   73308      47   73302   73305      49   73302   73308
      49   73317   73320      47   73314   73317      49   73314   73320      49
   73329   73332      47   73326   73329      49   73326   73332      49   73341
   73344      47   73338   73341      49   73338   73344      49   73353   73356
      47   73350   73353      49   73350   73356      49   73365   73368      47
   73362   73365      49   73362   73368      49   73377   73380      47   73374
   73377      49   73374   73380      49   73389   73392      47   73386   73389
      49   73386   73392      49   73401   73404      47   73398   73401      49
   73398   73404      49   73413   73416      47   73410   73413      49   73410
   73416      49   73425   73428      47   73422   73425      49   73422   73428
      49   73437   73440      47   73434   73437      49   73434   73440      49
   73449   73452      47   73446   73449      49   73446   73452      49   73461
   73464      47   73458   73461      49   73458   73464      49   73473   73476
      47   73470   73473      49   73470   73476      49   73485   73488      47
   73482   73485      49   73482   73488      49   73497   73500      47   73494
   73497      49   73494   73500      49   73509   73512      47   73506   73509
      49   73506   73512      49   73521   73524      47   73518   73521      49
   73518   73524      49   73533   73536      47   73530   73533      49   73530
   73536      49   73545   73548      47   73542   73545      49   73542   73548
      49   73557   73560      47   73554   73557      49   73554   73560      49
   73569   73572      47   73566   73569      49   73566   73572      49   73581
   73584      47   73578   73581      49   73578   73584      49   73593   73596
      47   73590   73593      49   73590   73596      49   73605   73608      47
   73602   73605      49   73602   73608      49   73617   73620      47   73614
   73617      49   73614   73620      49   73629   73632      47   73626   73629
      49   73626   73632      49   73641   73644      47   73638   73641      49
   73638   73644      49   73653   73656      47   73650   73653      49   73650
   73656      49   73665   73668      47   73662   73665      49   73662   73668
      49   73677   73680      47   73674   73677      49   73674   73680      49
   73689   73692      47   73686   73689      49   73686   73692      49   73701
   73704      47   73698   73701      49   73698   73704      49   73713   73716
      47   73710   73713      49   73710   73716      49   73725   73728      47
   73722   73725      49   73722   73728      49   73737   73740      47   73734
   73737      49   73734   73740      49   73749   73752      47   73746   73749
      49   73746   73752      49   73761   73764      47   73758   73761      49
   73758   73764      49   73773   73776      47   73770   73773      49   73770
   73776      49   73785   73788      47   73782   73785      49   73782   73788
      49   73797   73800      47   73794   73797      49   73794   73800      49
   73809   73812      47   73806   73809      49   73806   73812      49   73821
   73824      47   73818   73821      49   73818   73824      49   73833   73836
      47   73830   73833      49   73830   73836      49   73845   73848      47
   73842   73845      49   73842   73848      49   73857   73860      47   73854
   73857      49   73854   73860      49   73869   73872      47   73866   73869
      49   73866   73872      49   73881   73884      47   73878   73881      49
   73878   73884      49   73893   73896      47   73890   73893      49   73890
   73896      49   73905   73908      47   73902   73905      49   73902   73908
      49   73917   73920      47   73914   73917      49   73914   73920      49
   73929   73932      47   73926   73929      49   73926   73932      49   73941
   73944      47   73938   73941      49   73938   73944      49   73953   73956
      47   73950   73953      49   73950   73956      49   73965   73968      47
   73962   73965      49   73962   73968      49   73977   73980      47   73974
   73977      49   73974   73980      49   73989   73992      47   73986   73989
      49   73986   73992      49   74001   74004      47   73998   74001      49
   73998   74004      49   74013   74016      47   74010   74013      49   74010
   74016      49   74025   74028      47   74022   74025      49   74022   74028
      49   74037   74040      47   74034   74037      49   74034   74040      49
   74049   74052      47   74046   74049      49   74046   74052      49   74061
   74064      47   74058   74061      49   74058   74064      49   74073   74076
      47   74070   74073      49   74070   74076      49   74085   74088      47
   74082   74085      49   74082   74088      49   74097   74100      47   74094
   74097      49   74094   74100      49   74109   74112      47   74106   74109
      49   74106   74112      49   74121   74124      47   74118   74121      49
   74118   74124      49   74133   74136      47   74130   74133      49   74130
   74136      49   74145   74148      47   74142   74145      49   74142   74148
      49   74157   74160      47   74154   74157      49   74154   74160      49
   74169   74172      47   74166   74169      49   74166   74172      49   74181
   74184      47   74178   74181      49   74178   74184      49   74193   74196
      47   74190   74193      49   74190   74196      49   74205   74208      47
   74202   74205      49   74202   74208      49   74217   74220      47   74214
   74217      49   74214   74220      49   74229   74232      47   74226   74229
      49   74226   74232      49   74241   74244      47   74238   74241      49
   74238   74244      49   74253   74256      47   74250   74253      49   74250
   74256      49   74265   74268      47   74262   74265      49   74262   74268
      49   74277   74280      47   74274   74277      49   74274   74280      49
   74289   74292      47   74286   74289      49   74286   74292      49   74301
   74304      47   74298   74301      49   74298   74304      49   74313   74316
      47   74310   74313      49   74310   74316      49   74325   74328      47
   74322   74325      49   74322   74328      49   74337   74340      47   74334
   74337      49   74334   74340      49   74349   74352      47   74346   74349
      49   74346   74352      49   74361   74364      47   74358   74361      49
   74358   74364      49   74373   74376      47   74370   74373      49   74370
   74376      49   74385   74388      47   74382   74385      49   74382   74388
      49   74397   74400      47   74394   74397      49   74394   74400      49
   74409   74412      47   74406   74409      49   74406   74412      49   74421
   74424      47   74418   74421      49   74418   74424      49   74433   74436
      47   74430   74433      49   74430   74436      49   74445   74448      47
   74442   74445      49   74442   74448      49   74457   74460      47   74454
   74457      49   74454   74460      49   74469   74472      47   74466   74469
      49   74466   74472      49   74481   74484      47   74478   74481      49
   74478   74484      49   74493   74496      47   74490   74493      49   74490
   74496      49   74505   74508      47   74502   74505      49   74502   74508
      49   74517   74520      47   74514   74517      49   74514   74520      49
   74529   74532      47   74526   74529      49   74526   74532      49   74541
   74544      47   74538   74541      49   74538   74544      49   74553   74556
      47   74550   74553      49   74550   74556      49   74565   74568      47
   74562   74565      49   74562   74568      49   74577   74580      47   74574
   74577      49   74574   74580      49   74589   74592      47   74586   74589
      49   74586   74592      49   74601   74604      47   74598   74601      49
   74598   74604      49   74613   74616      47   74610   74613      49   74610
   74616      49   74625   74628      47   74622   74625      49   74622   74628
      49   74637   74640      47   74634   74637      49   74634   74640      49
   74649   74652      47   74646   74649      49   74646   74652      49   74661
   74664      47   74658   74661      49   74658   74664      49   74673   74676
      47   74670   74673      49   74670   74676      49   74685   74688      47
   74682   74685      49   74682   74688      49   74697   74700      47   74694
   74697      49   74694   74700      49   74709   74712      47   74706   74709
      49   74706   74712      49   74721   74724      47   74718   74721      49
   74718   74724      49   74733   74736      47   74730   74733      49   74730
   74736      49   74745   74748      47   74742   74745      49   74742   74748
      49   74757   74760      47   74754   74757      49   74754   74760      49
   74769   74772      47   74766   74769      49   74766   74772      49   74781
   74784      47   74778   74781      49   74778   74784      49   74793   74796
      47   74790   74793      49   74790   74796      49   74805   74808      47
   74802   74805      49   74802   74808      49   74817   74820      47   74814
   74817      49   74814   74820      49   74829   74832      47   74826   74829
      49   74826   74832      49   74841   74844      47   74838   74841      49
   74838   74844      49   74853   74856      47   74850   74853      49   74850
   74856      49   74865   74868      47   74862   74865      49   74862   74868
      49   74877   74880      47   74874   74877      49   74874   74880      49
   74889   74892      47   74886   74889      49   74886   74892      49   74901
   74904      47   74898   74901      49   74898   74904      49   74913   74916
      47   74910   74913      49   74910   74916      49   74925   74928      47
   74922   74925      49   74922   74928      49   74937   74940      47   74934
   74937      49   74934   74940      49   74949   74952      47   74946   74949
      49   74946   74952      49   74961   74964      47   74958   74961      49
   74958   74964      49   74973   74976      47   74970   74973      49   74970
   74976      49   74985   74988      47   74982   74985      49   74982   74988
      49   74997   75000      47   74994   74997      49   74994   75000      49
   75009   75012      47   75006   75009      49   75006   75012      49   75021
   75024      47   75018   75021      49   75018   75024      49   75033   75036
      47   75030   75033      49   75030   75036      49   75045   75048      47
   75042   75045      49   75042   75048      49   75057   75060      47   75054
   75057      49   75054   75060      49   75069   75072      47   75066   75069
      49   75066   75072      49   75081   75084      47   75078   75081      49
   75078   75084      49   75093   75096      47   75090   75093      49   75090
   75096      49   75105   75108      47   75102   75105      49   75102   75108
      49   75117   75120      47   75114   75117      49   75114   75120      49
   75129   75132      47   75126   75129      49   75126   75132      49   75141
   75144      47   75138   75141      49   75138   75144      49   75153   75156
      47   75150   75153      49   75150   75156      49   75165   75168      47
   75162   75165      49   75162   75168      49   75177   75180      47   75174
   75177      49   75174   75180      49   75189   75192      47   75186   75189
      49   75186   75192      49   75201   75204      47   75198   75201      49
   75198   75204      49   75213   75216      47   75210   75213      49   75210
   75216      49   75225   75228      47   75222   75225      49   75222   75228
      49   75237   75240      47   75234   75237      49   75234   75240      49
   75249   75252      47   75246   75249      49   75246   75252      49   75261
   75264      47   75258   75261      49   75258   75264      49   75273   75276
      47   75270   75273      49   75270   75276      49   75285   75288      47
   75282   75285      49   75282   75288      49   75297   75300      47   75294
   75297      49   75294   75300      49   75309   75312      47   75306   75309
      49   75306   75312      49   75321   75324      47   75318   75321      49
   75318   75324      49   75333   75336      47   75330   75333      49   75330
   75336      49   75345   75348      47   75342   75345      49   75342   75348
      49   75357   75360      47   75354   75357      49   75354   75360      49
   75369   75372      47   75366   75369      49   75366   75372      49   75381
   75384      47   75378   75381      49   75378   75384      49   75393   75396
      47   75390   75393      49   75390   75396      49   75405   75408      47
   75402   75405      49   75402   75408      49   75417   75420      47   75414
   75417      49   75414   75420      49   75429   75432      47   75426   75429
      49   75426   75432      49   75441   75444      47   75438   75441      49
   75438   75444      49   75453   75456      47   75450   75453      49   75450
   75456      49   75465   75468      47   75462   75465      49   75462   75468
      49   75477   75480      47   75474   75477      49   75474   75480      49
   75489   75492      47   75486   75489      49   75486   75492      49   75501
   75504      47   75498   75501      49   75498   75504      49   75513   75516
      47   75510   75513      49   75510   75516      49   75525   75528      47
   75522   75525      49   75522   75528      49   75537   75540      47   75534
   75537      49   75534   75540      49   75549   75552      47   75546   75549
      49   75546   75552      49   75561   75564      47   75558   75561      49
   75558   75564      49   75573   75576      47   75570   75573      49   75570
   75576      49   75585   75588      47   75582   75585      49   75582   75588
      49   75597   75600      47   75594   75597      49   75594   75600      49
   75609   75612      47   75606   75609      49   75606   75612      49   75621
   75624      47   75618   75621      49   75618   75624      49   75633   75636
      47   75630   75633      49   75630   75636      49   75645   75648      47
   75642   75645      49   75642   75648      49   75657   75660      47   75654
   75657      49   75654   75660      49   75669   75672      47   75666   75669
      49   75666   75672      49   75681   75684      47   75678   75681      49
   75678   75684      49   75693   75696      47   75690   75693      49   75690
   75696      49   75705   75708      47   75702   75705      49   75702   75708
      49   75717   75720      47   75714   75717      49   75714   75720      49
   75729   75732      47   75726   75729      49   75726   75732      49   75741
   75744      47   75738   75741      49   75738   75744      49   75753   75756
      47   75750   75753      49   75750   75756      49   75765   75768      47
   75762   75765      49   75762   75768      49   75777   75780      47   75774
   75777      49   75774   75780      49   75789   75792      47   75786   75789
      49   75786   75792      49   75801   75804      47   75798   75801      49
   75798   75804      49   75813   75816      47   75810   75813      49   75810
   75816      49   75825   75828      47   75822   75825      49   75822   75828
      49   75837   75840      47   75834   75837      49   75834   75840      49
   75849   75852      47   75846   75849      49   75846   75852      49   75861
   75864      47   75858   75861      49   75858   75864      49   75873   75876
      47   75870   75873      49   75870   75876      49   75885   75888      47
   75882   75885      49   75882   75888      49   75897   75900      47   75894
   75897      49   75894   75900      49   75909   75912      47   75906   75909
      49   75906   75912      49   75921   75924      47   75918   75921      49
   75918   75924      49   75933   75936      47   75930   75933      49   75930
   75936      49   75945   75948      47   75942   75945      49   75942   75948
      49   75957   75960      47   75954   75957      49   75954   75960      49
   75969   75972      47   75966   75969      49   75966   75972      49   75981
   75984      47   75978   75981      49   75978   75984      49   75993   75996
      47   75990   75993      49   75990   75996      49   76005   76008      47
   76002   76005      49   76002   76008      49   76017   76020      47   76014
   76017      49   76014   76020      49   76029   76032      47   76026   76029
      49   76026   76032      49   76041   76044      47   76038   76041      49
   76038   76044      49   76053   76056      47   76050   76053      49   76050
   76056      49   76065   76068      47   76062   76065      49   76062   76068
      49   76077   76080      47   76074   76077      49   76074   76080      49
   76089   76092      47   76086   76089      49   76086   76092      49   76101
   76104      47   76098   76101      49   76098   76104      49   76113   76116
      47   76110   76113      49   76110   76116      49   76125   76128      47
   76122   76125      49   76122   76128      49   76137   76140      47   76134
   76137      49   76134   76140      49   76149   76152      47   76146   76149
      49   76146   76152      49   76161   76164      47   76158   76161      49
   76158   76164      49   76173   76176      47   76170   76173      49   76170
   76176      49   76185   76188      47   76182   76185      49   76182   76188
      49   76197   76200      47   76194   76197      49   76194   76200      49
   76209   76212      47   76206   76209      49   76206   76212      49   76221
   76224      47   76218   76221      49   76218   76224      49   76233   76236
      47   76230   76233      49   76230   76236      49   76245   76248      47
   76242   76245      49   76242   76248      49   76257   76260      47   76254
   76257      49   76254   76260      49   76269   76272      47   76266   76269
      49   76266   76272      49   76281   76284      47   76278   76281      49
   76278   76284      49   76293   76296      47   76290   76293      49   76290
   76296      49   76305   76308      47   76302   76305      49   76302   76308
      49   76317   76320      47   76314   76317      49   76314   76320      49
   76329   76332      47   76326   76329      49   76326   76332      49   76341
   76344      47   76338   76341      49   76338   76344      49   76353   76356
      47   76350   76353      49   76350   76356      49   76365   76368      47
   76362   76365      49   76362   76368      49   76377   76380      47   76374
   76377      49   76374   76380      49   76389   76392      47   76386   76389
      49   76386   76392      49   76401   76404      47   76398   76401      49
   76398   76404      49   76413   76416      47   76410   76413      49   76410
   76416      49   76425   76428      47   76422   76425      49   76422   76428
      49   76437   76440      47   76434   76437      49   76434   76440      49
   76449   76452      47   76446   76449      49   76446   76452      49   76461
   76464      47   76458   76461      49   76458   76464      49   76473   76476
      47   76470   76473      49   76470   76476      49   76485   76488      47
   76482   76485      49   76482   76488      49   76497   76500      47   76494
   76497      49   76494   76500      49   76509   76512      47   76506   76509
      49   76506   76512      49   76521   76524      47   76518   76521      49
   76518   76524      49   76533   76536      47   76530   76533      49   76530
   76536      49   76545   76548      47   76542   76545      49   76542   76548
      49   76557   76560      47   76554   76557      49   76554   76560      49
   76569   76572      47   76566   76569      49   76566   76572      49   76581
   76584      47   76578   76581      49   76578   76584      49   76593   76596
      47   76590   76593      49   76590   76596      49   76605   76608      47
   76602   76605      49   76602   76608      49   76617   76620      47   76614
   76617      49   76614   76620      49   76629   76632      47   76626   76629
      49   76626   76632      49   76641   76644      47   76638   76641      49
   76638   76644      49   76653   76656      47   76650   76653      49   76650
   76656      49   76665   76668      47   76662   76665      49   76662   76668
      49   76677   76680      47   76674   76677      49   76674   76680      49
   76689   76692      47   76686   76689      49   76686   76692      49   76701
   76704      47   76698   76701      49   76698   76704      49   76713   76716
      47   76710   76713      49   76710   76716      49   76725   76728      47
   76722   76725      49   76722   76728      49   76737   76740      47   76734
   76737      49   76734   76740      49   76749   76752      47   76746   76749
      49   76746   76752      49   76761   76764      47   76758   76761      49
   76758   76764      49   76773   76776      47   76770   76773      49   76770
   76776      49   76785   76788      47   76782   76785      49   76782   76788
      49   76797   76800      47   76794   76797      49   76794   76800      49
   76809   76812      47   76806   76809      49   76806   76812      49   76821
   76824      47   76818   76821      49   76818   76824      49   76833   76836
      47   76830   76833      49   76830   76836      49   76845   76848      47
   76842   76845      49   76842   76848      49   76857   76860      47   76854
   76857      49   76854   76860      49   76869   76872      47   76866   76869
      49   76866   76872      49   76881   76884      47   76878   76881      49
   76878   76884      49   76893   76896      47   76890   76893      49   76890
   76896      49   76905   76908      47   76902   76905      49   76902   76908
      49   76917   76920      47   76914   76917      49   76914   76920      49
   76929   76932      47   76926   76929      49   76926   76932      49   76941
   76944      47   76938   76941      49   76938   76944      49   76953   76956
      47   76950   76953      49   76950   76956      49   76965   76968      47
   76962   76965      49   76962   76968      49   76977   76980      47   76974
   76977      49   76974   76980      49   76989   76992      47   76986   76989
      49   76986   76992      49   77001   77004      47   76998   77001      49
   76998   77004      49   77013   77016      47   77010   77013      49   77010
   77016      49   77025   77028      47   77022   77025      49   77022   77028
      49   77037   77040      47   77034   77037      49   77034   77040      49
   77049   77052      47   77046   77049      49   77046   77052      49   77061
   77064      47   77058   77061      49   77058   77064      49   77073   77076
      47   77070   77073      49   77070   77076      49   77085   77088      47
   77082   77085      49   77082   77088      49   77097   77100      47   77094
   77097      49   77094   77100      49   77109   77112      47   77106   77109
      49   77106   77112      49   77121   77124      47   77118   77121      49
   77118   77124      49   77133   77136      47   77130   77133      49   77130
   77136      49   77145   77148      47   77142   77145      49   77142   77148
      49   77157   77160      47   77154   77157      49   77154   77160      49
   77169   77172      47   77166   77169      49   77166   77172      49   77181
   77184      47   77178   77181      49   77178   77184      49   77193   77196
      47   77190   77193      49   77190   77196      49   77205   77208      47
   77202   77205      49   77202   77208      49   77217   77220      47   77214
   77217      49   77214   77220      49   77229   77232      47   77226   77229
      49   77226   77232      49   77241   77244      47   77238   77241      49
   77238   77244      49   77253   77256      47   77250   77253      49   77250
   77256      49   77265   77268      47   77262   77265      49   77262   77268
      49   77277   77280      47   77274   77277      49   77274   77280      49
   77289   77292      47   77286   77289      49   77286   77292      49   77301
   77304      47   77298   77301      49   77298   77304      49   77313   77316
      47   77310   77313      49   77310   77316      49   77325   77328      47
   77322   77325      49   77322   77328      49   77337   77340      47   77334
   77337      49   77334   77340      49   77349   77352      47   77346   77349
      49   77346   77352      49   77361   77364      47   77358   77361      49
   77358   77364      49   77373   77376      47   77370   77373      49   77370
   77376      49   77385   77388      47   77382   77385      49   77382   77388
      49   77397   77400      47   77394   77397      49   77394   77400      49
   77409   77412      47   77406   77409      49   77406   77412      49   77421
   77424      47   77418   77421      49   77418   77424      49   77433   77436
      47   77430   77433      49   77430   77436      49   77445   77448      47
   77442   77445      49   77442   77448      49   77457   77460      47   77454
   77457      49   77454   77460      49   77469   77472      47   77466   77469
      49   77466   77472      49   77481   77484      47   77478   77481      49
   77478   77484      49   77493   77496      47   77490   77493      49   77490
   77496      49   77505   77508      47   77502   77505      49   77502   77508
      49   77517   77520      47   77514   77517      49   77514   77520      49
   77529   77532      47   77526   77529      49   77526   77532      49   77541
   77544      47   77538   77541      49   77538   77544      49   77553   77556
      47   77550   77553      49   77550   77556      49   77565   77568      47
   77562   77565      49   77562   77568      49   77577   77580      47   77574
   77577      49   77574   77580      49   77589   77592      47   77586   77589
      49   77586   77592      49   77601   77604      47   77598   77601      49
   77598   77604      49   77613   77616      47   77610   77613      49   77610
   77616      49   77625   77628      47   77622   77625      49   77622   77628
      49   77637   77640      47   77634   77637      49   77634   77640      49
   77649   77652      47   77646   77649      49   77646   77652      49   77661
   77664      47   77658   77661      49   77658   77664      49   77673   77676
      47   77670   77673      49   77670   77676      49   77685   77688      47
   77682   77685      49   77682   77688      49   77697   77700      47   77694
   77697      49   77694   77700      49   77709   77712      47   77706   77709
      49   77706   77712      49   77721   77724      47   77718   77721      49
   77718   77724      49   77733   77736      47   77730   77733      49   77730
   77736      49   77745   77748      47   77742   77745      49   77742   77748
      49   77757   77760      47   77754   77757      49   77754   77760      49
   77769   77772      47   77766   77769      49   77766   77772      49   77781
   77784      47   77778   77781      49   77778   77784      49   77793   77796
      47   77790   77793      49   77790   77796      49   77805   77808      47
   77802   77805      49   77802   77808      49   77817   77820      47   77814
   77817      49   77814   77820      49   77829   77832      47   77826   77829
      49   77826   77832      49   77841   77844      47   77838   77841      49
   77838   77844      49   77853   77856      47   77850   77853      49   77850
   77856      49   77865   77868      47   77862   77865      49   77862   77868
      49   77877   77880      47   77874   77877      49   77874   77880      49
   77889   77892      47   77886   77889      49   77886   77892      49   77901
   77904      47   77898   77901      49   77898   77904      49   77913   77916
      47   77910   77913      49   77910   77916      49   77925   77928      47
   77922   77925      49   77922   77928      49   77937   77940      47   77934
   77937      49   77934   77940      49   77949   77952      47   77946   77949
      49   77946   77952      49   77961   77964      47   77958   77961      49
   77958   77964      49   77973   77976      47   77970   77973      49   77970
   77976      49   77985   77988      47   77982   77985      49   77982   77988
      49   77997   78000      47   77994   77997      49   77994   78000      49
   78009   78012      47   78006   78009      49   78006   78012      49   78021
   78024      47   78018   78021      49   78018   78024      49   78033   78036
      47   78030   78033      49   78030   78036      49   78045   78048      47
   78042   78045      49   78042   78048      49   78057   78060      47   78054
   78057      49   78054   78060      49   78069   78072      47   78066   78069
      49   78066   78072      49   78081   78084      47   78078   78081      49
   78078   78084      49   78093   78096      47   78090   78093      49   78090
   78096      49   78105   78108      47   78102   78105      49   78102   78108
      49   78117   78120      47   78114   78117      49   78114   78120      49
   78129   78132      47   78126   78129      49   78126   78132      49   78141
   78144      47   78138   78141      49   78138   78144      49   78153   78156
      47   78150   78153      49   78150   78156      49   78165   78168      47
   78162   78165      49   78162   78168      49   78177   78180      47   78174
   78177      49   78174   78180      49   78189   78192      47   78186   78189
      49   78186   78192      49   78201   78204      47   78198   78201      49
   78198   78204      49   78213   78216      47   78210   78213      49   78210
   78216      49   78225   78228      47   78222   78225      49   78222   78228
      49   78237   78240      47   78234   78237      49   78234   78240      49
   78249   78252      47   78246   78249      49   78246   78252      49   78261
   78264      47   78258   78261      49   78258   78264      49   78273   78276
      47   78270   78273      49   78270   78276      49   78285   78288      47
   78282   78285      49   78282   78288      49   78297   78300      47   78294
   78297      49   78294   78300      49   78309   78312      47   78306   78309
      49   78306   78312      49   78321   78324      47   78318   78321      49
   78318   78324      49   78333   78336      47   78330   78333      49   78330
   78336      49   78345   78348      47   78342   78345      49   78342   78348
      49   78357   78360      47   78354   78357      49   78354   78360      49
   78369   78372      47   78366   78369      49   78366   78372      49   78381
   78384      47   78378   78381      49   78378   78384      49   78393   78396
      47   78390   78393      49   78390   78396      49   78405   78408      47
   78402   78405      49   78402   78408      49   78417   78420      47   78414
   78417      49   78414   78420      49   78429   78432      47   78426   78429
      49   78426   78432      49   78441   78444      47   78438   78441      49
   78438   78444      49   78453   78456      47   78450   78453      49   78450
   78456      49   78465   78468      47   78462   78465      49   78462   78468
      49   78477   78480      47   78474   78477      49   78474   78480      49
   78489   78492      47   78486   78489      49   78486   78492      49   78501
   78504      47   78498   78501      49   78498   78504      49   78513   78516
      47   78510   78513      49   78510   78516      49   78525   78528      47
   78522   78525      49   78522   78528      49   78537   78540      47   78534
   78537      49   78534   78540      49   78549   78552      47   78546   78549
      49   78546   78552      49   78561   78564      47   78558   78561      49
   78558   78564      49   78573   78576      47   78570   78573      49   78570
   78576      49   78585   78588      47   78582   78585      49   78582   78588
      49   78597   78600      47   78594   78597      49   78594   78600      49
   78609   78612      47   78606   78609      49   78606   78612      49   78621
   78624      47   78618   78621      49   78618   78624      49   78633   78636
      47   78630   78633      49   78630   78636      49   78645   78648      47
   78642   78645      49   78642   78648      49   78657   78660      47   78654
   78657      49   78654   78660      49   78669   78672      47   78666   78669
      49   78666   78672      49   78681   78684      47   78678   78681      49
   78678   78684      49   78693   78696      47   78690   78693      49   78690
   78696      49   78705   78708      47   78702   78705      49   78702   78708
      49   78717   78720      47   78714   78717      49   78714   78720      49
   78729   78732      47   78726   78729      49   78726   78732      49   78741
   78744      47   78738   78741      49   78738   78744      49   78753   78756
      47   78750   78753      49   78750   78756      49   78765   78768      47
   78762   78765      49   78762   78768      49   78777   78780      47   78774
   78777      49   78774   78780      49   78789   78792      47   78786   78789
      49   78786   78792      49   78801   78804      47   78798   78801      49
   78798   78804      49   78813   78816      47   78810   78813      49   78810
   78816      49   78825   78828      47   78822   78825      49   78822   78828
      49   78837   78840      47   78834   78837      49   78834   78840      49
   78849   78852      47   78846   78849      49   78846   78852      49   78861
   78864      47   78858   78861      49   78858   78864      49   78873   78876
      47   78870   78873      49   78870   78876      49   78885   78888      47
   78882   78885      49   78882   78888      49   78897   78900      47   78894
   78897      49   78894   78900      49   78909   78912      47   78906   78909
      49   78906   78912      49   78921   78924      47   78918   78921      49
   78918   78924      49   78933   78936      47   78930   78933      49   78930
   78936      49   78945   78948      47   78942   78945      49   78942   78948
      49   78957   78960      47   78954   78957      49   78954   78960      49
   78969   78972      47   78966   78969      49   78966   78972      49   78981
   78984      47   78978   78981      49   78978   78984      49   78993   78996
      47   78990   78993      49   78990   78996      49   79005   79008      47
   79002   79005      49   79002   79008      49   79017   79020      47   79014
   79017      49   79014   79020      49   79029   79032      47   79026   79029
      49   79026   79032      49   79041   79044      47   79038   79041      49
   79038   79044      49   79053   79056      47   79050   79053      49   79050
   79056      49   79065   79068      47   79062   79065      49   79062   79068
      49   79077   79080      47   79074   79077      49   79074   79080      49
   79089   79092      47   79086   79089      49   79086   79092      49   79101
   79104      47   79098   79101      49   79098   79104      49   79113   79116
      47   79110   79113      49   79110   79116      49   79125   79128      47
   79122   79125      49   79122   79128      49   79137   79140      47   79134
   79137      49   79134   79140      49   79149   79152      47   79146   79149
      49   79146   79152      49   79161   79164      47   79158   79161      49
   79158   79164      49   79173   79176      47   79170   79173      49   79170
   79176      49   79185   79188      47   79182   79185      49   79182   79188
      49   79197   79200      47   79194   79197      49   79194   79200      49
   79209   79212      47   79206   79209      49   79206   79212      49   79221
   79224      47   79218   79221      49   79218   79224      49   79233   79236
      47   79230   79233      49   79230   79236      49   79245   79248      47
   79242   79245      49   79242   79248      49   79257   79260      47   79254
   79257      49   79254   79260      49   79269   79272      47   79266   79269
      49   79266   79272      49   79281   79284      47   79278   79281      49
   79278   79284      49   79293   79296      47   79290   79293      49   79290
   79296      49   79305   79308      47   79302   79305      49   79302   79308
      49   79317   79320      47   79314   79317      49   79314   79320      49
   79329   79332      47   79326   79329      49   79326   79332      49   79341
   79344      47   79338   79341      49   79338   79344      49   79353   79356
      47   79350   79353      49   79350   79356      49   79365   79368      47
   79362   79365      49   79362   79368      49   79377   79380      47   79374
   79377      49   79374   79380      49   79389   79392      47   79386   79389
      49   79386   79392      49   79401   79404      47   79398   79401      49
   79398   79404      49   79413   79416      47   79410   79413      49   79410
   79416      49   79425   79428      47   79422   79425      49   79422   79428
      49   79437   79440      47   79434   79437      49   79434   79440      49
   79449   79452      47   79446   79449      49   79446   79452      49   79461
   79464      47   79458   79461      49   79458   79464      49   79473   79476
      47   79470   79473      49   79470   79476      49   79485   79488      47
   79482   79485      49   79482   79488      49   79497   79500      47   79494
   79497      49   79494   79500      49   79509   79512      47   79506   79509
      49   79506   79512      49   79521   79524      47   79518   79521      49
   79518   79524      49   79533   79536      47   79530   79533      49   79530
   79536      49   79545   79548      47   79542   79545      49   79542   79548
      49   79557   79560      47   79554   79557      49   79554   79560      49
   79569   79572      47   79566   79569      49   79566   79572      49   79581
   79584      47   79578   79581      49   79578   79584      49   79593   79596
      47   79590   79593      49   79590   79596      49   79605   79608      47
   79602   79605      49   79602   79608      49   79617   79620      47   79614
   79617      49   79614   79620      49   79629   79632      47   79626   79629
      49   79626   79632      49   79641   79644      47   79638   79641      49
   79638   79644      49   79653   79656      47   79650   79653      49   79650
   79656      49   79665   79668      47   79662   79665      49   79662   79668
      49   79677   79680      47   79674   79677      49   79674   79680      49
   79689   79692      47   79686   79689      49   79686   79692      49   79701
   79704      47   79698   79701      49   79698   79704      49   79713   79716
      47   79710   79713      49   79710   79716      49   79725   79728      47
   79722   79725      49   79722   79728      49   79737   79740      47   79734
   79737      49   79734   79740      49   79749   79752      47   79746   79749
      49   79746   79752      49   79761   79764      47   79758   79761      49
   79758   79764      49   79773   79776      47   79770   79773      49   79770
   79776      49   79785   79788      47   79782   79785      49   79782   79788
      49   79797   79800      47   79794   79797      49   79794   79800      49
   79809   79812      47   79806   79809      49   79806   79812      49   79821
   79824      47   79818   79821      49   79818   79824      49   79833   79836
      47   79830   79833      49   79830   79836      49   79845   79848      47
   79842   79845      49   79842   79848      49   79857   79860      47   79854
   79857      49   79854   79860      49   79869   79872      47   79866   79869
      49   79866   79872      49   79881   79884      47   79878   79881      49
   79878   79884      49   79893   79896      47   79890   79893      49   79890
   79896      49   79905   79908      47   79902   79905      49   79902   79908
      49   79917   79920      47   79914   79917      49   79914   79920      49
   79929   79932      47   79926   79929      49   79926   79932      49   79941
   79944      47   79938   79941      49   79938   79944      49   79953   79956
      47   79950   79953      49   79950   79956      49   79965   79968      47
   79962   79965      49   79962   79968      49   79977   79980      47   79974
   79977      49   79974   79980      49   79989   79992      47   79986   79989
      49   79986   79992      49   80001   80004      47   79998   80001      49
   79998   80004      49   80013   80016      47   80010   80013      49   80010
   80016      49   80025   80028      47   80022   80025      49   80022   80028
      49   80037   80040      47   80034   80037      49   80034   80040      49
   80049   80052      47   80046   80049      49   80046   80052      49   80061
   80064      47   80058   80061      49   80058   80064      49   80073   80076
      47   80070   80073      49   80070   80076      49   80085   80088      47
   80082   80085      49   80082   80088      49   80097   80100      47   80094
   80097      49   80094   80100      49   80109   80112      47   80106   80109
      49   80106   80112      49   80121   80124      47   80118   80121      49
   80118   80124      49   80133   80136      47   80130   80133      49   80130
   80136      49   80145   80148      47   80142   80145      49   80142   80148
      49   80157   80160      47   80154   80157      49   80154   80160      49
   80169   80172      47   80166   80169      49   80166   80172      49   80181
   80184      47   80178   80181      49   80178   80184      49   80193   80196
      47   80190   80193      49   80190   80196      49   80205   80208      47
   80202   80205      49   80202   80208      49   80217   80220      47   80214
   80217      49   80214   80220      49   80229   80232      47   80226   80229
      49   80226   80232      49   80241   80244      47   80238   80241      49
   80238   80244      49   80253   80256      47   80250   80253      49   80250
   80256      49   80265   80268      47   80262   80265      49   80262   80268
      49   80277   80280      47   80274   80277      49   80274   80280      49
   80289   80292      47   80286   80289      49   80286   80292      49   80301
   80304      47   80298   80301      49   80298   80304      49   80313   80316
      47   80310   80313      49   80310   80316      49   80325   80328      47
   80322   80325      49   80322   80328      49   80337   80340      47   80334
   80337      49   80334   80340      49   80349   80352      47   80346   80349
      49   80346   80352      49   80361   80364      47   80358   80361      49
   80358   80364      49   80373   80376      47   80370   80373      49   80370
   80376      49   80385   80388      47   80382   80385      49   80382   80388
      49   80397   80400      47   80394   80397      49   80394   80400      49
   80409   80412      47   80406   80409      49   80406   80412      49   80421
   80424      47   80418   80421      49   80418   80424      49   80433   80436
      47   80430   80433      49   80430   80436      49   80445   80448      47
   80442   80445      49   80442   80448      49   80457   80460      47   80454
   80457      49   80454   80460      49   80469   80472      47   80466   80469
      49   80466   80472      49   80481   80484      47   80478   80481      49
   80478   80484      49   80493   80496      47   80490   80493      49   80490
   80496      49   80505   80508      47   80502   80505      49   80502   80508
      49   80517   80520      47   80514   80517      49   80514   80520      49
   80529   80532      47   80526   80529      49   80526   80532      49   80541
   80544      47   80538   80541      49   80538   80544      49   80553   80556
      47   80550   80553      49   80550   80556      49   80565   80568      47
   80562   80565      49   80562   80568      49   80577   80580      47   80574
   80577      49   80574   80580      49   80589   80592      47   80586   80589
      49   80586   80592      49   80601   80604      47   80598   80601      49
   80598   80604      49   80613   80616      47   80610   80613      49   80610
   80616      49   80625   80628      47   80622   80625      49   80622   80628
      49   80637   80640      47   80634   80637      49   80634   80640      49
   80649   80652      47   80646   80649      49   80646   80652      49   80661
   80664      47   80658   80661      49   80658   80664      49   80673   80676
      47   80670   80673      49   80670   80676      49   80685   80688      47
   80682   80685      49   80682   80688      49   80697   80700      47   80694
   80697      49   80694   80700      49   80709   80712      47   80706   80709
      49   80706   80712      49   80721   80724      47   80718   80721      49
   80718   80724      49   80733   80736      47   80730   80733      49   80730
   80736      49   80745   80748      47   80742   80745      49   80742   80748
      49   80757   80760      47   80754   80757      49   80754   80760      49
   80769   80772      47   80766   80769      49   80766   80772      49   80781
   80784      47   80778   80781      49   80778   80784      49   80793   80796
      47   80790   80793      49   80790   80796      49   80805   80808      47
   80802   80805      49   80802   80808      49   80817   80820      47   80814
   80817      49   80814   80820      49   80829   80832      47   80826   80829
      49   80826   80832      49   80841   80844      47   80838   80841      49
   80838   80844      49   80853   80856      47   80850   80853      49   80850
   80856      49   80865   80868      47   80862   80865      49   80862   80868
      49   80877   80880      47   80874   80877      49   80874   80880      49
   80889   80892      47   80886   80889      49   80886   80892      49   80901
   80904      47   80898   80901      49   80898   80904      49   80913   80916
      47   80910   80913      49   80910   80916      49   80925   80928      47
   80922   80925      49   80922   80928      49   80937   80940      47   80934
   80937      49   80934   80940      49   80949   80952      47   80946   80949
      49   80946   80952      49   80961   80964      47   80958   80961      49
   80958   80964      49   80973   80976      47   80970   80973      49   80970
   80976      49   80985   80988      47   80982   80985      49   80982   80988
      49   80997   81000      47   80994   80997      49   80994   81000      49
   81009   81012      47   81006   81009      49   81006   81012      49   81021
   81024      47   81018   81021      49   81018   81024      49   81033   81036
      47   81030   81033      49   81030   81036      49   81045   81048      47
   81042   81045      49   81042   81048      49   81057   81060      47   81054
   81057      49   81054   81060      49   81069   81072      47   81066   81069
      49   81066   81072      49   81081   81084      47   81078   81081      49
   81078   81084      49   81093   81096      47   81090   81093      49   81090
   81096      49   81105   81108      47   81102   81105      49   81102   81108
      49   81117   81120      47   81114   81117      49   81114   81120      49
   81129   81132      47   81126   81129      49   81126   81132      49   81141
   81144      47   81138   81141      49   81138   81144      49   81153   81156
      47   81150   81153      49   81150   81156      49   81165   81168      47
   81162   81165      49   81162   81168      49   81177   81180      47   81174
   81177      49   81174   81180      49   81189   81192      47   81186   81189
      49   81186   81192      49   81201   81204      47   81198   81201      49
   81198   81204      49   81213   81216      47   81210   81213      49   81210
   81216      49   81225   81228      47   81222   81225      49   81222   81228
      49   81237   81240      47   81234   81237      49   81234   81240      49
   81249   81252      47   81246   81249      49   81246   81252      49   81261
   81264      47   81258   81261      49   81258   81264      49   81273   81276
      47   81270   81273      49   81270   81276      49   81285   81288      47
   81282   81285      49   81282   81288      49   81297   81300      47   81294
   81297      49   81294   81300      49   81309   81312      47   81306   81309
      49   81306   81312      49   81321   81324      47   81318   81321      49
   81318   81324      49   81333   81336      47   81330   81333      49   81330
   81336      49   81345   81348      47   81342   81345      49   81342   81348
      49   81357   81360      47   81354   81357      49   81354   81360      49
   81369   81372      47   81366   81369      49   81366   81372      49   81381
   81384      47   81378   81381      49   81378   81384      49   81393   81396
      47   81390   81393      49   81390   81396      49   81405   81408      47
   81402   81405      49   81402   81408      49   81417   81420      47   81414
   81417      49   81414   81420      49   81429   81432      47   81426   81429
      49   81426   81432      49   81441   81444      47   81438   81441      49
   81438   81444      49   81453   81456      47   81450   81453      49   81450
   81456      49   81465   81468      47   81462   81465      49   81462   81468
      49   81477   81480      47   81474   81477      49   81474   81480      49
   81489   81492      47   81486   81489      49   81486   81492      49   81501
   81504      47   81498   81501      49   81498   81504      49   81513   81516
      47   81510   81513      49   81510   81516      49   81525   81528      47
   81522   81525      49   81522   81528      49   81537   81540      47   81534
   81537      49   81534   81540      49   81549   81552      47   81546   81549
      49   81546   81552      49   81561   81564      47   81558   81561      49
   81558   81564      49   81573   81576      47   81570   81573      49   81570
   81576      49   81585   81588      47   81582   81585      49   81582   81588
      49   81597   81600      47   81594   81597      49   81594   81600      49
   81609   81612      47   81606   81609      49   81606   81612      49   81621
   81624      47   81618   81621      49   81618   81624      49   81633   81636
      47   81630   81633      49   81630   81636      49   81645   81648      47
   81642   81645      49   81642   81648      49   81657   81660      47   81654
   81657      49   81654   81660      49   81669   81672      47   81666   81669
      49   81666   81672      49   81681   81684      47   81678   81681      49
   81678   81684      49   81693   81696      47   81690   81693      49   81690
   81696      49   81705   81708      47   81702   81705      49   81702   81708
      49   81717   81720      47   81714   81717      49   81714   81720      49
   81729   81732      47   81726   81729      49   81726   81732      49   81741
   81744      47   81738   81741      49   81738   81744      49   81753   81756
      47   81750   81753      49   81750   81756      49   81765   81768      47
   81762   81765      49   81762   81768      49   81777   81780      47   81774
   81777      49   81774   81780      49   81789   81792      47   81786   81789
      49   81786   81792      49   81801   81804      47   81798   81801      49
   81798   81804      49   81813   81816      47   81810   81813      49   81810
   81816      49   81825   81828      47   81822   81825      49   81822   81828
      49   81837   81840      47   81834   81837      49   81834   81840      49
   81849   81852      47   81846   81849      49   81846   81852      49   81861
   81864      47   81858   81861      49   81858   81864      49   81873   81876
      47   81870   81873      49   81870   81876      49   81885   81888      47
   81882   81885      49   81882   81888      49   81897   81900      47   81894
   81897      49   81894   81900      49   81909   81912      47   81906   81909
      49   81906   81912      49   81921   81924      47   81918   81921      49
   81918   81924      49   81933   81936      47   81930   81933      49   81930
   81936      49   81945   81948      47   81942   81945      49   81942   81948
      49   81957   81960      47   81954   81957      49   81954   81960      49
   81969   81972      47   81966   81969      49   81966   81972      49   81981
   81984      47   81978   81981      49   81978   81984      49   81993   81996
      47   81990   81993      49   81990   81996      49   82005   82008      47
   82002   82005      49   82002   82008      49   82017   82020      47   82014
   82017      49   82014   82020      49   82029   82032      47   82026   82029
      49   82026   82032      49   82041   82044      47   82038   82041      49
   82038   82044      49   82053   82056      47   82050   82053      49   82050
   82056      49   82065   82068      47   82062   82065      49   82062   82068
      49   82077   82080      47   82074   82077      49   82074   82080      49
   82089   82092      47   82086   82089      49   82086   82092      49   82101
   82104      47   82098   82101      49   82098   82104      49   82113   82116
      47   82110   82113      49   82110   82116      49   82125   82128      47
   82122   82125      49   82122   82128      49   82137   82140      47   82134
   82137      49   82134   82140      49   82149   82152      47   82146   82149
      49   82146   82152      49   82161   82164      47   82158   82161      49
   82158   82164      49   82173   82176      47   82170   82173      49   82170
   82176      49   82185   82188      47   82182   82185      49   82182   82188
      49   82197   82200      47   82194   82197      49   82194   82200      49
   82209   82212      47   82206   82209      49   82206   82212      49   82221
   82224      47   82218   82221      49   82218   82224      49   82233   82236
      47   82230   82233      49   82230   82236      49   82245   82248      47
   82242   82245      49   82242   82248      49   82257   82260      47   82254
   82257      49   82254   82260      49   82269   82272      47   82266   82269
      49   82266   82272      49   82281   82284      47   82278   82281      49
   82278   82284      49   82293   82296      47   82290   82293      49   82290
   82296      49   82305   82308      47   82302   82305      49   82302   82308
      49   82317   82320      47   82314   82317      49   82314   82320      49
   82329   82332      47   82326   82329      49   82326   82332      49   82341
   82344      47   82338   82341      49   82338   82344      49   82353   82356
      47   82350   82353      49   82350   82356      49   82365   82368      47
   82362   82365      49   82362   82368      49   82377   82380      47   82374
   82377      49   82374   82380      49   82389   82392      47   82386   82389
      49   82386   82392      49   82401   82404      47   82398   82401      49
   82398   82404      49   82413   82416      47   82410   82413      49   82410
   82416      49   82425   82428      47   82422   82425      49   82422   82428
      49   82437   82440      47   82434   82437      49   82434   82440      49
   82449   82452      47   82446   82449      49   82446   82452      49   82461
   82464      47   82458   82461      49   82458   82464      49   82473   82476
      47   82470   82473      49   82470   82476      49   82485   82488      47
   82482   82485      49   82482   82488      49   82497   82500      47   82494
   82497      49   82494   82500      49   82509   82512      47   82506   82509
      49   82506   82512      49   82521   82524      47   82518   82521      49
   82518   82524      49   82533   82536      47   82530   82533      49   82530
   82536      49   82545   82548      47   82542   82545      49   82542   82548
      49   82557   82560      47   82554   82557      49   82554   82560      49
   82569   82572      47   82566   82569      49   82566   82572      49   82581
   82584      47   82578   82581      49   82578   82584      49   82593   82596
      47   82590   82593      49   82590   82596      49   82605   82608      47
   82602   82605      49   82602   82608      49   82617   82620      47   82614
   82617      49   82614   82620      49   82629   82632      47   82626   82629
      49   82626   82632      49   82641   82644      47   82638   82641      49
   82638   82644      49   82653   82656      47   82650   82653      49   82650
   82656      49   82665   82668      47   82662   82665      49   82662   82668
      49   82677   82680      47   82674   82677      49   82674   82680      49
   82689   82692      47   82686   82689      49   82686   82692      49   82701
   82704      47   82698   82701      49   82698   82704      49   82713   82716
      47   82710   82713      49   82710   82716      49   82725   82728      47
   82722   82725      49   82722   82728      49   82737   82740      47   82734
   82737      49   82734   82740      49   82749   82752      47   82746   82749
      49   82746   82752      49   82761   82764      47   82758   82761      49
   82758   82764      49   82773   82776      47   82770   82773      49   82770
   82776      49   82785   82788      47   82782   82785      49   82782   82788
      49   82797   82800      47   82794   82797      49   82794   82800      49
   82809   82812      47   82806   82809      49   82806   82812      49   82821
   82824      47   82818   82821      49   82818   82824      49   82833   82836
      47   82830   82833      49   82830   82836      49   82845   82848      47
   82842   82845      49   82842   82848      49   82857   82860      47   82854
   82857      49   82854   82860      49   82869   82872      47   82866   82869
      49   82866   82872      49   82881   82884      47   82878   82881      49
   82878   82884      49   82893   82896      47   82890   82893      49   82890
   82896      49   82905   82908      47   82902   82905      49   82902   82908
      49   82917   82920      47   82914   82917      49   82914   82920      49
   82929   82932      47   82926   82929      49   82926   82932      49   82941
   82944      47   82938   82941      49   82938   82944      49   82953   82956
      47   82950   82953      49   82950   82956      49   82965   82968      47
   82962   82965      49   82962   82968      49   82977   82980      47   82974
   82977      49   82974   82980      49   82989   82992      47   82986   82989
      49   82986   82992      49   83001   83004      47   82998   83001      49
   82998   83004      49   83013   83016      47   83010   83013      49   83010
   83016      49   83025   83028      47   83022   83025      49   83022   83028
      49   83037   83040      47   83034   83037      49   83034   83040      49
   83049   83052      47   83046   83049      49   83046   83052      49   83061
   83064      47   83058   83061      49   83058   83064      49   83073   83076
      47   83070   83073      49   83070   83076      49   83085   83088      47
   83082   83085      49   83082   83088      49   83097   83100      47   83094
   83097      49   83094   83100      49   83109   83112      47   83106   83109
      49   83106   83112      49   83121   83124      47   83118   83121      49
   83118   83124      49   83133   83136      47   83130   83133      49   83130
   83136      49   83145   83148      47   83142   83145      49   83142   83148
      49   83157   83160      47   83154   83157      49   83154   83160      49
   83169   83172      47   83166   83169      49   83166   83172      49   83181
   83184      47   83178   83181      49   83178   83184      49   83193   83196
      47   83190   83193      49   83190   83196      49   83205   83208      47
   83202   83205      49   83202   83208      49   83217   83220      47   83214
   83217      49   83214   83220      49   83229   83232      47   83226   83229
      49   83226   83232      49   83241   83244      47   83238   83241      49
   83238   83244      49   83253   83256      47   83250   83253      49   83250
   83256      49   83265   83268      47   83262   83265      49   83262   83268
      49   83277   83280      47   83274   83277      49   83274   83280      49
   83289   83292      47   83286   83289      49   83286   83292      49   83301
   83304      47   83298   83301      49   83298   83304      49   83313   83316
      47   83310   83313      49   83310   83316      49   83325   83328      47
   83322   83325      49   83322   83328      49   83337   83340      47   83334
   83337      49   83334   83340      49   83349   83352      47   83346   83349
      49   83346   83352      49   83361   83364      47   83358   83361      49
   83358   83364      49   83373   83376      47   83370   83373      49   83370
   83376      49   83385   83388      47   83382   83385      49   83382   83388
      49   83397   83400      47   83394   83397      49   83394   83400      49
   83409   83412      47   83406   83409      49   83406   83412      49   83421
   83424      47   83418   83421      49   83418   83424      49   83433   83436
      47   83430   83433      49   83430   83436      49   83445   83448      47
   83442   83445      49   83442   83448      49   83457   83460      47   83454
   83457      49   83454   83460      49   83469   83472      47   83466   83469
      49   83466   83472      49   83481   83484      47   83478   83481      49
   83478   83484      49   83493   83496      47   83490   83493      49   83490
   83496      49   83505   83508      47   83502   83505      49   83502   83508
      49   83517   83520      47   83514   83517      49   83514   83520      49
   83529   83532      47   83526   83529      49   83526   83532      49   83541
   83544      47   83538   83541      49   83538   83544      49   83553   83556
      47   83550   83553      49   83550   83556      49   83565   83568      47
   83562   83565      49   83562   83568      49   83577   83580      47   83574
   83577      49   83574   83580      49   83589   83592      47   83586   83589
      49   83586   83592      49   83601   83604      47   83598   83601      49
   83598   83604      49   83613   83616      47   83610   83613      49   83610
   83616      49   83625   83628      47   83622   83625      49   83622   83628
      49   83637   83640      47   83634   83637      49   83634   83640      49
   83649   83652      47   83646   83649      49   83646   83652      49   83661
   83664      47   83658   83661      49   83658   83664      49   83673   83676
      47   83670   83673      49   83670   83676      49   83685   83688      47
   83682   83685      49   83682   83688      49   83697   83700      47   83694
   83697      49   83694   83700      49   83709   83712      47   83706   83709
      49   83706   83712      49   83721   83724      47   83718   83721      49
   83718   83724      49   83733   83736      47   83730   83733      49   83730
   83736      49   83745   83748      47   83742   83745      49   83742   83748
      49   83757   83760      47   83754   83757      49   83754   83760      49
   83769   83772      47   83766   83769      49   83766   83772      49   83781
   83784      47   83778   83781      49   83778   83784      49   83793   83796
      47   83790   83793      49   83790   83796      49   83805   83808      47
   83802   83805      49   83802   83808      49   83817   83820      47   83814
   83817      49   83814   83820      49   83829   83832      47   83826   83829
      49   83826   83832      49   83841   83844      47   83838   83841      49
   83838   83844      49   83853   83856      47   83850   83853      49   83850
   83856      49   83865   83868      47   83862   83865      49   83862   83868
      49   83877   83880      47   83874   83877      49   83874   83880      49
   83889   83892      47   83886   83889      49   83886   83892      49   83901
   83904      47   83898   83901      49   83898   83904      49   83913   83916
      47   83910   83913      49   83910   83916      49   83925   83928      47
   83922   83925      49   83922   83928      49   83937   83940      47   83934
   83937      49   83934   83940      49   83949   83952      47   83946   83949
      49   83946   83952      49   83961   83964      47   83958   83961      49
   83958   83964      49   83973   83976      47   83970   83973      49   83970
   83976      49   83985   83988      47   83982   83985      49   83982   83988
      49   83997   84000      47   83994   83997      49   83994   84000      49
   84009   84012      47   84006   84009      49   84006   84012      49   84021
   84024      47   84018   84021      49   84018   84024      49   84033   84036
      47   84030   84033      49   84030   84036      49   84045   84048      47
   84042   84045      49   84042   84048      49   84057   84060      47   84054
   84057      49   84054   84060      49   84069   84072      47   84066   84069
      49   84066   84072      49   84081   84084      47   84078   84081      49
   84078   84084      49   84093   84096      47   84090   84093      49   84090
   84096      49   84105   84108      47   84102   84105      49   84102   84108
      49   84117   84120      47   84114   84117      49   84114   84120      49
   84129   84132      47   84126   84129      49   84126   84132      49   84141
   84144      47   84138   84141      49   84138   84144      49   84153   84156
      47   84150   84153      49   84150   84156      49   84165   84168      47
   84162   84165      49   84162   84168      49   84177   84180      47   84174
   84177      49   84174   84180      49   84189   84192      47   84186   84189
      49   84186   84192      49   84201   84204      47   84198   84201      49
   84198   84204      49   84213   84216      47   84210   84213      49   84210
   84216      49   84225   84228      47   84222   84225      49   84222   84228
      49   84237   84240      47   84234   84237      49   84234   84240      49
   84249   84252      47   84246   84249      49   84246   84252      49   84261
   84264      47   84258   84261      49   84258   84264      49   84273   84276
      47   84270   84273      49   84270   84276      49   84285   84288      47
   84282   84285      49   84282   84288      49   84297   84300      47   84294
   84297      49   84294   84300      49   84309   84312      47   84306   84309
      49   84306   84312      49   84321   84324      47   84318   84321      49
   84318   84324      49   84333   84336      47   84330   84333      49   84330
   84336      49   84345   84348      47   84342   84345      49   84342   84348
      49   84357   84360      47   84354   84357      49   84354   84360      49
   84369   84372      47   84366   84369      49   84366   84372      49   84381
   84384      47   84378   84381      49   84378   84384      49   84393   84396
      47   84390   84393      49   84390   84396      49   84405   84408      47
   84402   84405      49   84402   84408      49   84417   84420      47   84414
   84417      49   84414   84420      49   84429   84432      47   84426   84429
      49   84426   84432      49   84441   84444      47   84438   84441      49
   84438   84444      49   84453   84456      47   84450   84453      49   84450
   84456      49   84465   84468      47   84462   84465      49   84462   84468
      49   84477   84480      47   84474   84477      49   84474   84480      49
   84489   84492      47   84486   84489      49   84486   84492      49   84501
   84504      47   84498   84501      49   84498   84504      49   84513   84516
      47   84510   84513      49   84510   84516      49   84525   84528      47
   84522   84525      49   84522   84528      49   84537   84540      47   84534
   84537      49   84534   84540      49   84549   84552      47   84546   84549
      49   84546   84552      49   84561   84564      47   84558   84561      49
   84558   84564      49   84573   84576      47   84570   84573      49   84570
   84576      49   84585   84588      47   84582   84585      49   84582   84588
      49   84597   84600      47   84594   84597      49   84594   84600      49
   84609   84612      47   84606   84609      49   84606   84612      49   84621
   84624      47   84618   84621      49   84618   84624      49   84633   84636
      47   84630   84633      49   84630   84636      49   84645   84648      47
   84642   84645      49   84642   84648      49   84657   84660      47   84654
   84657      49   84654   84660      49   84669   84672      47   84666   84669
      49   84666   84672      49   84681   84684      47   84678   84681      49
   84678   84684      49   84693   84696      47   84690   84693      49   84690
   84696      49   84705   84708      47   84702   84705      49   84702   84708
      49   84717   84720      47   84714   84717      49   84714   84720      49
   84729   84732      47   84726   84729      49   84726   84732      49   84741
   84744      47   84738   84741      49   84738   84744      49   84753   84756
      47   84750   84753      49   84750   84756      49   84765   84768      47
   84762   84765      49   84762   84768      49   84777   84780      47   84774
   84777      49   84774   84780      49   84789   84792      47   84786   84789
      49   84786   84792      49   84801   84804      47   84798   84801      49
   84798   84804      49   84813   84816      47   84810   84813      49   84810
   84816      49   84825   84828      47   84822   84825      49   84822   84828
      49   84837   84840      47   84834   84837      49   84834   84840      49
   84849   84852      47   84846   84849      49   84846   84852      49   84861
   84864      47   84858   84861      49   84858   84864      49   84873   84876
      47   84870   84873      49   84870   84876      49   84885   84888      47
   84882   84885      49   84882   84888      49   84897   84900      47   84894
   84897      49   84894   84900      49   84909   84912      47   84906   84909
      49   84906   84912      49   84921   84924      47   84918   84921      49
   84918   84924      49   84933   84936      47   84930   84933      49   84930
   84936      49   84945   84948      47   84942   84945      49   84942   84948
      49   84957   84960      47   84954   84957      49   84954   84960      49
   84969   84972      47   84966   84969      49   84966   84972      49   84981
   84984      47   84978   84981      49   84978   84984      49   84993   84996
      47   84990   84993      49   84990   84996      49   85005   85008      47
   85002   85005      49   85002   85008      49   85017   85020      47   85014
   85017      49   85014   85020      49   85029   85032      47   85026   85029
      49   85026   85032      49   85041   85044      47   85038   85041      49
   85038   85044      49   85053   85056      47   85050   85053      49   85050
   85056      49   85065   85068      47   85062   85065      49   85062   85068
      49   85077   85080      47   85074   85077      49   85074   85080      49
   85089   85092      47   85086   85089      49   85086   85092      49   85101
   85104      47   85098   85101      49   85098   85104      49   85113   85116
      47   85110   85113      49   85110   85116      49   85125   85128      47
   85122   85125      49   85122   85128      49   85137   85140      47   85134
   85137      49   85134   85140      49   85149   85152      47   85146   85149
      49   85146   85152      49   85161   85164      47   85158   85161      49
   85158   85164      49   85173   85176      47   85170   85173      49   85170
   85176      49   85185   85188      47   85182   85185      49   85182   85188
      49   85197   85200      47   85194   85197      49   85194   85200      49
   85209   85212      47   85206   85209      49   85206   85212      49   85221
   85224      47   85218   85221      49   85218   85224      49   85233   85236
      47   85230   85233      49   85230   85236      49   85245   85248      47
   85242   85245      49   85242   85248      49   85257   85260      47   85254
   85257      49   85254   85260      49   85269   85272      47   85266   85269
      49   85266   85272      49   85281   85284      47   85278   85281      49
   85278   85284      49   85293   85296      47   85290   85293      49   85290
   85296      49   85305   85308      47   85302   85305      49   85302   85308
      49   85317   85320      47   85314   85317      49   85314   85320      49
   85329   85332      47   85326   85329      49   85326   85332      49   85341
   85344      47   85338   85341      49   85338   85344      49   85353   85356
      47   85350   85353      49   85350   85356      49   85365   85368      47
   85362   85365      49   85362   85368      49   85377   85380      47   85374
   85377      49   85374   85380      49   85389   85392      47   85386   85389
      49   85386   85392      49   85401   85404      47   85398   85401      49
   85398   85404      49   85413   85416      47   85410   85413      49   85410
   85416      49   85425   85428      47   85422   85425      49   85422   85428
      49   85437   85440      47   85434   85437      49   85434   85440      49
   85449   85452      47   85446   85449      49   85446   85452      49   85461
   85464      47   85458   85461      49   85458   85464      49   85473   85476
      47   85470   85473      49   85470   85476      49   85485   85488      47
   85482   85485      49   85482   85488      49   85497   85500      47   85494
   85497      49   85494   85500      49   85509   85512      47   85506   85509
      49   85506   85512      49   85521   85524      47   85518   85521      49
   85518   85524      49   85533   85536      47   85530   85533      49   85530
   85536      49   85545   85548      47   85542   85545      49   85542   85548
      49   85557   85560      47   85554   85557      49   85554   85560      49
   85569   85572      47   85566   85569      49   85566   85572      49   85581
   85584      47   85578   85581      49   85578   85584      49   85593   85596
      47   85590   85593      49   85590   85596      49   85605   85608      47
   85602   85605      49   85602   85608      49   85617   85620      47   85614
   85617      49   85614   85620      49   85629   85632      47   85626   85629
      49   85626   85632      49   85641   85644      47   85638   85641      49
   85638   85644      49   85653   85656      47   85650   85653      49   85650
   85656      49   85665   85668      47   85662   85665      49   85662   85668
      49   85677   85680      47   85674   85677      49   85674   85680      49
   85689   85692      47   85686   85689      49   85686   85692      49   85701
   85704      47   85698   85701      49   85698   85704      49   85713   85716
      47   85710   85713      49   85710   85716      49   85725   85728      47
   85722   85725      49   85722   85728      49   85737   85740      47   85734
   85737      49   85734   85740      49   85749   85752      47   85746   85749
      49   85746   85752      49   85761   85764      47   85758   85761      49
   85758   85764      49   85773   85776      47   85770   85773      49   85770
   85776      49   85785   85788      47   85782   85785      49   85782   85788
      49   85797   85800      47   85794   85797      49   85794   85800      49
   85809   85812      47   85806   85809      49   85806   85812      49   85821
   85824      47   85818   85821      49   85818   85824      49   85833   85836
      47   85830   85833      49   85830   85836      49   85845   85848      47
   85842   85845      49   85842   85848      49   85857   85860      47   85854
   85857      49   85854   85860      49   85869   85872      47   85866   85869
      49   85866   85872      49   85881   85884      47   85878   85881      49
   85878   85884      49   85893   85896      47   85890   85893      49   85890
   85896      49   85905   85908      47   85902   85905      49   85902   85908
      49   85917   85920      47   85914   85917      49   85914   85920      49
   85929   85932      47   85926   85929      49   85926   85932      49   85941
   85944      47   85938   85941      49   85938   85944      49   85953   85956
      47   85950   85953      49   85950   85956      49   85965   85968      47
   85962   85965      49   85962   85968      49   85977   85980      47   85974
   85977      49   85974   85980      49   85989   85992      47   85986   85989
      49   85986   85992      49   86001   86004      47   85998   86001      49
   85998   86004      49   86013   86016      47   86010   86013      49   86010
   86016      49   86025   86028      47   86022   86025      49   86022   86028
      49   86037   86040      47   86034   86037      49   86034   86040      49
   86049   86052      47   86046   86049      49   86046   86052      49   86061
   86064      47   86058   86061      49   86058   86064      49   86073   86076
      47   86070   86073      49   86070   86076      49   86085   86088      47
   86082   86085      49   86082   86088      49   86097   86100      47   86094
   86097      49   86094   86100      49   86109   86112      47   86106   86109
      49   86106   86112      49   86121   86124      47   86118   86121      49
   86118   86124      49   86133   86136      47   86130   86133      49   86130
   86136      49   86145   86148      47   86142   86145      49   86142   86148
      49   86157   86160      47   86154   86157      49   86154   86160      49
   86169   86172      47   86166   86169      49   86166   86172      49   86181
   86184      47   86178   86181      49   86178   86184      49   86193   86196
      47   86190   86193      49   86190   86196      49   86205   86208      47
   86202   86205      49   86202   86208      49   86217   86220      47   86214
   86217      49   86214   86220      49   86229   86232      47   86226   86229
      49   86226   86232      49   86241   86244      47   86238   86241      49
   86238   86244      49   86253   86256      47   86250   86253      49   86250
   86256      49   86265   86268      47   86262   86265      49   86262   86268
      49   86277   86280      47   86274   86277      49   86274   86280      49
   86289   86292      47   86286   86289      49   86286   86292      49   86301
   86304      47   86298   86301      49   86298   86304      49   86313   86316
      47   86310   86313      49   86310   86316      49   86325   86328      47
   86322   86325      49   86322   86328      49   86337   86340      47   86334
   86337      49   86334   86340      49   86349   86352      47   86346   86349
      49   86346   86352      49   86361   86364      47   86358   86361      49
   86358   86364      49   86373   86376      47   86370   86373      49   86370
   86376      49   86385   86388      47   86382   86385      49   86382   86388
      49   86397   86400      47   86394   86397      49   86394   86400      49
   86409   86412      47   86406   86409      49   86406   86412      49   86421
   86424      47   86418   86421      49   86418   86424      49   86433   86436
      47   86430   86433      49   86430   86436      49   86445   86448      47
   86442   86445      49   86442   86448      49   86457   86460      47   86454
   86457      49   86454   86460      49   86469   86472      47   86466   86469
      49   86466   86472      49   86481   86484      47   86478   86481      49
   86478   86484      49   86493   86496      47   86490   86493      49   86490
   86496      49   86505   86508      47   86502   86505      49   86502   86508
      49   86517   86520      47   86514   86517      49   86514   86520      49
   86529   86532      47   86526   86529      49   86526   86532      49   86541
   86544      47   86538   86541      49   86538   86544      49   86553   86556
      47   86550   86553      49   86550   86556      49   86565   86568      47
   86562   86565      49   86562   86568      49   86577   86580      47   86574
   86577      49   86574   86580      49   86589   86592      47   86586   86589
      49   86586   86592      49   86601   86604      47   86598   86601      49
   86598   86604      49   86613   86616      47   86610   86613      49   86610
   86616      49   86625   86628      47   86622   86625      49   86622   86628
      49   86637   86640      47   86634   86637      49   86634   86640      49
   86649   86652      47   86646   86649      49   86646   86652      49   86661
   86664      47   86658   86661      49   86658   86664      49   86673   86676
      47   86670   86673      49   86670   86676      49   86685   86688      47
   86682   86685      49   86682   86688      49   86697   86700      47   86694
   86697      49   86694   86700      49   86709   86712      47   86706   86709
      49   86706   86712      49   86721   86724      47   86718   86721      49
   86718   86724      49   86733   86736      47   86730   86733      49   86730
   86736      49   86745   86748      47   86742   86745      49   86742   86748
      49   86757   86760      47   86754   86757      49   86754   86760      49
   86769   86772      47   86766   86769      49   86766   86772      49   86781
   86784      47   86778   86781      49   86778   86784      49   86793   86796
      47   86790   86793      49   86790   86796      49   86805   86808      47
   86802   86805      49   86802   86808      49   86817   86820      47   86814
   86817      49   86814   86820      49   86829   86832      47   86826   86829
      49   86826   86832      49   86841   86844      47   86838   86841      49
   86838   86844      49   86853   86856      47   86850   86853      49   86850
   86856      49   86865   86868      47   86862   86865      49   86862   86868
      49   86877   86880      47   86874   86877      49   86874   86880      49
   86889   86892      47   86886   86889      49   86886   86892      49   86901
   86904      47   86898   86901      49   86898   86904      49   86913   86916
      47   86910   86913      49   86910   86916      49   86925   86928      47
   86922   86925      49   86922   86928      49   86937   86940      47   86934
   86937      49   86934   86940      49   86949   86952      47   86946   86949
      49   86946   86952      49   86961   86964      47   86958   86961      49
   86958   86964      49   86973   86976      47   86970   86973      49   86970
   86976      49   86985   86988      47   86982   86985      49   86982   86988
      49   86997   87000      47   86994   86997      49   86994   87000      49
   87009   87012      47   87006   87009      49   87006   87012      49   87021
   87024      47   87018   87021      49   87018   87024      49   87033   87036
      47   87030   87033      49   87030   87036      49   87045   87048      47
   87042   87045      49   87042   87048      49   87057   87060      47   87054
   87057      49   87054   87060      49   87069   87072      47   87066   87069
      49   87066   87072      49   87081   87084      47   87078   87081      49
   87078   87084      49   87093   87096      47   87090   87093      49   87090
   87096      49   87105   87108      47   87102   87105      49   87102   87108
      49   87117   87120      47   87114   87117      49   87114   87120      49
   87129   87132      47   87126   87129      49   87126   87132      49   87141
   87144      47   87138   87141      49   87138   87144      49   87153   87156
      47   87150   87153      49   87150   87156      49   87165   87168      47
   87162   87165      49   87162   87168      49   87177   87180      47   87174
   87177      49   87174   87180      49   87189   87192      47   87186   87189
      49   87186   87192      49   87201   87204      47   87198   87201      49
   87198   87204      49   87213   87216      47   87210   87213      49   87210
   87216      49   87225   87228      47   87222   87225      49   87222   87228
      49   87237   87240      47   87234   87237      49   87234   87240      49
   87249   87252      47   87246   87249      49   87246   87252      49   87261
   87264      47   87258   87261      49   87258   87264      49   87273   87276
      47   87270   87273      49   87270   87276      49   87285   87288      47
   87282   87285      49   87282   87288      49   87297   87300      47   87294
   87297      49   87294   87300      49   87309   87312      47   87306   87309
      49   87306   87312      49   87321   87324      47   87318   87321      49
   87318   87324      49   87333   87336      47   87330   87333      49   87330
   87336      49   87345   87348      47   87342   87345      49   87342   87348
      49   87357   87360      47   87354   87357      49   87354   87360      49
   87369   87372      47   87366   87369      49   87366   87372      49   87381
   87384      47   87378   87381      49   87378   87384      49   87393   87396
      47   87390   87393      49   87390   87396      49   87405   87408      47
   87402   87405      49   87402   87408      49   87417   87420      47   87414
   87417      49   87414   87420      49   87429   87432      47   87426   87429
      49   87426   87432      49   87441   87444      47   87438   87441      49
   87438   87444      49   87453   87456      47   87450   87453      49   87450
   87456      49   87465   87468      47   87462   87465      49   87462   87468
      49   87477   87480      47   87474   87477      49   87474   87480      49
   87489   87492      47   87486   87489      49   87486   87492      49   87501
   87504      47   87498   87501      49   87498   87504      49   87513   87516
      47   87510   87513      49   87510   87516      49   87525   87528      47
   87522   87525      49   87522   87528      49   87537   87540      47   87534
   87537      49   87534   87540      49   87549   87552      47   87546   87549
      49   87546   87552      49   87561   87564      47   87558   87561      49
   87558   87564      49   87573   87576      47   87570   87573      49   87570
   87576      49   87585   87588      47   87582   87585      49   87582   87588
      49   87597   87600      47   87594   87597      49   87594   87600      49
   87609   87612      47   87606   87609      49   87606   87612      49   87621
   87624      47   87618   87621      49   87618   87624      49   87633   87636
      47   87630   87633      49   87630   87636      49   87645   87648      47
   87642   87645      49   87642   87648      49   87657   87660      47   87654
   87657      49   87654   87660      49   87669   87672      47   87666   87669
      49   87666   87672      49   87681   87684      47   87678   87681      49
   87678   87684      49   87693   87696      47   87690   87693      49   87690
   87696      49   87705   87708      47   87702   87705      49   87702   87708
      49   87717   87720      47   87714   87717      49   87714   87720      49
   87729   87732      47   87726   87729      49   87726   87732      49   87741
   87744      47   87738   87741      49   87738   87744      49   87753   87756
      47   87750   87753      49   87750   87756      49   87765   87768      47
   87762   87765      49   87762   87768      49   87777   87780      47   87774
   87777      49   87774   87780      49   87789   87792      47   87786   87789
      49   87786   87792      49   87801   87804      47   87798   87801      49
   87798   87804      49   87813   87816      47   87810   87813      49   87810
   87816      49   87825   87828      47   87822   87825      49   87822   87828
      49   87837   87840      47   87834   87837      49   87834   87840      49
   87849   87852      47   87846   87849      49   87846   87852      49   87861
   87864      47   87858   87861      49   87858   87864      49   87873   87876
      47   87870   87873      49   87870   87876      49   87885   87888      47
   87882   87885      49   87882   87888      49   87897   87900      47   87894
   87897      49   87894   87900      49   87909   87912      47   87906   87909
      49   87906   87912      49   87921   87924      47   87918   87921      49
   87918   87924      49   87933   87936      47   87930   87933      49   87930
   87936      49   87945   87948      47   87942   87945      49   87942   87948
      49   87957   87960      47   87954   87957      49   87954   87960      49
   87969   87972      47   87966   87969      49   87966   87972      49   87981
   87984      47   87978   87981      49   87978   87984      49   87993   87996
      47   87990   87993      49   87990   87996      49   88005   88008      47
   88002   88005      49   88002   88008      49   88017   88020      47   88014
   88017      49   88014   88020      49   88029   88032      47   88026   88029
      49   88026   88032      49   88041   88044      47   88038   88041      49
   88038   88044      49   88053   88056      47   88050   88053      49   88050
   88056      49   88065   88068      47   88062   88065      49   88062   88068
      49   88077   88080      47   88074   88077      49   88074   88080      49
   88089   88092      47   88086   88089      49   88086   88092      49   88101
   88104      47   88098   88101      49   88098   88104      49   88113   88116
      47   88110   88113      49   88110   88116      49   88125   88128      47
   88122   88125      49   88122   88128      49   88137   88140      47   88134
   88137      49   88134   88140      49   88149   88152      47   88146   88149
      49   88146   88152      49   88161   88164      47   88158   88161      49
   88158   88164      49   88173   88176      47   88170   88173      49   88170
   88176      49   88185   88188      47   88182   88185      49   88182   88188
      49   88197   88200      47   88194   88197      49   88194   88200      49
   88209   88212      47   88206   88209      49   88206   88212      49   88221
   88224      47   88218   88221      49   88218   88224      49   88233   88236
      47   88230   88233      49   88230   88236      49   88245   88248      47
   88242   88245      49   88242   88248      49   88257   88260      47   88254
   88257      49   88254   88260      49   88269   88272      47   88266   88269
      49   88266   88272      49   88281   88284      47   88278   88281      49
   88278   88284      49   88293   88296      47   88290   88293      49   88290
   88296      49   88305   88308      47   88302   88305      49   88302   88308
      49   88317   88320      47   88314   88317      49   88314   88320      49
   88329   88332      47   88326   88329      49   88326   88332      49   88341
   88344      47   88338   88341      49   88338   88344      49   88353   88356
      47   88350   88353      49   88350   88356      49   88365   88368      47
   88362   88365      49   88362   88368      49   88377   88380      47   88374
   88377      49   88374   88380      49   88389   88392      47   88386   88389
      49   88386   88392      49   88401   88404      47   88398   88401      49
   88398   88404      49   88413   88416      47   88410   88413      49   88410
   88416      49   88425   88428      47   88422   88425      49   88422   88428
      49   88437   88440      47   88434   88437      49   88434   88440      49
   88449   88452      47   88446   88449      49   88446   88452      49   88461
   88464      47   88458   88461      49   88458   88464      49   88473   88476
      47   88470   88473      49   88470   88476      49   88485   88488      47
   88482   88485      49   88482   88488      49   88497   88500      47   88494
   88497      49   88494   88500      49   88509   88512      47   88506   88509
      49   88506   88512      49   88521   88524      47   88518   88521      49
   88518   88524      49   88533   88536      47   88530   88533      49   88530
   88536      49   88545   88548      47   88542   88545      49   88542   88548
      49   88557   88560      47   88554   88557      49   88554   88560      49
   88569   88572      47   88566   88569      49   88566   88572      49   88581
   88584      47   88578   88581      49   88578   88584      49   88593   88596
      47   88590   88593      49   88590   88596      49   88605   88608      47
   88602   88605      49   88602   88608      49   88617   88620      47   88614
   88617      49   88614   88620      49   88629   88632      47   88626   88629
      49   88626   88632      49   88641   88644      47   88638   88641      49
   88638   88644      49   88653   88656      47   88650   88653      49   88650
   88656      49   88665   88668      47   88662   88665      49   88662   88668
      49   88677   88680      47   88674   88677      49   88674   88680      49
   88689   88692      47   88686   88689      49   88686   88692      49   88701
   88704      47   88698   88701      49   88698   88704      49   88713   88716
      47   88710   88713      49   88710   88716      49   88725   88728      47
   88722   88725      49   88722   88728      49   88737   88740      47   88734
   88737      49   88734   88740      49   88749   88752      47   88746   88749
      49   88746   88752      49   88761   88764      47   88758   88761      49
   88758   88764      49   88773   88776      47   88770   88773      49   88770
   88776      49   88785   88788      47   88782   88785      49   88782   88788
      49   88797   88800      47   88794   88797      49   88794   88800      49
   88809   88812      47   88806   88809      49   88806   88812      49   88821
   88824      47   88818   88821      49   88818   88824      49   88833   88836
      47   88830   88833      49   88830   88836      49   88845   88848      47
   88842   88845      49   88842   88848      49   88857   88860      47   88854
   88857      49   88854   88860      49   88869   88872      47   88866   88869
      49   88866   88872      49   88881   88884      47   88878   88881      49
   88878   88884      49   88893   88896      47   88890   88893      49   88890
   88896      49   88905   88908      47   88902   88905      49   88902   88908
      49   88917   88920      47   88914   88917      49   88914   88920      49
   88929   88932      47   88926   88929      49   88926   88932      49   88941
   88944      47   88938   88941      49   88938   88944      49   88953   88956
      47   88950   88953      49   88950   88956      49   88965   88968      47
   88962   88965      49   88962   88968      49   88977   88980      47   88974
   88977      49   88974   88980      49   88989   88992      47   88986   88989
      49   88986   88992      49   89001   89004      47   88998   89001      49
   88998   89004      49   89013   89016      47   89010   89013      49   89010
   89016      49   89025   89028      47   89022   89025      49   89022   89028
      49   89037   89040      47   89034   89037      49   89034   89040      49
   89049   89052      47   89046   89049      49   89046   89052      49   89061
   89064      47   89058   89061      49   89058   89064      49   89073   89076
      47   89070   89073      49   89070   89076      49   89085   89088      47
   89082   89085      49   89082   89088      49   89097   89100      47   89094
   89097      49   89094   89100      49   89109   89112      47   89106   89109
      49   89106   89112      49   89121   89124      47   89118   89121      49
   89118   89124      49   89133   89136      47   89130   89133      49   89130
   89136      49   89145   89148      47   89142   89145      49   89142   89148
      49   89157   89160      47   89154   89157      49   89154   89160      49
   89169   89172      47   89166   89169      49   89166   89172      49   89181
   89184      47   89178   89181      49   89178   89184      49   89193   89196
      47   89190   89193      49   89190   89196      49   89205   89208      47
   89202   89205      49   89202   89208      49   89217   89220      47   89214
   89217      49   89214   89220      49   89229   89232      47   89226   89229
      49   89226   89232      49   89241   89244      47   89238   89241      49
   89238   89244      49   89253   89256      47   89250   89253      49   89250
   89256      49   89265   89268      47   89262   89265      49   89262   89268
      49   89277   89280      47   89274   89277      49   89274   89280      49
   89289   89292      47   89286   89289      49   89286   89292      49   89301
   89304      47   89298   89301      49   89298   89304      49   89313   89316
      47   89310   89313      49   89310   89316      49   89325   89328      47
   89322   89325      49   89322   89328      49   89337   89340      47   89334
   89337      49   89334   89340      49   89349   89352      47   89346   89349
      49   89346   89352      49   89361   89364      47   89358   89361      49
   89358   89364      49   89373   89376      47   89370   89373      49   89370
   89376      49   89385   89388      47   89382   89385      49   89382   89388
      49   89397   89400      47   89394   89397      49   89394   89400      49
   89409   89412      47   89406   89409      49   89406   89412      49   89421
   89424      47   89418   89421      49   89418   89424      49   89433   89436
      47   89430   89433      49   89430   89436      49   89445   89448      47
   89442   89445      49   89442   89448      49   89457   89460      47   89454
   89457      49   89454   89460      49   89469   89472      47   89466   89469
      49   89466   89472      49   89481   89484      47   89478   89481      49
   89478   89484      49   89493   89496      47   89490   89493      49   89490
   89496      49   89505   89508      47   89502   89505      49   89502   89508
      49   89517   89520      47   89514   89517      49   89514   89520      49
   89529   89532      47   89526   89529      49   89526   89532      49   89541
   89544      47   89538   89541      49   89538   89544      49   89553   89556
      47   89550   89553      49   89550   89556      49   89565   89568      47
   89562   89565      49   89562   89568      49   89577   89580      47   89574
   89577      49   89574   89580      49   89589   89592      47   89586   89589
      49   89586   89592      49   89601   89604      47   89598   89601      49
   89598   89604      49   89613   89616      47   89610   89613      49   89610
   89616      49   89625   89628      47   89622   89625      49   89622   89628
      49   89637   89640      47   89634   89637      49   89634   89640      49
   89649   89652      47   89646   89649      49   89646   89652      49   89661
   89664      47   89658   89661      49   89658   89664      49   89673   89676
      47   89670   89673      49   89670   89676      49   89685   89688      47
   89682   89685      49   89682   89688      49   89697   89700      47   89694
   89697      49   89694   89700      49   89709   89712      47   89706   89709
      49   89706   89712      49   89721   89724      47   89718   89721      49
   89718   89724      49   89733   89736      47   89730   89733      49   89730
   89736      49   89745   89748      47   89742   89745      49   89742   89748
      49   89757   89760      47   89754   89757      49   89754   89760      49
   89769   89772      47   89766   89769      49   89766   89772      49   89781
   89784      47   89778   89781      49   89778   89784      49   89793   89796
      47   89790   89793      49   89790   89796      49   89805   89808      47
   89802   89805      49   89802   89808      49   89817   89820      47   89814
   89817      49   89814   89820      49   89829   89832      47   89826   89829
      49   89826   89832      49   89841   89844      47   89838   89841      49
   89838   89844      49   89853   89856      47   89850   89853      49   89850
   89856      49   89865   89868      47   89862   89865      49   89862   89868
      49   89877   89880      47   89874   89877      49   89874   89880      49
   89889   89892      47   89886   89889      49   89886   89892      49   89901
   89904      47   89898   89901      49   89898   89904      49   89913   89916
      47   89910   89913      49   89910   89916      49   89925   89928      47
   89922   89925      49   89922   89928      49   89937   89940      47   89934
   89937      49   89934   89940      49   89949   89952      47   89946   89949
      49   89946   89952      49   89961   89964      47   89958   89961      49
   89958   89964      49   89973   89976      47   89970   89973      49   89970
   89976      49   89985   89988      47   89982   89985      49   89982   89988
      49   89997   90000      47   89994   89997      49   89994   90000      49
   90009   90012      47   90006   90009      49   90006   90012      49   90021
   90024      47   90018   90021      49   90018   90024      49   90033   90036
      47   90030   90033      49   90030   90036      49   90045   90048      47
   90042   90045      49   90042   90048      49   90057   90060      47   90054
   90057      49   90054   90060      49   90069   90072      47   90066   90069
      49   90066   90072      49   90081   90084      47   90078   90081      49
   90078   90084      49   90093   90096      47   90090   90093      49   90090
   90096      49   90105   90108      47   90102   90105      49   90102   90108
      49   90117   90120      47   90114   90117      49   90114   90120      49
   90129   90132      47   90126   90129      49   90126   90132      49   90141
   90144      47   90138   90141      49   90138   90144      49   90153   90156
      47   90150   90153      49   90150   90156      49   90165   90168      47
   90162   90165      49   90162   90168      49   90177   90180      47   90174
   90177      49   90174   90180      49   90189   90192      47   90186   90189
      49   90186   90192      49   90201   90204      47   90198   90201      49
   90198   90204      49   90213   90216      47   90210   90213      49   90210
   90216      49   90225   90228      47   90222   90225      49   90222   90228
      49   90237   90240      47   90234   90237      49   90234   90240      49
   90249   90252      47   90246   90249      49   90246   90252      49   90261
   90264      47   90258   90261      49   90258   90264      49   90273   90276
      47   90270   90273      49   90270   90276      49   90285   90288      47
   90282   90285      49   90282   90288      49   90297   90300      47   90294
   90297      49   90294   90300      49   90309   90312      47   90306   90309
      49   90306   90312      49   90321   90324      47   90318   90321      49
   90318   90324      49   90333   90336      47   90330   90333      49   90330
   90336      49   90345   90348      47   90342   90345      49   90342   90348
      49   90357   90360      47   90354   90357      49   90354   90360      49
   90369   90372      47   90366   90369      49   90366   90372      49   90381
   90384      47   90378   90381      49   90378   90384      49   90393   90396
      47   90390   90393      49   90390   90396      49   90405   90408      47
   90402   90405      49   90402   90408      49   90417   90420      47   90414
   90417      49   90414   90420      49   90429   90432      47   90426   90429
      49   90426   90432      49   90441   90444      47   90438   90441      49
   90438   90444      49   90453   90456      47   90450   90453      49   90450
   90456      49   90465   90468      47   90462   90465      49   90462   90468
      49   90477   90480      47   90474   90477      49   90474   90480      49
   90489   90492      47   90486   90489      49   90486   90492      49   90501
   90504      47   90498   90501      49   90498   90504      49   90513   90516
      47   90510   90513      49   90510   90516      49   90525   90528      47
   90522   90525      49   90522   90528      49   90537   90540      47   90534
   90537      49   90534   90540      49   90549   90552      47   90546   90549
      49   90546   90552      49   90561   90564      47   90558   90561      49
   90558   90564      49   90573   90576      47   90570   90573      49   90570
   90576      49   90585   90588      47   90582   90585      49   90582   90588
      49   90597   90600      47   90594   90597      49   90594   90600      49
   90609   90612      47   90606   90609      49   90606   90612      49   90621
   90624      47   90618   90621      49   90618   90624      49   90633   90636
      47   90630   90633      49   90630   90636      49   90645   90648      47
   90642   90645      49   90642   90648      49   90657   90660      47   90654
   90657      49   90654   90660      49   90669   90672      47   90666   90669
      49   90666   90672      49   90681   90684      47   90678   90681      49
   90678   90684      49   90693   90696      47   90690   90693      49   90690
   90696      49   90705   90708      47   90702   90705      49   90702   90708
      49   90717   90720      47   90714   90717      49   90714   90720      49
   90729   90732      47   90726   90729      49   90726   90732      49   90741
   90744      47   90738   90741      49   90738   90744      49   90753   90756
      47   90750   90753      49   90750   90756      49   90765   90768      47
   90762   90765      49   90762   90768      49   90777   90780      47   90774
   90777      49   90774   90780      49   90789   90792      47   90786   90789
      49   90786   90792      49   90801   90804      47   90798   90801      49
   90798   90804      49   90813   90816      47   90810   90813      49   90810
   90816      49   90825   90828      47   90822   90825      49   90822   90828
      49   90837   90840      47   90834   90837      49   90834   90840      49
   90849   90852      47   90846   90849      49   90846   90852      49   90861
   90864      47   90858   90861      49   90858   90864      49   90873   90876
      47   90870   90873      49   90870   90876      49   90885   90888      47
   90882   90885      49   90882   90888      49   90897   90900      47   90894
   90897      49   90894   90900      49   90909   90912      47   90906   90909
      49   90906   90912      49   90921   90924      47   90918   90921      49
   90918   90924      49   90933   90936      47   90930   90933      49   90930
   90936      49   90945   90948      47   90942   90945      49   90942   90948
      49   90957   90960      47   90954   90957      49   90954   90960      49
   90969   90972      47   90966   90969      49   90966   90972      49   90981
   90984      47   90978   90981      49   90978   90984      49   90993   90996
      47   90990   90993      49   90990   90996      49   91005   91008      47
   91002   91005      49   91002   91008      49   91017   91020      47   91014
   91017      49   91014   91020      49   91029   91032      47   91026   91029
      49   91026   91032      49   91041   91044      47   91038   91041      49
   91038   91044      49   91053   91056      47   91050   91053      49   91050
   91056      49   91065   91068      47   91062   91065      49   91062   91068
      49   91077   91080      47   91074   91077      49   91074   91080      49
   91089   91092      47   91086   91089      49   91086   91092      49   91101
   91104      47   91098   91101      49   91098   91104      49   91113   91116
      47   91110   91113      49   91110   91116      49   91125   91128      47
   91122   91125      49   91122   91128      49   91137   91140      47   91134
   91137      49   91134   91140      49   91149   91152      47   91146   91149
      49   91146   91152      49   91161   91164      47   91158   91161      49
   91158   91164      49   91173   91176      47   91170   91173      49   91170
   91176      49   91185   91188      47   91182   91185      49   91182   91188
      49   91197   91200      47   91194   91197      49   91194   91200      49
   91209   91212      47   91206   91209      49   91206   91212      49   91221
   91224      47   91218   91221      49   91218   91224      49   91233   91236
      47   91230   91233      49   91230   91236      49   91245   91248      47
   91242   91245      49   91242   91248      49   91257   91260      47   91254
   91257      49   91254   91260      49   91269   91272      47   91266   91269
      49   91266   91272      49   91281   91284      47   91278   91281      49
   91278   91284      49   91293   91296      47   91290   91293      49   91290
   91296      49   91305   91308      47   91302   91305      49   91302   91308
      49   91317   91320      47   91314   91317      49   91314   91320      49
   91329   91332      47   91326   91329      49   91326   91332      49   91341
   91344      47   91338   91341      49   91338   91344      49   91353   91356
      47   91350   91353      49   91350   91356      49   91365   91368      47
   91362   91365      49   91362   91368      49   91377   91380      47   91374
   91377      49   91374   91380      49   91389   91392      47   91386   91389
      49   91386   91392      49   91401   91404      47   91398   91401      49
   91398   91404      49   91413   91416      47   91410   91413      49   91410
   91416      49   91425   91428      47   91422   91425      49   91422   91428
      49   91437   91440      47   91434   91437      49   91434   91440      49
   91449   91452      47   91446   91449      49   91446   91452      49   91461
   91464      47   91458   91461      49   91458   91464      49   91473   91476
      47   91470   91473      49   91470   91476      49   91485   91488      47
   91482   91485      49   91482   91488      49   91497   91500      47   91494
   91497      49   91494   91500      49   91509   91512      47   91506   91509
      49   91506   91512      49   91521   91524      47   91518   91521      49
   91518   91524      49   91533   91536      47   91530   91533      49   91530
   91536      49   91545   91548      47   91542   91545      49   91542   91548
      49   91557   91560      47   91554   91557      49   91554   91560      49
   91569   91572      47   91566   91569      49   91566   91572      49   91581
   91584      47   91578   91581      49   91578   91584      49   91593   91596
      47   91590   91593      49   91590   91596      49   91605   91608      47
   91602   91605      49   91602   91608      49   91617   91620      47   91614
   91617      49   91614   91620      49   91629   91632      47   91626   91629
      49   91626   91632      49   91641   91644      47   91638   91641      49
   91638   91644      49   91653   91656      47   91650   91653      49   91650
   91656      49   91665   91668      47   91662   91665      49   91662   91668
      49   91677   91680      47   91674   91677      49   91674   91680      49
   91689   91692      47   91686   91689      49   91686   91692      49   91701
   91704      47   91698   91701      49   91698   91704      49   91713   91716
      47   91710   91713      49   91710   91716      49   91725   91728      47
   91722   91725      49   91722   91728      49   91737   91740      47   91734
   91737      49   91734   91740      49   91749   91752      47   91746   91749
      49   91746   91752      49   91761   91764      47   91758   91761      49
   91758   91764      49   91773   91776      47   91770   91773      49   91770
   91776      49   91785   91788      47   91782   91785      49   91782   91788
      49   91797   91800      47   91794   91797      49   91794   91800      49
   91809   91812      47   91806   91809      49   91806   91812      49   91821
   91824      47   91818   91821      49   91818   91824      49   91833   91836
      47   91830   91833      49   91830   91836      49   91845   91848      47
   91842   91845      49   91842   91848      49   91857   91860      47   91854
   91857      49   91854   91860      49   91869   91872      47   91866   91869
      49   91866   91872      49   91881   91884      47   91878   91881      49
   91878   91884      49   91893   91896      47   91890   91893      49   91890
   91896      49   91905   91908      47   91902   91905      49   91902   91908
      49   91917   91920      47   91914   91917      49   91914   91920      49
   91929   91932      47   91926   91929      49   91926   91932      49   91941
   91944      47   91938   91941      49   91938   91944      49   91953   91956
      47   91950   91953      49   91950   91956      49   91965   91968      47
   91962   91965      49   91962   91968      49   91977   91980      47   91974
   91977      49   91974   91980      49   91989   91992      47   91986   91989
      49   91986   91992      49   92001   92004      47   91998   92001      49
   91998   92004      49   92013   92016      47   92010   92013      49   92010
   92016      49   92025   92028      47   92022   92025      49   92022   92028
      49   92037   92040      47   92034   92037      49   92034   92040      49
   92049   92052      47   92046   92049      49   92046   92052      49   92061
   92064      47   92058   92061      49   92058   92064      49   92073   92076
      47   92070   92073      49   92070   92076      49   92085   92088      47
   92082   92085      49   92082   92088      49   92097   92100      47   92094
   92097      49   92094   92100      49   92109   92112      47   92106   92109
      49   92106   92112      49   92121   92124      47   92118   92121      49
   92118   92124      49   92133   92136      47   92130   92133      49   92130
   92136      49   92145   92148      47   92142   92145      49   92142   92148
      49   92157   92160      47   92154   92157      49   92154   92160      49
   92169   92172      47   92166   92169      49   92166   92172      49   92181
   92184      47   92178   92181      49   92178   92184      49   92193   92196
      47   92190   92193      49   92190   92196      49   92205   92208      47
   92202   92205      49   92202   92208      49   92217   92220      47   92214
   92217      49   92214   92220      49   92229   92232      47   92226   92229
      49   92226   92232      49   92241   92244      47   92238   92241      49
   92238   92244      49   92253   92256      47   92250   92253      49   92250
   92256      49   92265   92268      47   92262   92265      49   92262   92268
      49   92277   92280      47   92274   92277      49   92274   92280      49
   92289   92292      47   92286   92289      49   92286   92292      49   92301
   92304      47   92298   92301      49   92298   92304      49   92313   92316
      47   92310   92313      49   92310   92316      49   92325   92328      47
   92322   92325      49   92322   92328      49   92337   92340      47   92334
   92337      49   92334   92340      49   92349   92352      47   92346   92349
      49   92346   92352      49   92361   92364      47   92358   92361      49
   92358   92364      49   92373   92376      47   92370   92373      49   92370
   92376      49   92385   92388      47   92382   92385      49   92382   92388
      49   92397   92400      47   92394   92397      49   92394   92400      49
   92409   92412      47   92406   92409      49   92406   92412      49   92421
   92424      47   92418   92421      49   92418   92424      49   92433   92436
      47   92430   92433      49   92430   92436      49   92445   92448      47
   92442   92445      49   92442   92448      49   92457   92460      47   92454
   92457      49   92454   92460      49   92469   92472      47   92466   92469
      49   92466   92472      49   92481   92484      47   92478   92481      49
   92478   92484      49   92493   92496      47   92490   92493      49   92490
   92496      49   92505   92508      47   92502   92505      49   92502   92508
      49   92517   92520      47   92514   92517      49   92514   92520      49
   92529   92532      47   92526   92529      49   92526   92532      49   92541
   92544      47   92538   92541      49   92538   92544      49   92553   92556
      47   92550   92553      49   92550   92556      49   92565   92568      47
   92562   92565      49   92562   92568      49   92577   92580      47   92574
   92577      49   92574   92580      49   92589   92592      47   92586   92589
      49   92586   92592      49   92601   92604      47   92598   92601      49
   92598   92604      49   92613   92616      47   92610   92613      49   92610
   92616      49   92625   92628      47   92622   92625      49   92622   92628
      49   92637   92640      47   92634   92637      49   92634   92640      49
   92649   92652      47   92646   92649      49   92646   92652      49   92661
   92664      47   92658   92661      49   92658   92664      49   92673   92676
      47   92670   92673      49   92670   92676      49   92685   92688      47
   92682   92685      49   92682   92688      49   92697   92700      47   92694
   92697      49   92694   92700      49   92709   92712      47   92706   92709
      49   92706   92712      49   92721   92724      47   92718   92721      49
   92718   92724      49   92733   92736      47   92730   92733      49   92730
   92736      49   92745   92748      47   92742   92745      49   92742   92748
      49   92757   92760      47   92754   92757      49   92754   92760      49
   92769   92772      47   92766   92769      49   92766   92772      49   92781
   92784      47   92778   92781      49   92778   92784      49   92793   92796
      47   92790   92793      49   92790   92796      49   92805   92808      47
   92802   92805      49   92802   92808      49   92817   92820      47   92814
   92817      49   92814   92820      49   92829   92832      47   92826   92829
      49   92826   92832      49   92841   92844      47   92838   92841      49
   92838   92844      49   92853   92856      47   92850   92853      49   92850
   92856      49   92865   92868      47   92862   92865      49   92862   92868
      49   92877   92880      47   92874   92877      49   92874   92880      49
   92889   92892      47   92886   92889      49   92886   92892      49   92901
   92904      47   92898   92901      49   92898   92904      49   92913   92916
      47   92910   92913      49   92910   92916      49   92925   92928      47
   92922   92925      49   92922   92928      49   92937   92940      47   92934
   92937      49   92934   92940      49   92949   92952      47   92946   92949
      49   92946   92952      49   92961   92964      47   92958   92961      49
   92958   92964      49   92973   92976      47   92970   92973      49   92970
   92976      49   92985   92988      47   92982   92985      49   92982   92988
      49   92997   93000      47   92994   92997      49   92994   93000      49
   93009   93012      47   93006   93009      49   93006   93012      49   93021
   93024      47   93018   93021      49   93018   93024      49   93033   93036
      47   93030   93033      49   93030   93036      49   93045   93048      47
   93042   93045      49   93042   93048      49   93057   93060      47   93054
   93057      49   93054   93060      49   93069   93072      47   93066   93069
      49   93066   93072      49   93081   93084      47   93078   93081      49
   93078   93084      49   93093   93096      47   93090   93093      49   93090
   93096      49   93105   93108      47   93102   93105      49   93102   93108
      49   93117   93120      47   93114   93117      49   93114   93120      49
   93129   93132      47   93126   93129      49   93126   93132      49   93141
   93144      47   93138   93141      49   93138   93144      49   93153   93156
      47   93150   93153      49   93150   93156      49   93165   93168      47
   93162   93165      49   93162   93168      49   93177   93180      47   93174
   93177      49   93174   93180      49   93189   93192      47   93186   93189
      49   93186   93192      49   93201   93204      47   93198   93201      49
   93198   93204      49   93213   93216      47   93210   93213      49   93210
   93216      49   93225   93228      47   93222   93225      49   93222   93228
      49   93237   93240      47   93234   93237      49   93234   93240      49
   93249   93252      47   93246   93249      49   93246   93252      49   93261
   93264      47   93258   93261      49   93258   93264      49   93273   93276
      47   93270   93273      49   93270   93276      49   93285   93288      47
   93282   93285      49   93282   93288      49   93297   93300      47   93294
   93297      49   93294   93300      49   93309   93312      47   93306   93309
      49   93306   93312      49   93321   93324      47   93318   93321      49
   93318   93324      49   93333   93336      47   93330   93333      49   93330
   93336      49   93345   93348      47   93342   93345      49   93342   93348
      49   93357   93360      47   93354   93357      49   93354   93360      49
   93369   93372      47   93366   93369      49   93366   93372      49   93381
   93384      47   93378   93381      49   93378   93384      49   93393   93396
      47   93390   93393      49   93390   93396      49   93405   93408      47
   93402   93405      49   93402   93408      49   93417   93420      47   93414
   93417      49   93414   93420      49   93429   93432      47   93426   93429
      49   93426   93432      49   93441   93444      47   93438   93441      49
   93438   93444      49   93453   93456      47   93450   93453      49   93450
   93456      49   93465   93468      47   93462   93465      49   93462   93468
      49   93477   93480      47   93474   93477      49   93474   93480      49
   93489   93492      47   93486   93489      49   93486   93492      49   93501
   93504      47   93498   93501      49   93498   93504      49   93513   93516
      47   93510   93513      49   93510   93516      49   93525   93528      47
   93522   93525      49   93522   93528      49   93537   93540      47   93534
   93537      49   93534   93540      49   93549   93552      47   93546   93549
      49   93546   93552      49   93561   93564      47   93558   93561      49
   93558   93564      49   93573   93576      47   93570   93573      49   93570
   93576      49   93585   93588      47   93582   93585      49   93582   93588
      49   93597   93600      47   93594   93597      49   93594   93600      49
   93609   93612      47   93606   93609      49   93606   93612      49   93621
   93624      47   93618   93621      49   93618   93624      49   93633   93636
      47   93630   93633      49   93630   93636      49   93645   93648      47
   93642   93645      49   93642   93648      49   93657   93660      47   93654
   93657      49   93654   93660      49   93669   93672      47   93666   93669
      49   93666   93672      49   93681   93684      47   93678   93681      49
   93678   93684      49   93693   93696      47   93690   93693      49   93690
   93696      49   93705   93708      47   93702   93705      49   93702   93708
      49   93717   93720      47   93714   93717      49   93714   93720      49
   93729   93732      47   93726   93729      49   93726   93732      49   93741
   93744      47   93738   93741      49   93738   93744      49   93753   93756
      47   93750   93753      49   93750   93756      49   93765   93768      47
   93762   93765      49   93762   93768      49   93777   93780      47   93774
   93777      49   93774   93780      49   93789   93792      47   93786   93789
      49   93786   93792      49   93801   93804      47   93798   93801      49
   93798   93804      49   93813   93816      47   93810   93813      49   93810
   93816      49   93825   93828      47   93822   93825      49   93822   93828
      49   93837   93840      47   93834   93837      49   93834   93840      49
   93849   93852      47   93846   93849      49   93846   93852      49   93861
   93864      47   93858   93861      49   93858   93864      49   93873   93876
      47   93870   93873      49   93870   93876      49   93885   93888      47
   93882   93885      49   93882   93888      49   93897   93900      47   93894
   93897      49   93894   93900      49   93909   93912      47   93906   93909
      49   93906   93912      49   93921   93924      47   93918   93921      49
   93918   93924      49   93933   93936      47   93930   93933      49   93930
   93936      49   93945   93948      47   93942   93945      49   93942   93948
      49   93957   93960      47   93954   93957      49   93954   93960      49
   93969   93972      47   93966   93969      49   93966   93972      49   93981
   93984      47   93978   93981      49   93978   93984      49   93993   93996
      47   93990   93993      49   93990   93996      49   94005   94008      47
   94002   94005      49   94002   94008      49   94017   94020      47   94014
   94017      49   94014   94020      49   94029   94032      47   94026   94029
      49   94026   94032      49   94041   94044      47   94038   94041      49
   94038   94044      49   94053   94056      47   94050   94053      49   94050
   94056      49   94065   94068      47   94062   94065      49   94062   94068
      49   94077   94080      47   94074   94077      49   94074   94080      49
   94089   94092      47   94086   94089      49   94086   94092      49   94101
   94104      47   94098   94101      49   94098   94104      49   94113   94116
      47   94110   94113      49   94110   94116      49   94125   94128      47
   94122   94125      49   94122   94128      49   94137   94140      47   94134
   94137      49   94134   94140      49   94149   94152      47   94146   94149
      49   94146   94152      49   94161   94164      47   94158   94161      49
   94158   94164      49   94173   94176      47   94170   94173      49   94170
   94176      49   94185   94188      47   94182   94185      49   94182   94188
      49   94197   94200      47   94194   94197      49   94194   94200      49
   94209   94212      47   94206   94209      49   94206   94212      49   94221
   94224      47   94218   94221      49   94218   94224      49   94233   94236
      47   94230   94233      49   94230   94236      49   94245   94248      47
   94242   94245      49   94242   94248      49   94257   94260      47   94254
   94257      49   94254   94260      49   94269   94272      47   94266   94269
      49   94266   94272      49   94281   94284      47   94278   94281      49
   94278   94284      49   94293   94296      47   94290   94293      49   94290
   94296      49   94305   94308      47   94302   94305      49   94302   94308
      49   94317   94320      47   94314   94317      49   94314   94320      49
   94329   94332      47   94326   94329      49   94326   94332      49   94341
   94344      47   94338   94341      49   94338   94344      49   94353   94356
      47   94350   94353      49   94350   94356      49   94365   94368      47
   94362   94365      49   94362   94368      49   94377   94380      47   94374
   94377      49   94374   94380      49   94389   94392      47   94386   94389
      49   94386   94392      49   94401   94404      47   94398   94401      49
   94398   94404      49   94413   94416      47   94410   94413      49   94410
   94416      49   94425   94428      47   94422   94425      49   94422   94428
      49   94437   94440      47   94434   94437      49   94434   94440      49
   94449   94452      47   94446   94449      49   94446   94452      49   94461
   94464      47   94458   94461      49   94458   94464      49   94473   94476
      47   94470   94473      49   94470   94476      49   94485   94488      47
   94482   94485      49   94482   94488      49   94497   94500      47   94494
   94497      49   94494   94500      49   94509   94512      47   94506   94509
      49   94506   94512      49   94521   94524      47   94518   94521      49
   94518   94524      49   94533   94536      47   94530   94533      49   94530
   94536      49   94545   94548      47   94542   94545      49   94542   94548
      49   94557   94560      47   94554   94557      49   94554   94560      49
   94569   94572      47   94566   94569      49   94566   94572      49   94581
   94584      47   94578   94581      49   94578   94584      49   94593   94596
      47   94590   94593      49   94590   94596      49   94605   94608      47
   94602   94605      49   94602   94608      49   94617   94620      47   94614
   94617      49   94614   94620      49   94629   94632      47   94626   94629
      49   94626   94632      49   94641   94644      47   94638   94641      49
   94638   94644      49   94653   94656      47   94650   94653      49   94650
   94656      49   94665   94668      47   94662   94665      49   94662   94668
      49   94677   94680      47   94674   94677      49   94674   94680      49
   94689   94692      47   94686   94689      49   94686   94692      49   94701
   94704      47   94698   94701      49   94698   94704      49   94713   94716
      47   94710   94713      49   94710   94716      49   94725   94728      47
   94722   94725      49   94722   94728      49   94737   94740      47   94734
   94737      49   94734   94740      49   94749   94752      47   94746   94749
      49   94746   94752      49   94761   94764      47   94758   94761      49
   94758   94764      49   94773   94776      47   94770   94773      49   94770
   94776      49   94785   94788      47   94782   94785      49   94782   94788
      49   94797   94800      47   94794   94797      49   94794   94800      49
   94809   94812      47   94806   94809      49   94806   94812      49   94821
   94824      47   94818   94821      49   94818   94824      49   94833   94836
      47   94830   94833      49   94830   94836      49   94845   94848      47
   94842   94845      49   94842   94848      49   94857   94860      47   94854
   94857      49   94854   94860      49   94869   94872      47   94866   94869
      49   94866   94872      49   94881   94884      47   94878   94881      49
   94878   94884      49   94893   94896      47   94890   94893      49   94890
   94896      49   94905   94908      47   94902   94905      49   94902   94908
      49   94917   94920      47   94914   94917      49   94914   94920      49
   94929   94932      47   94926   94929      49   94926   94932      49   94941
   94944      47   94938   94941      49   94938   94944      49   94953   94956
      47   94950   94953      49   94950   94956      49   94965   94968      47
   94962   94965      49   94962   94968      49   94977   94980      47   94974
   94977      49   94974   94980      49   94989   94992      47   94986   94989
      49   94986   94992      49   95001   95004      47   94998   95001      49
   94998   95004      49   95013   95016      47   95010   95013      49   95010
   95016      49   95025   95028      47   95022   95025      49   95022   95028
      49   95037   95040      47   95034   95037      49   95034   95040      49
   95049   95052      47   95046   95049      49   95046   95052      49   95061
   95064      47   95058   95061      49   95058   95064      49   95073   95076
      47   95070   95073      49   95070   95076      49   95085   95088      47
   95082   95085      49   95082   95088      49   95097   95100      47   95094
   95097      49   95094   95100      49   95109   95112      47   95106   95109
      49   95106   95112      49   95121   95124      47   95118   95121      49
   95118   95124      49   95133   95136      47   95130   95133      49   95130
   95136      49   95145   95148      47   95142   95145      49   95142   95148
      49   95157   95160      47   95154   95157      49   95154   95160      49
   95169   95172      47   95166   95169      49   95166   95172      49   95181
   95184      47   95178   95181      49   95178   95184      49   95193   95196
      47   95190   95193      49   95190   95196      49   95205   95208      47
   95202   95205      49   95202   95208      49   95217   95220      47   95214
   95217      49   95214   95220      49   95229   95232      47   95226   95229
      49   95226   95232      49   95241   95244      47   95238   95241      49
   95238   95244      49   95253   95256      47   95250   95253      49   95250
   95256      49   95265   95268      47   95262   95265      49   95262   95268
      49   95277   95280      47   95274   95277      49   95274   95280      49
   95289   95292      47   95286   95289      49   95286   95292      49   95301
   95304      47   95298   95301      49   95298   95304      49   95313   95316
      47   95310   95313      49   95310   95316      49   95325   95328      47
   95322   95325      49   95322   95328      49   95337   95340      47   95334
   95337      49   95334   95340      49   95349   95352      47   95346   95349
      49   95346   95352      49   95361   95364      47   95358   95361      49
   95358   95364      49   95373   95376      47   95370   95373      49   95370
   95376      49   95385   95388      47   95382   95385      49   95382   95388
      49   95397   95400      47   95394   95397      49   95394   95400      49
   95409   95412      47   95406   95409      49   95406   95412      49   95421
   95424      47   95418   95421      49   95418   95424      49   95433   95436
      47   95430   95433      49   95430   95436      49   95445   95448      47
   95442   95445      49   95442   95448      49   95457   95460      47   95454
   95457      49   95454   95460      49   95469   95472      47   95466   95469
      49   95466   95472      49   95481   95484      47   95478   95481      49
   95478   95484      49   95493   95496      47   95490   95493      49   95490
   95496      49   95505   95508      47   95502   95505      49   95502   95508
      49   95517   95520      47   95514   95517      49   95514   95520      49
   95529   95532      47   95526   95529      49   95526   95532      49   95541
   95544      47   95538   95541      49   95538   95544      49   95553   95556
      47   95550   95553      49   95550   95556      49   95565   95568      47
   95562   95565      49   95562   95568      49   95577   95580      47   95574
   95577      49   95574   95580      49   95589   95592      47   95586   95589
      49   95586   95592      49   95601   95604      47   95598   95601      49
   95598   95604      49   95613   95616      47   95610   95613      49   95610
   95616      49   95625   95628      47   95622   95625      49   95622   95628
      49   95637   95640      47   95634   95637      49   95634   95640      49
   95649   95652      47   95646   95649      49   95646   95652      49   95661
   95664      47   95658   95661      49   95658   95664      49   95673   95676
      47   95670   95673      49   95670   95676      49   95685   95688      47
   95682   95685      49   95682   95688      49   95697   95700      47   95694
   95697      49   95694   95700      49   95709   95712      47   95706   95709
      49   95706   95712      49   95721   95724      47   95718   95721      49
   95718   95724      49   95733   95736      47   95730   95733      49   95730
   95736      49   95745   95748      47   95742   95745      49   95742   95748
      49   95757   95760      47   95754   95757      49   95754   95760      49
   95769   95772      47   95766   95769      49   95766   95772      49   95781
   95784      47   95778   95781      49   95778   95784      49   95793   95796
      47   95790   95793      49   95790   95796      49   95805   95808      47
   95802   95805      49   95802   95808      49   95817   95820      47   95814
   95817      49   95814   95820      49   95829   95832      47   95826   95829
      49   95826   95832      49   95841   95844      47   95838   95841      49
   95838   95844      49   95853   95856      47   95850   95853      49   95850
   95856      49   95865   95868      47   95862   95865      49   95862   95868
      49   95877   95880      47   95874   95877      49   95874   95880      49
   95889   95892      47   95886   95889      49   95886   95892      49   95901
   95904      47   95898   95901      49   95898   95904      49   95913   95916
      47   95910   95913      49   95910   95916      49   95925   95928      47
   95922   95925      49   95922   95928      49   95937   95940      47   95934
   95937      49   95934   95940      49   95949   95952      47   95946   95949
      49   95946   95952      49   95961   95964      47   95958   95961      49
   95958   95964      49   95973   95976      47   95970   95973      49   95970
   95976      49   95985   95988      47   95982   95985      49   95982   95988
      49   95997   96000      47   95994   95997      49   95994   96000      49
   96009   96012      47   96006   96009      49   96006   96012      49   96021
   96024      47   96018   96021      49   96018   96024      49   96033   96036
      47   96030   96033      49   96030   96036      49   96045   96048      47
   96042   96045      49   96042   96048      49   96057   96060      47   96054
   96057      49   96054   96060      49   96069   96072      47   96066   96069
      49   96066   96072      49   96081   96084      47   96078   96081      49
   96078   96084      49   96093   96096      47   96090   96093      49   96090
   96096      49   96105   96108      47   96102   96105      49   96102   96108
      49   96117   96120      47   96114   96117      49   96114   96120      49
   96129   96132      47   96126   96129      49   96126   96132      49   96141
   96144      47   96138   96141      49   96138   96144      49   96153   96156
      47   96150   96153      49   96150   96156      49   96165   96168      47
   96162   96165      49   96162   96168      49   96177   96180      47   96174
   96177      49   96174   96180      49   96189   96192      47   96186   96189
      49   96186   96192      49   96201   96204      47   96198   96201      49
   96198   96204      49   96213   96216      47   96210   96213      49   96210
   96216      49   96225   96228      47   96222   96225      49   96222   96228
      49   96237   96240      47   96234   96237      49   96234   96240      49
   96249   96252      47   96246   96249      49   96246   96252      49   96261
   96264      47   96258   96261      49   96258   96264      49   96273   96276
      47   96270   96273      49   96270   96276      49   96285   96288      47
   96282   96285      49   96282   96288      49   96297   96300      47   96294
   96297      49   96294   96300      49   96309   96312      47   96306   96309
      49   96306   96312      49   96321   96324      47   96318   96321      49
   96318   96324      49   96333   96336      47   96330   96333      49   96330
   96336      49   96345   96348      47   96342   96345      49   96342   96348
      49   96357   96360      47   96354   96357      49   96354   96360      49
   96369   96372      47   96366   96369      49   96366   96372      49   96381
   96384      47   96378   96381      49   96378   96384      49   96393   96396
      47   96390   96393      49   96390   96396      49   96405   96408      47
   96402   96405      49   96402   96408      49   96417   96420      47   96414
   96417      49   96414   96420      49   96429   96432      47   96426   96429
      49   96426   96432      49   96441   96444      47   96438   96441      49
   96438   96444      49   96453   96456      47   96450   96453      49   96450
   96456      49   96465   96468      47   96462   96465      49   96462   96468
      49   96477   96480      47   96474   96477      49   96474   96480      49
   96489   96492      47   96486   96489      49   96486   96492      49   96501
   96504      47   96498   96501      49   96498   96504      49   96513   96516
      47   96510   96513      49   96510   96516      49   96525   96528      47
   96522   96525      49   96522   96528      49   96537   96540      47   96534
   96537      49   96534   96540      49   96549   96552      47   96546   96549
      49   96546   96552      49   96561   96564      47   96558   96561      49
   96558   96564      49   96573   96576      47   96570   96573      49   96570
   96576      49   96585   96588      47   96582   96585      49   96582   96588
      49   96597   96600      47   96594   96597      49   96594   96600      49
   96609   96612      47   96606   96609      49   96606   96612      49   96621
   96624      47   96618   96621      49   96618   96624      49   96633   96636
      47   96630   96633      49   96630   96636      49   96645   96648      47
   96642   96645      49   96642   96648      49   96657   96660      47   96654
   96657      49   96654   96660      49   96669   96672      47   96666   96669
      49   96666   96672      49   96681   96684      47   96678   96681      49
   96678   96684      49   96693   96696      47   96690   96693      49   96690
   96696      49   96705   96708      47   96702   96705      49   96702   96708
      49   96717   96720      47   96714   96717      49   96714   96720      49
   96729   96732      47   96726   96729      49   96726   96732      49   96741
   96744      47   96738   96741      49   96738   96744      49   96753   96756
      47   96750   96753      49   96750   96756      49   96765   96768      47
   96762   96765      49   96762   96768      49   96777   96780      47   96774
   96777      49   96774   96780      49   96789   96792      47   96786   96789
      49   96786   96792      49   96801   96804      47   96798   96801      49
   96798   96804      49   96813   96816      47   96810   96813      49   96810
   96816      49   96825   96828      47   96822   96825      49   96822   96828
      49   96837   96840      47   96834   96837      49   96834   96840      49
   96849   96852      47   96846   96849      49   96846   96852      49   96861
   96864      47   96858   96861      49   96858   96864      49   96873   96876
      47   96870   96873      49   96870   96876      49   96885   96888      47
   96882   96885      49   96882   96888      49   96897   96900      47   96894
   96897      49   96894   96900      49   96909   96912      47   96906   96909
      49   96906   96912      49   96921   96924      47   96918   96921      49
   96918   96924      49   96933   96936      47   96930   96933      49   96930
   96936      49   96945   96948      47   96942   96945      49   96942   96948
      49   96957   96960      47   96954   96957      49   96954   96960      49
   96969   96972      47   96966   96969      49   96966   96972      49   96981
   96984      47   96978   96981      49   96978   96984      49   96993   96996
      47   96990   96993      49   96990   96996      49   97005   97008      47
   97002   97005      49   97002   97008      49   97017   97020      47   97014
   97017      49   97014   97020      49   97029   97032      47   97026   97029
      49   97026   97032      49   97041   97044      47   97038   97041      49
   97038   97044      49   97053   97056      47   97050   97053      49   97050
   97056      49   97065   97068      47   97062   97065      49   97062   97068
      49   97077   97080      47   97074   97077      49   97074   97080      49
   97089   97092      47   97086   97089      49   97086   97092      49   97101
   97104      47   97098   97101      49   97098   97104      49   97113   97116
      47   97110   97113      49   97110   97116      49   97125   97128      47
   97122   97125      49   97122   97128      49   97137   97140      47   97134
   97137      49   97134   97140      49   97149   97152      47   97146   97149
      49   97146   97152      49   97161   97164      47   97158   97161      49
   97158   97164      49   97173   97176      47   97170   97173      49   97170
   97176      49   97185   97188      47   97182   97185      49   97182   97188
      49   97197   97200      47   97194   97197      49   97194   97200      49
   97209   97212      47   97206   97209      49   97206   97212      49   97221
   97224      47   97218   97221      49   97218   97224      49   97233   97236
      47   97230   97233      49   97230   97236      49   97245   97248      47
   97242   97245      49   97242   97248      49   97257   97260      47   97254
   97257      49   97254   97260      49   97269   97272      47   97266   97269
      49   97266   97272      49   97281   97284      47   97278   97281      49
   97278   97284      49   97293   97296      47   97290   97293      49   97290
   97296      49   97305   97308      47   97302   97305      49   97302   97308
      49   97317   97320      47   97314   97317      49   97314   97320      49
   97329   97332      47   97326   97329      49   97326   97332      49   97341
   97344      47   97338   97341      49   97338   97344      49   97353   97356
      47   97350   97353      49   97350   97356      49   97365   97368      47
   97362   97365      49   97362   97368      49   97377   97380      47   97374
   97377      49   97374   97380      49   97389   97392      47   97386   97389
      49   97386   97392      49   97401   97404      47   97398   97401      49
   97398   97404      49   97413   97416      47   97410   97413      49   97410
   97416      49   97425   97428      47   97422   97425      49   97422   97428
      49   97437   97440      47   97434   97437      49   97434   97440      49
   97449   97452      47   97446   97449      49   97446   97452      49   97461
   97464      47   97458   97461      49   97458   97464      49   97473   97476
      47   97470   97473      49   97470   97476      49   97485   97488      47
   97482   97485      49   97482   97488      49   97497   97500      47   97494
   97497      49   97494   97500      49   97509   97512      47   97506   97509
      49   97506   97512      49   97521   97524      47   97518   97521      49
   97518   97524      49   97533   97536      47   97530   97533      49   97530
   97536      49   97545   97548      47   97542   97545      49   97542   97548
      49   97557   97560      47   97554   97557      49   97554   97560      49
   97569   97572      47   97566   97569      49   97566   97572      49   97581
   97584      47   97578   97581      49   97578   97584      49   97593   97596
      47   97590   97593      49   97590   97596      49   97605   97608      47
   97602   97605      49   97602   97608      49   97617   97620      47   97614
   97617      49   97614   97620      49   97629   97632      47   97626   97629
      49   97626   97632      49   97641   97644      47   97638   97641      49
   97638   97644      49   97653   97656      47   97650   97653      49   97650
   97656      49   97665   97668      47   97662   97665      49   97662   97668
      49   97677   97680      47   97674   97677      49   97674   97680      49
   97689   97692      47   97686   97689      49   97686   97692      49   97701
   97704      47   97698   97701      49   97698   97704      49   97713   97716
      47   97710   97713      49   97710   97716      49   97725   97728      47
   97722   97725      49   97722   97728      49   97737   97740      47   97734
   97737      49   97734   97740      49   97749   97752      47   97746   97749
      49   97746   97752      49   97761   97764      47   97758   97761      49
   97758   97764      49   97773   97776      47   97770   97773      49   97770
   97776      49   97785   97788      47   97782   97785      49   97782   97788
      49   97797   97800      47   97794   97797      49   97794   97800      49
   97809   97812      47   97806   97809      49   97806   97812      49   97821
   97824      47   97818   97821      49   97818   97824      49   97833   97836
      47   97830   97833      49   97830   97836      49   97845   97848      47
   97842   97845      49   97842   97848      49   97857   97860      47   97854
   97857      49   97854   97860      49   97869   97872      47   97866   97869
      49   97866   97872      49   97881   97884      47   97878   97881      49
   97878   97884      49   97893   97896      47   97890   97893      49   97890
   97896      49   97905   97908      47   97902   97905      49   97902   97908
      49   97917   97920      47   97914   97917      49   97914   97920      49
   97929   97932      47   97926   97929      49   97926   97932      49   97941
   97944      47   97938   97941      49   97938   97944      49   97953   97956
      47   97950   97953      49   97950   97956      49   97965   97968      47
   97962   97965      49   97962   97968      49   97977   97980      47   97974
   97977      49   97974   97980      49   97989   97992      47   97986   97989
      49   97986   97992      49   98001   98004      47   97998   98001      49
   97998   98004      49   98013   98016      47   98010   98013      49   98010
   98016      49   98025   98028      47   98022   98025      49   98022   98028
      49   98037   98040      47   98034   98037      49   98034   98040      49
   98049   98052      47   98046   98049      49   98046   98052      49   98061
   98064      47   98058   98061      49   98058   98064      49   98073   98076
      47   98070   98073      49   98070   98076      49   98085   98088      47
   98082   98085      49   98082   98088      49   98097   98100      47   98094
   98097      49   98094   98100      49   98109   98112      47   98106   98109
      49   98106   98112      49   98121   98124      47   98118   98121      49
   98118   98124      49   98133   98136      47   98130   98133      49   98130
   98136      49   98145   98148      47   98142   98145      49   98142   98148
      49   98157   98160      47   98154   98157      49   98154   98160      49
   98169   98172      47   98166   98169      49   98166   98172      49   98181
   98184      47   98178   98181      49   98178   98184      49   98193   98196
      47   98190   98193      49   98190   98196      49   98205   98208      47
   98202   98205      49   98202   98208      49   98217   98220      47   98214
   98217      49   98214   98220      49   98229   98232      47   98226   98229
      49   98226   98232      49   98241   98244      47   98238   98241      49
   98238   98244      49   98253   98256      47   98250   98253      49   98250
   98256      49   98265   98268      47   98262   98265      49   98262   98268
      49   98277   98280      47   98274   98277      49   98274   98280      49
   98289   98292      47   98286   98289      49   98286   98292      49   98301
   98304      47   98298   98301      49   98298   98304      49   98313   98316
      47   98310   98313      49   98310   98316      49   98325   98328      47
   98322   98325      49   98322   98328      49   98337   98340      47   98334
   98337      49   98334   98340      49   98349   98352      47   98346   98349
      49   98346   98352      49   98361   98364      47   98358   98361      49
   98358   98364      49   98373   98376      47   98370   98373      49   98370
   98376      49   98385   98388      47   98382   98385      49   98382   98388
      49   98397   98400      47   98394   98397      49   98394   98400      49
   98409   98412      47   98406   98409      49   98406   98412      49   98421
   98424      47   98418   98421      49   98418   98424      49   98433   98436
      47   98430   98433      49   98430   98436      49   98445   98448      47
   98442   98445      49   98442   98448      49   98457   98460      47   98454
   98457      49   98454   98460      49   98469   98472      47   98466   98469
      49   98466   98472      49   98481   98484      47   98478   98481      49
   98478   98484      49   98493   98496      47   98490   98493      49   98490
   98496      49   98505   98508      47   98502   98505      49   98502   98508
      49   98517   98520      47   98514   98517      49   98514   98520      49
   98529   98532      47   98526   98529      49   98526   98532      49   98541
   98544      47   98538   98541      49   98538   98544      49   98553   98556
      47   98550   98553      49   98550   98556      49   98565   98568      47
   98562   98565      49   98562   98568      49   98577   98580      47   98574
   98577      49   98574   98580      49   98589   98592      47   98586   98589
      49   98586   98592      49   98601   98604      47   98598   98601      49
   98598   98604      49   98613   98616      47   98610   98613      49   98610
   98616      49   98625   98628      47   98622   98625      49   98622   98628
      49   98637   98640      47   98634   98637      49   98634   98640      49
   98649   98652      47   98646   98649      49   98646   98652      49   98661
   98664      47   98658   98661      49   98658   98664      49   98673   98676
      47   98670   98673      49   98670   98676      49   98685   98688      47
   98682   98685      49   98682   98688      49   98697   98700      47   98694
   98697      49   98694   98700      49   98709   98712      47   98706   98709
      49   98706   98712      49   98721   98724      47   98718   98721      49
   98718   98724      49   98733   98736      47   98730   98733      49   98730
   98736      49   98745   98748      47   98742   98745      49   98742   98748
      49   98757   98760      47   98754   98757      49   98754   98760      49
   98769   98772      47   98766   98769      49   98766   98772      49   98781
   98784      47   98778   98781      49   98778   98784      49   98793   98796
      47   98790   98793      49   98790   98796      49   98805   98808      47
   98802   98805      49   98802   98808      49   98817   98820      47   98814
   98817      49   98814   98820      49   98829   98832      47   98826   98829
      49   98826   98832      49   98841   98844      47   98838   98841      49
   98838   98844      49   98853   98856      47   98850   98853      49   98850
   98856      49   98865   98868      47   98862   98865      49   98862   98868
      49   98877   98880      47   98874   98877      49   98874   98880      49
   98889   98892      47   98886   98889      49   98886   98892      49   98901
   98904      47   98898   98901      49   98898   98904      49   98913   98916
      47   98910   98913      49   98910   98916      49   98925   98928      47
   98922   98925      49   98922   98928      49   98937   98940      47   98934
   98937      49   98934   98940      49   98949   98952      47   98946   98949
      49   98946   98952      49   98961   98964      47   98958   98961      49
   98958   98964      49   98973   98976      47   98970   98973      49   98970
   98976      49   98985   98988      47   98982   98985      49   98982   98988
      49   98997   99000      47   98994   98997      49   98994   99000      49
   99009   99012      47   99006   99009      49   99006   99012      49   99021
   99024      47   99018   99021      49   99018   99024      49   99033   99036
      47   99030   99033      49   99030   99036      49   99045   99048      47
   99042   99045      49   99042   99048      49   99057   99060      47   99054
   99057      49   99054   99060      49   99069   99072      47   99066   99069
      49   99066   99072      49   99081   99084      47   99078   99081      49
   99078   99084      49   99093   99096      47   99090   99093      49   99090
   99096      49   99105   99108      47   99102   99105      49   99102   99108
      49   99117   99120      47   99114   99117      49   99114   99120      49
   99129   99132      47   99126   99129      49   99126   99132      49   99141
   99144      47   99138   99141      49   99138   99144      49   99153   99156
      47   99150   99153      49   99150   99156      49   99165   99168      47
   99162   99165      49   99162   99168      49   99177   99180      47   99174
   99177      49   99174   99180      49   99189   99192      47   99186   99189
      49   99186   99192      49   99201   99204      47   99198   99201      49
   99198   99204      49   99213   99216      47   99210   99213      49   99210
   99216      49   99225   99228      47   99222   99225      49   99222   99228
      49   99237   99240      47   99234   99237      49   99234   99240      49
   99249   99252      47   99246   99249      49   99246   99252      49   99261
   99264      47   99258   99261      49   99258   99264      49   99273   99276
      47   99270   99273      49   99270   99276      49   99285   99288      47
   99282   99285      49   99282   99288      49   99297   99300      47   99294
   99297      49   99294   99300      49   99309   99312      47   99306   99309
      49   99306   99312      49   99321   99324      47   99318   99321      49
   99318   99324      49   99333   99336      47   99330   99333      49   99330
   99336      49   99345   99348      47   99342   99345      49   99342   99348
      49   99357   99360      47   99354   99357      49   99354   99360      49
   99369   99372      47   99366   99369      49   99366   99372      49   99381
   99384      47   99378   99381      49   99378   99384      49   99393   99396
      47   99390   99393      49   99390   99396      49   99405   99408      47
   99402   99405      49   99402   99408      49   99417   99420      47   99414
   99417      49   99414   99420      49   99429   99432      47   99426   99429
      49   99426   99432      49   99441   99444      47   99438   99441      49
   99438   99444      49   99453   99456      47   99450   99453      49   99450
   99456      49   99465   99468      47   99462   99465      49   99462   99468
      49   99477   99480      47   99474   99477      49   99474   99480      49
   99489   99492      47   99486   99489      49   99486   99492      49   99501
   99504      47   99498   99501      49   99498   99504      49   99513   99516
      47   99510   99513      49   99510   99516      49   99525   99528      47
   99522   99525      49   99522   99528      49   99537   99540      47   99534
   99537      49   99534   99540      49   99549   99552      47   99546   99549
      49   99546   99552      49   99561   99564      47   99558   99561      49
   99558   99564      49   99573   99576      47   99570   99573      49   99570
   99576      49   99585   99588      47   99582   99585      49   99582   99588
      49   99597   99600      47   99594   99597      49   99594   99600      49
   99609   99612      47   99606   99609      49   99606   99612      49   99621
   99624      47   99618   99621      49   99618   99624      49   99633   99636
      47   99630   99633      49   99630   99636      49   99645   99648      47
   99642   99645      49   99642   99648      49   99657   99660      47   99654
   99657      49   99654   99660      49   99669   99672      47   99666   99669
      49   99666   99672      49   99681   99684      47   99678   99681      49
   99678   99684      49   99693   99696      47   99690   99693      49   99690
   99696      49   99705   99708      47   99702   99705      49   99702   99708
      49   99717   99720      47   99714   99717      49   99714   99720      49
   99729   99732      47   99726   99729      49   99726   99732      49   99741
   99744      47   99738   99741      49   99738   99744      49   99753   99756
      47   99750   99753      49   99750   99756      49   99765   99768      47
   99762   99765      49   99762   99768      49   99777   99780      47   99774
   99777      49   99774   99780      49   99789   99792      47   99786   99789
      49   99786   99792      49   99801   99804      47   99798   99801      49
   99798   99804      49   99813   99816      47   99810   99813      49   99810
   99816      49   99825   99828      47   99822   99825      49   99822   99828
      49   99837   99840      47   99834   99837      49   99834   99840      49
   99849   99852      47   99846   99849      49   99846   99852      49   99861
   99864      47   99858   99861      49   99858   99864      49   99873   99876
      47   99870   99873      49   99870   99876      49   99885   99888      47
   99882   99885      49   99882   99888      49   99897   99900      47   99894
   99897      49   99894   99900      49   99909   99912      47   99906   99909
      49   99906   99912      49   99921   99924      47   99918   99921      49
   99918   99924      49   99933   99936      47   99930   99933      49   99930
   99936      49   99945   99948      47   99942   99945      49   99942   99948
      49   99957   99960      47   99954   99957      49   99954   99960      49
   99969   99972      47   99966   99969      49   99966   99972      49   99981
   99984      47   99978   99981      49   99978   99984      49   99993   99996
      47   99990   99993      49   99990   99996      49  100005  100008      47
  100002  100005      49  100002  100008      49  100017  100020      47  100014
  100017      49  100014  100020      49  100029  100032      47  100026  100029
      49  100026  100032      49  100041  100044      47  100038  100041      49
  100038  100044      49  100053  100056      47  100050  100053      49  100050
  100056      49  100065  100068      47  100062  100065      49  100062  100068
      49  100077  100080      47  100074  100077      49  100074  100080      49
  100089  100092      47  100086  100089      49  100086  100092      49  100101
  100104      47  100098  100101      49  100098  100104      49  100113  100116
      47  100110  100113      49  100110  100116      49  100125  100128      47
  100122  100125      49  100122  100128      49  100137  100140      47  100134
  100137      49  100134  100140      49  100149  100152      47  100146  100149
      49  100146  100152      49  100161  100164      47  100158  100161      49
  100158  100164      49  100173  100176      47  100170  100173      49  100170
  100176      49  100185  100188      47  100182  100185      49  100182  100188
      49  100197  100200      47  100194  100197      49  100194  100200      49
  100209  100212      47  100206  100209      49  100206  100212      49  100221
  100224      47  100218  100221      49  100218  100224      49  100233  100236
      47  100230  100233      49  100230  100236      49  100245  100248      47
  100242  100245      49  100242  100248      49  100257  100260      47  100254
  100257      49  100254  100260      49  100269  100272      47  100266  100269
      49  100266  100272      49  100281  100284      47  100278  100281      49
  100278  100284      49  100293  100296      47  100290  100293      49  100290
  100296      49  100305  100308      47  100302  100305      49  100302  100308
      49  100317  100320      47  100314  100317      49  100314  100320      49
  100329  100332      47  100326  100329      49  100326  100332      49  100341
  100344      47  100338  100341      49  100338  100344      49  100353  100356
      47  100350  100353      49  100350  100356      49  100365  100368      47
  100362  100365      49  100362  100368      49  100377  100380      47  100374
  100377      49  100374  100380      49  100389  100392      47  100386  100389
      49  100386  100392      49  100401  100404      47  100398  100401      49
  100398  100404      49  100413  100416      47  100410  100413      49  100410
  100416      49  100425  100428      47  100422  100425      49  100422  100428
      49  100437  100440      47  100434  100437      49  100434  100440      49
  100449  100452      47  100446  100449      49  100446  100452      49  100461
  100464      47  100458  100461      49  100458  100464      49  100473  100476
      47  100470  100473      49  100470  100476      49  100485  100488      47
  100482  100485      49  100482  100488      49  100497  100500      47  100494
  100497      49  100494  100500      49  100509  100512      47  100506  100509
      49  100506  100512      49  100521  100524      47  100518  100521      49
  100518  100524      49  100533  100536      47  100530  100533      49  100530
  100536      49  100545  100548      47  100542  100545      49  100542  100548
      49  100557  100560      47  100554  100557      49  100554  100560      49
  100569  100572      47  100566  100569      49  100566  100572      49  100581
  100584      47  100578  100581      49  100578  100584      49  100593  100596
      47  100590  100593      49  100590  100596      49  100605  100608      47
  100602  100605      49  100602  100608      49  100617  100620      47  100614
  100617      49  100614  100620      49  100629  100632      47  100626  100629
      49  100626  100632      49  100641  100644      47  100638  100641      49
  100638  100644      49  100653  100656      47  100650  100653      49  100650
  100656      49  100665  100668      47  100662  100665      49  100662  100668
      49  100677  100680      47  100674  100677      49  100674  100680      49
  100689  100692      47  100686  100689      49  100686  100692      49  100701
  100704      47  100698  100701      49  100698  100704      49  100713  100716
      47  100710  100713      49  100710  100716      49  100725  100728      47
  100722  100725      49  100722  100728      49  100737  100740      47  100734
  100737      49  100734  100740      49  100749  100752      47  100746  100749
      49  100746  100752      49  100761  100764      47  100758  100761      49
  100758  100764      49  100773  100776      47  100770  100773      49  100770
  100776      49  100785  100788      47  100782  100785      49  100782  100788
      49  100797  100800      47  100794  100797      49  100794  100800      49
  100809  100812      47  100806  100809      49  100806  100812      49  100821
  100824      47  100818  100821      49  100818  100824      49  100833  100836
      47  100830  100833      49  100830  100836      49  100845  100848      47
  100842  100845      49  100842  100848      49  100857  100860      47  100854
  100857      49  100854  100860      49  100869  100872      47  100866  100869
      49  100866  100872      49  100881  100884      47  100878  100881      49
  100878  100884      49  100893  100896      47  100890  100893      49  100890
  100896      49  100905  100908      47  100902  100905      49  100902  100908
      49  100917  100920      47  100914  100917      49  100914  100920      49
  100929  100932      47  100926  100929      49  100926  100932      49  100941
  100944      47  100938  100941      49  100938  100944      49  100953  100956
      47  100950  100953      49  100950  100956      49  100965  100968      47
  100962  100965      49  100962  100968      49  100977  100980      47  100974
  100977      49  100974  100980      49  100989  100992      47  100986  100989
      49  100986  100992      49  101001  101004      47  100998  101001      49
  100998  101004      49  101013  101016      47  101010  101013      49  101010
  101016      49  101025  101028      47  101022  101025      49  101022  101028
      49  101037  101040      47  101034  101037      49  101034  101040      49
  101049  101052      47  101046  101049      49  101046  101052      49  101061
  101064      47  101058  101061      49  101058  101064      49  101073  101076
      47  101070  101073      49  101070  101076      49  101085  101088      47
  101082  101085      49  101082  101088      49  101097  101100      47  101094
  101097      49  101094  101100      49  101109  101112      47  101106  101109
      49  101106  101112      49  101121  101124      47  101118  101121      49
  101118  101124      49  101133  101136      47  101130  101133      49  101130
  101136      49  101145  101148      47  101142  101145      49  101142  101148
      49  101157  101160      47  101154  101157      49  101154  101160      49
  101169  101172      47  101166  101169      49  101166  101172      49  101181
  101184      47  101178  101181      49  101178  101184      49  101193  101196
      47  101190  101193      49  101190  101196      49  101205  101208      47
  101202  101205      49  101202  101208      49  101217  101220      47  101214
  101217      49  101214  101220      49  101229  101232      47  101226  101229
      49  101226  101232      49  101241  101244      47  101238  101241      49
  101238  101244      49  101253  101256      47  101250  101253      49  101250
  101256      49  101265  101268      47  101262  101265      49  101262  101268
      49  101277  101280      47  101274  101277      49  101274  101280      49
  101289  101292      47  101286  101289      49  101286  101292      49  101301
  101304      47  101298  101301      49  101298  101304      49  101313  101316
      47  101310  101313      49  101310  101316      49  101325  101328      47
  101322  101325      49  101322  101328      49  101337  101340      47  101334
  101337      49  101334  101340      49  101349  101352      47  101346  101349
      49  101346  101352      49  101361  101364      47  101358  101361      49
  101358  101364      49  101373  101376      47  101370  101373      49  101370
  101376      49  101385  101388      47  101382  101385      49  101382  101388
      49  101397  101400      47  101394  101397      49  101394  101400      49
  101409  101412      47  101406  101409      49  101406  101412      49  101421
  101424      47  101418  101421      49  101418  101424      49  101433  101436
      47  101430  101433      49  101430  101436      49  101445  101448      47
  101442  101445      49  101442  101448      49  101457  101460      47  101454
  101457      49  101454  101460      49  101469  101472      47  101466  101469
      49  101466  101472      49  101481  101484      47  101478  101481      49
  101478  101484      49  101493  101496      47  101490  101493      49  101490
  101496      49  101505  101508      47  101502  101505      49  101502  101508
      49  101517  101520      47  101514  101517      49  101514  101520      49
  101529  101532      47  101526  101529      49  101526  101532      49  101541
  101544      47  101538  101541      49  101538  101544      49  101553  101556
      47  101550  101553      49  101550  101556      49  101565  101568      47
  101562  101565      49  101562  101568      49  101577  101580      47  101574
  101577      49  101574  101580      49  101589  101592      47  101586  101589
      49  101586  101592      49  101601  101604      47  101598  101601      49
  101598  101604      49  101613  101616      47  101610  101613      49  101610
  101616      49  101625  101628      47  101622  101625      49  101622  101628
      49  101637  101640      47  101634  101637      49  101634  101640      49
  101649  101652      47  101646  101649      49  101646  101652      49  101661
  101664      47  101658  101661      49  101658  101664      49  101673  101676
      47  101670  101673      49  101670  101676      49  101685  101688      47
  101682  101685      49  101682  101688      49  101697  101700      47  101694
  101697      49  101694  101700      49  101709  101712      47  101706  101709
      49  101706  101712      49  101721  101724      47  101718  101721      49
  101718  101724      49  101733  101736      47  101730  101733      49  101730
  101736      49  101745  101748      47  101742  101745      49  101742  101748
      49  101757  101760      47  101754  101757      49  101754  101760      49
  101769  101772      47  101766  101769      49  101766  101772      49  101781
  101784      47  101778  101781      49  101778  101784      49  101793  101796
      47  101790  101793      49  101790  101796      49  101805  101808      47
  101802  101805      49  101802  101808      49  101817  101820      47  101814
  101817      49  101814  101820      49  101829  101832      47  101826  101829
      49  101826  101832      49  101841  101844      47  101838  101841      49
  101838  101844      49  101853  101856      47  101850  101853      49  101850
  101856      49  101865  101868      47  101862  101865      49  101862  101868
      49  101877  101880      47  101874  101877      49  101874  101880      49
  101889  101892      47  101886  101889      49  101886  101892      49  101901
  101904      47  101898  101901      49  101898  101904      49  101913  101916
      47  101910  101913      49  101910  101916      49  101925  101928      47
  101922  101925      49  101922  101928      49  101937  101940      47  101934
  101937      49  101934  101940      49  101949  101952      47  101946  101949
      49  101946  101952      49  101961  101964      47  101958  101961      49
  101958  101964      49  101973  101976      47  101970  101973      49  101970
  101976      49  101985  101988      47  101982  101985      49  101982  101988
      49  101997  102000      47  101994  101997      49  101994  102000      49
  102009  102012      47  102006  102009      49  102006  102012      49  102021
  102024      47  102018  102021      49  102018  102024      49  102033  102036
      47  102030  102033      49  102030  102036      49  102045  102048      47
  102042  102045      49  102042  102048      49  102057  102060      47  102054
  102057      49  102054  102060      49  102069  102072      47  102066  102069
      49  102066  102072      49  102081  102084      47  102078  102081      49
  102078  102084      49  102093  102096      47  102090  102093      49  102090
  102096      49  102105  102108      47  102102  102105      49  102102  102108
      49  102117  102120      47  102114  102117      49  102114  102120      49
  102129  102132      47  102126  102129      49  102126  102132      49  102141
  102144      47  102138  102141      49  102138  102144      49  102153  102156
      47  102150  102153      49  102150  102156      49  102165  102168      47
  102162  102165      49  102162  102168      49  102177  102180      47  102174
  102177      49  102174  102180      49  102189  102192      47  102186  102189
      49  102186  102192      49  102201  102204      47  102198  102201      49
  102198  102204      49  102213  102216      47  102210  102213      49  102210
  102216      49  102225  102228      47  102222  102225      49  102222  102228
      49  102237  102240      47  102234  102237      49  102234  102240      49
  102249  102252      47  102246  102249      49  102246  102252      49  102261
  102264      47  102258  102261      49  102258  102264      49  102273  102276
      47  102270  102273      49  102270  102276      49  102285  102288      47
  102282  102285      49  102282  102288      49  102297  102300      47  102294
  102297      49  102294  102300      49  102309  102312      47  102306  102309
      49  102306  102312      49  102321  102324      47  102318  102321      49
  102318  102324      49  102333  102336      47  102330  102333      49  102330
  102336      49  102345  102348      47  102342  102345      49  102342  102348
      49  102357  102360      47  102354  102357      49  102354  102360      49
  102369  102372      47  102366  102369      49  102366  102372      49  102381
  102384      47  102378  102381      49  102378  102384      49  102393  102396
      47  102390  102393      49  102390  102396      49  102405  102408      47
  102402  102405      49  102402  102408      49  102417  102420      47  102414
  102417      49  102414  102420      49  102429  102432      47  102426  102429
      49  102426  102432      49  102441  102444      47  102438  102441      49
  102438  102444      49  102453  102456      47  102450  102453      49  102450
  102456      49  102465  102468      47  102462  102465      49  102462  102468
      49  102477  102480      47  102474  102477      49  102474  102480      49
  102489  102492      47  102486  102489      49  102486  102492      49  102501
  102504      47  102498  102501      49  102498  102504      49  102513  102516
      47  102510  102513      49  102510  102516      49  102525  102528      47
  102522  102525      49  102522  102528      49  102537  102540      47  102534
  102537      49  102534  102540      49  102549  102552      47  102546  102549
      49  102546  102552      49  102561  102564      47  102558  102561      49
  102558  102564      49  102573  102576      47  102570  102573      49  102570
  102576      49  102585  102588      47  102582  102585      49  102582  102588
      49  102597  102600      47  102594  102597      49  102594  102600      49
  102609  102612      47  102606  102609      49  102606  102612      49  102621
  102624      47  102618  102621      49  102618  102624      49  102633  102636
      47  102630  102633      49  102630  102636      49  102645  102648      47
  102642  102645      49  102642  102648      49  102657  102660      47  102654
  102657      49  102654  102660      49  102669  102672      47  102666  102669
      49  102666  102672      49  102681  102684      47  102678  102681      49
  102678  102684      49  102693  102696      47  102690  102693      49  102690
  102696      49  102705  102708      47  102702  102705      49  102702  102708
      49  102717  102720      47  102714  102717      49  102714  102720      49
  102729  102732      47  102726  102729      49  102726  102732      49  102741
  102744      47  102738  102741      49  102738  102744      49  102753  102756
      47  102750  102753      49  102750  102756      49  102765  102768      47
  102762  102765      49  102762  102768      49  102777  102780      47  102774
  102777      49  102774  102780      49  102789  102792      47  102786  102789
      49  102786  102792      49  102801  102804      47  102798  102801      49
  102798  102804      49  102813  102816      47  102810  102813      49  102810
  102816      49  102825  102828      47  102822  102825      49  102822  102828
      49  102837  102840      47  102834  102837      49  102834  102840      49
  102849  102852      47  102846  102849      49  102846  102852      49  102861
  102864      47  102858  102861      49  102858  102864      49  102873  102876
      47  102870  102873      49  102870  102876      49  102885  102888      47
  102882  102885      49  102882  102888      49  102897  102900      47  102894
  102897      49  102894  102900      49  102909  102912      47  102906  102909
      49  102906  102912      49  102921  102924      47  102918  102921      49
  102918  102924      49  102933  102936      47  102930  102933      49  102930
  102936      49  102945  102948      47  102942  102945      49  102942  102948
      49  102957  102960      47  102954  102957      49  102954  102960      49
  102969  102972      47  102966  102969      49  102966  102972      49  102981
  102984      47  102978  102981      49  102978  102984      49  102993  102996
      47  102990  102993      49  102990  102996      49  103005  103008      47
  103002  103005      49  103002  103008      49  103017  103020      47  103014
  103017      49  103014  103020      49  103029  103032      47  103026  103029
      49  103026  103032      49  103041  103044      47  103038  103041      49
  103038  103044      49  103053  103056      47  103050  103053      49  103050
  103056      49  103065  103068      47  103062  103065      49  103062  103068
      49  103077  103080      47  103074  103077      49  103074  103080      49
  103089  103092      47  103086  103089      49  103086  103092      49  103101
  103104      47  103098  103101      49  103098  103104      49  103113  103116
      47  103110  103113      49  103110  103116      49  103125  103128      47
  103122  103125      49  103122  103128      49  103137  103140      47  103134
  103137      49  103134  103140      49  103149  103152      47  103146  103149
      49  103146  103152      49  103161  103164      47  103158  103161      49
  103158  103164      49  103173  103176      47  103170  103173      49  103170
  103176      49  103185  103188      47  103182  103185      49  103182  103188
      49  103197  103200      47  103194  103197      49  103194  103200      49
  103209  103212      47  103206  103209      49  103206  103212      49  103221
  103224      47  103218  103221      49  103218  103224      49  103233  103236
      47  103230  103233      49  103230  103236      49  103245  103248      47
  103242  103245      49  103242  103248      49  103257  103260      47  103254
  103257      49  103254  103260      49  103269  103272      47  103266  103269
      49  103266  103272      49  103281  103284      47  103278  103281      49
  103278  103284      49  103293  103296      47  103290  103293      49  103290
  103296      49  103305  103308      47  103302  103305      49  103302  103308
      49  103317  103320      47  103314  103317      49  103314  103320      49
  103329  103332      47  103326  103329      49  103326  103332      49  103341
  103344      47  103338  103341      49  103338  103344      49  103353  103356
      47  103350  103353      49  103350  103356      49  103365  103368      47
  103362  103365      49  103362  103368      49  103377  103380      47  103374
  103377      49  103374  103380      49  103389  103392      47  103386  103389
      49  103386  103392      49  103401  103404      47  103398  103401      49
  103398  103404      49  103413  103416      47  103410  103413      49  103410
  103416      49  103425  103428      47  103422  103425      49  103422  103428
      49  103437  103440      47  103434  103437      49  103434  103440      49
  103449  103452      47  103446  103449      49  103446  103452      49  103461
  103464      47  103458  103461      49  103458  103464      49  103473  103476
      47  103470  103473      49  103470  103476      49  103485  103488      47
  103482  103485      49  103482  103488      49  103497  103500      47  103494
  103497      49  103494  103500      49  103509  103512      47  103506  103509
      49  103506  103512      49  103521  103524      47  103518  103521      49
  103518  103524      49  103533  103536      47  103530  103533      49  103530
  103536      49  103545  103548      47  103542  103545      49  103542  103548
      49  103557  103560      47  103554  103557      49  103554  103560      49
  103569  103572      47  103566  103569      49  103566  103572      49  103581
  103584      47  103578  103581      49  103578  103584      49  103593  103596
      47  103590  103593      49  103590  103596      49  103605  103608      47
  103602  103605      49  103602  103608      49  103617  103620      47  103614
  103617      49  103614  103620      49  103629  103632      47  103626  103629
      49  103626  103632      49  103641  103644      47  103638  103641      49
  103638  103644      49  103653  103656      47  103650  103653      49  103650
  103656      49  103665  103668      47  103662  103665      49  103662  103668
      49  103677  103680      47  103674  103677      49  103674  103680      49
  103689  103692      47  103686  103689      49  103686  103692      49  103701
  103704      47  103698  103701      49  103698  103704      49  103713  103716
      47  103710  103713      49  103710  103716      49  103725  103728      47
  103722  103725      49  103722  103728      49  103737  103740      47  103734
  103737      49  103734  103740      49  103749  103752      47  103746  103749
      49  103746  103752      49  103761  103764      47  103758  103761      49
  103758  103764      49  103773  103776      47  103770  103773      49  103770
  103776      49  103785  103788      47  103782  103785      49  103782  103788
      49  103797  103800      47  103794  103797      49  103794  103800      49
  103809  103812      47  103806  103809      49  103806  103812      49  103821
  103824      47  103818  103821      49  103818  103824      49  103833  103836
      47  103830  103833      49  103830  103836      49  103845  103848      47
  103842  103845      49  103842  103848      49  103857  103860      47  103854
  103857      49  103854  103860      49  103869  103872      47  103866  103869
      49  103866  103872      49  103881  103884      47  103878  103881      49
  103878  103884      49  103893  103896      47  103890  103893      49  103890
  103896      49  103905  103908      47  103902  103905      49  103902  103908
      49  103917  103920      47  103914  103917      49  103914  103920      49
  103929  103932      47  103926  103929      49  103926  103932      49  103941
  103944      47  103938  103941      49  103938  103944      49  103953  103956
      47  103950  103953      49  103950  103956      49  103965  103968      47
  103962  103965      49  103962  103968      49  103977  103980      47  103974
  103977      49  103974  103980      49  103989  103992      47  103986  103989
      49  103986  103992      49  104001  104004      47  103998  104001      49
  103998  104004      49  104013  104016      47  104010  104013      49  104010
  104016      49  104025  104028      47  104022  104025      49  104022  104028
      49  104037  104040      47  104034  104037      49  104034  104040      49
  104049  104052      47  104046  104049      49  104046  104052      49  104061
  104064      47  104058  104061      49  104058  104064      49  104073  104076
      47  104070  104073      49  104070  104076      49  104085  104088      47
  104082  104085      49  104082  104088      49  104097  104100      47  104094
  104097      49  104094  104100      49  104109  104112      47  104106  104109
      49  104106  104112      49  104121  104124      47  104118  104121      49
  104118  104124      49  104133  104136      47  104130  104133      49  104130
  104136      49  104145  104148      47  104142  104145      49  104142  104148
      49  104157  104160      47  104154  104157      49  104154  104160      49
  104169  104172      47  104166  104169      49  104166  104172      49  104181
  104184      47  104178  104181      49  104178  104184      49  104193  104196
      47  104190  104193      49  104190  104196      49  104205  104208      47
  104202  104205      49  104202  104208      49  104217  104220      47  104214
  104217      49  104214  104220      49  104229  104232      47  104226  104229
      49  104226  104232      49  104241  104244      47  104238  104241      49
  104238  104244      49  104253  104256      47  104250  104253      49  104250
  104256      49  104265  104268      47  104262  104265      49  104262  104268
      49  104277  104280      47  104274  104277      49  104274  104280      49
  104289  104292      47  104286  104289      49  104286  104292      49  104301
  104304      47  104298  104301      49  104298  104304      49  104313  104316
      47  104310  104313      49  104310  104316      49  104325  104328      47
  104322  104325      49  104322  104328      49  104337  104340      47  104334
  104337      49  104334  104340      49  104349  104352      47  104346  104349
      49  104346  104352      49  104361  104364      47  104358  104361      49
  104358  104364      49  104373  104376      47  104370  104373      49  104370
  104376      49  104385  104388      47  104382  104385      49  104382  104388
      49  104397  104400      47  104394  104397      49  104394  104400      49
  104409  104412      47  104406  104409      49  104406  104412      49  104421
  104424      47  104418  104421      49  104418  104424      49  104433  104436
      47  104430  104433      49  104430  104436      49  104445  104448      47
  104442  104445      49  104442  104448      49  104457  104460      47  104454
  104457      49  104454  104460      49  104469  104472      47  104466  104469
      49  104466  104472      49  104481  104484      47  104478  104481      49
  104478  104484      49  104493  104496      47  104490  104493      49  104490
  104496      49  104505  104508      47  104502  104505      49  104502  104508
      49  104517  104520      47  104514  104517      49  104514  104520      49
  104529  104532      47  104526  104529      49  104526  104532      49  104541
  104544      47  104538  104541      49  104538  104544      49  104553  104556
      47  104550  104553      49  104550  104556      49  104565  104568      47
  104562  104565      49  104562  104568      49  104577  104580      47  104574
  104577      49  104574  104580      49  104589  104592      47  104586  104589
      49  104586  104592      49  104601  104604      47  104598  104601      49
  104598  104604      49  104613  104616      47  104610  104613      49  104610
  104616      49  104625  104628      47  104622  104625      49  104622  104628
      49  104637  104640      47  104634  104637      49  104634  104640      49
  104649  104652      47  104646  104649      49  104646  104652      49  104661
  104664      47  104658  104661      49  104658  104664      49  104673  104676
      47  104670  104673      49  104670  104676      49  104685  104688      47
  104682  104685      49  104682  104688      49  104697  104700      47  104694
  104697      49  104694  104700      49  104709  104712      47  104706  104709
      49  104706  104712      49  104721  104724      47  104718  104721      49
  104718  104724      49  104733  104736      47  104730  104733      49  104730
  104736      49  104745  104748      47  104742  104745      49  104742  104748
      49  104757  104760      47  104754  104757      49  104754  104760      49
  104769  104772      47  104766  104769      49  104766  104772      49  104781
  104784      47  104778  104781      49  104778  104784      49  104793  104796
      47  104790  104793      49  104790  104796      49  104805  104808      47
  104802  104805      49  104802  104808      49  104817  104820      47  104814
  104817      49  104814  104820      49  104829  104832      47  104826  104829
      49  104826  104832      49  104841  104844      47  104838  104841      49
  104838  104844      49  104853  104856      47  104850  104853      49  104850
  104856      49  104865  104868      47  104862  104865      49  104862  104868
      49  104877  104880      47  104874  104877      49  104874  104880      49
  104889  104892      47  104886  104889      49  104886  104892      49  104901
  104904      47  104898  104901      49  104898  104904      49  104913  104916
      47  104910  104913      49  104910  104916      49  104925  104928      47
  104922  104925      49  104922  104928      49  104937  104940      47  104934
  104937      49  104934  104940      49  104949  104952      47  104946  104949
      49  104946  104952      49  104961  104964      47  104958  104961      49
  104958  104964      49  104973  104976      47  104970  104973      49  104970
  104976      49  104985  104988      47  104982  104985      49  104982  104988
      49  104997  105000      47  104994  104997      49  104994  105000      49
  105009  105012      47  105006  105009      49  105006  105012      49  105021
  105024      47  105018  105021      49  105018  105024      49  105033  105036
      47  105030  105033      49  105030  105036      49  105045  105048      47
  105042  105045      49  105042  105048      49  105057  105060      47  105054
  105057      49  105054  105060      49  105069  105072      47  105066  105069
      49  105066  105072      49  105081  105084      47  105078  105081      49
  105078  105084      49  105093  105096      47  105090  105093      49  105090
  105096      49  105105  105108      47  105102  105105      49  105102  105108
      49  105117  105120      47  105114  105117      49  105114  105120      49
  105129  105132      47  105126  105129      49  105126  105132      49  105141
  105144      47  105138  105141      49  105138  105144      49  105153  105156
      47  105150  105153      49  105150  105156      49  105165  105168      47
  105162  105165      49  105162  105168      49  105177  105180      47  105174
  105177      49  105174  105180      49  105189  105192      47  105186  105189
      49  105186  105192      49  105201  105204      47  105198  105201      49
  105198  105204      49  105213  105216      47  105210  105213      49  105210
  105216      49  105225  105228      47  105222  105225      49  105222  105228
      49  105237  105240      47  105234  105237      49  105234  105240      49
  105249  105252      47  105246  105249      49  105246  105252      49  105261
  105264      47  105258  105261      49  105258  105264      49  105273  105276
      47  105270  105273      49  105270  105276      49  105285  105288      47
  105282  105285      49  105282  105288      49  105297  105300      47  105294
  105297      49  105294  105300      49  105309  105312      47  105306  105309
      49  105306  105312      49  105321  105324      47  105318  105321      49
  105318  105324      49  105333  105336      47  105330  105333      49  105330
  105336      49  105345  105348      47  105342  105345      49  105342  105348
      49  105357  105360      47  105354  105357      49  105354  105360      49
  105369  105372      47  105366  105369      49  105366  105372      49  105381
  105384      47  105378  105381      49  105378  105384      49  105393  105396
      47  105390  105393      49  105390  105396      49  105405  105408      47
  105402  105405      49  105402  105408      49  105417  105420      47  105414
  105417      49  105414  105420      49  105429  105432      47  105426  105429
      49  105426  105432      49  105441  105444      47  105438  105441      49
  105438  105444      49  105453  105456      47  105450  105453      49  105450
  105456      49  105465  105468      47  105462  105465      49  105462  105468
      49  105477  105480      47  105474  105477      49  105474  105480      49
  105489  105492      47  105486  105489      49  105486  105492      49  105501
  105504      47  105498  105501      49  105498  105504      49  105513  105516
      47  105510  105513      49  105510  105516      49  105525  105528      47
  105522  105525      49  105522  105528      49  105537  105540      47  105534
  105537      49  105534  105540      49  105549  105552      47  105546  105549
      49  105546  105552      49  105561  105564      47  105558  105561      49
  105558  105564      49  105573  105576      47  105570  105573      49  105570
  105576      49  105585  105588      47  105582  105585      49  105582  105588
      49  105597  105600      47  105594  105597      49  105594  105600      49
  105609  105612      47  105606  105609      49  105606  105612      49  105621
  105624      47  105618  105621      49  105618  105624      49  105633  105636
      47  105630  105633      49  105630  105636      49  105645  105648      47
  105642  105645      49  105642  105648      49  105657  105660      47  105654
  105657      49  105654  105660      49  105669  105672      47  105666  105669
      49  105666  105672      49  105681  105684      47  105678  105681      49
  105678  105684      49  105693  105696      47  105690  105693      49  105690
  105696      49  105705  105708      47  105702  105705      49  105702  105708
      49  105717  105720      47  105714  105717      49  105714  105720      49
  105729  105732      47  105726  105729      49  105726  105732      49  105741
  105744      47  105738  105741      49  105738  105744      49  105753  105756
      47  105750  105753      49  105750  105756      49  105765  105768      47
  105762  105765      49  105762  105768      49  105777  105780      47  105774
  105777      49  105774  105780      49  105789  105792      47  105786  105789
      49  105786  105792      49  105801  105804      47  105798  105801      49
  105798  105804      49  105813  105816      47  105810  105813      49  105810
  105816      49  105825  105828      47  105822  105825      49  105822  105828
      49  105837  105840      47  105834  105837      49  105834  105840      49
  105849  105852      47  105846  105849      49  105846  105852      49  105861
  105864      47  105858  105861      49  105858  105864      49  105873  105876
      47  105870  105873      49  105870  105876      49  105885  105888      47
  105882  105885      49  105882  105888      49  105897  105900      47  105894
  105897      49  105894  105900      49  105909  105912      47  105906  105909
      49  105906  105912      49  105921  105924      47  105918  105921      49
  105918  105924      49  105933  105936      47  105930  105933      49  105930
  105936      49  105945  105948      47  105942  105945      49  105942  105948
      49  105957  105960      47  105954  105957      49  105954  105960      49
  105969  105972      47  105966  105969      49  105966  105972      49  105981
  105984      47  105978  105981      49  105978  105984      49  105993  105996
      47  105990  105993      49  105990  105996      49  106005  106008      47
  106002  106005      49  106002  106008      49  106017  106020      47  106014
  106017      49  106014  106020      49  106029  106032      47  106026  106029
      49  106026  106032      49  106041  106044      47  106038  106041      49
  106038  106044      49  106053  106056      47  106050  106053      49  106050
  106056      49  106065  106068      47  106062  106065      49  106062  106068
      49  106077  106080      47  106074  106077      49  106074  106080      49
  106089  106092      47  106086  106089      49  106086  106092      49  106101
  106104      47  106098  106101      49  106098  106104      49  106113  106116
      47  106110  106113      49  106110  106116      49  106125  106128      47
  106122  106125      49  106122  106128      49  106137  106140      47  106134
  106137      49  106134  106140      49  106149  106152      47  106146  106149
      49  106146  106152      49  106161  106164      47  106158  106161      49
  106158  106164      49  106173  106176      47  106170  106173      49  106170
  106176      49  106185  106188      47  106182  106185      49  106182  106188
      49  106197  106200      47  106194  106197      49  106194  106200      49
  106209  106212      47  106206  106209      49  106206  106212      49  106221
  106224      47  106218  106221      49  106218  106224      49  106233  106236
      47  106230  106233      49  106230  106236      49  106245  106248      47
  106242  106245      49  106242  106248      49  106257  106260      47  106254
  106257      49  106254  106260      49  106269  106272      47  106266  106269
      49  106266  106272      49  106281  106284      47  106278  106281      49
  106278  106284      49  106293  106296      47  106290  106293      49  106290
  106296      49  106305  106308      47  106302  106305      49  106302  106308
      49  106317  106320      47  106314  106317      49  106314  106320      49
  106329  106332      47  106326  106329      49  106326  106332      49  106341
  106344      47  106338  106341      49  106338  106344      49  106353  106356
      47  106350  106353      49  106350  106356      49  106365  106368      47
  106362  106365      49  106362  106368      49  106377  106380      47  106374
  106377      49  106374  106380      49  106389  106392      47  106386  106389
      49  106386  106392      49  106401  106404      47  106398  106401      49
  106398  106404      49  106413  106416      47  106410  106413      49  106410
  106416      49  106425  106428      47  106422  106425      49  106422  106428
      49  106437  106440      47  106434  106437      49  106434  106440      49
  106449  106452      47  106446  106449      49  106446  106452      49  106461
  106464      47  106458  106461      49  106458  106464      49  106473  106476
      47  106470  106473      49  106470  106476      49  106485  106488      47
  106482  106485      49  106482  106488      49  106497  106500      47  106494
  106497      49  106494  106500      49  106509  106512      47  106506  106509
      49  106506  106512      49  106521  106524      47  106518  106521      49
  106518  106524      49  106533  106536      47  106530  106533      49  106530
  106536      49  106545  106548      47  106542  106545      49  106542  106548
      49  106557  106560      47  106554  106557      49  106554  106560      49
  106569  106572      47  106566  106569      49  106566  106572      49  106581
  106584      47  106578  106581      49  106578  106584      49  106593  106596
      47  106590  106593      49  106590  106596      49  106605  106608      47
  106602  106605      49  106602  106608      49  106617  106620      47  106614
  106617      49  106614  106620      49  106629  106632      47  106626  106629
      49  106626  106632      49  106641  106644      47  106638  106641      49
  106638  106644      49  106653  106656      47  106650  106653      49  106650
  106656      49  106665  106668      47  106662  106665      49  106662  106668
      49  106677  106680      47  106674  106677      49  106674  106680      49
  106689  106692      47  106686  106689      49  106686  106692      49  106701
  106704      47  106698  106701      49  106698  106704      49  106713  106716
      47  106710  106713      49  106710  106716      49  106725  106728      47
  106722  106725      49  106722  106728      49  106737  106740      47  106734
  106737      49  106734  106740      49  106749  106752      47  106746  106749
      49  106746  106752      49  106761  106764      47  106758  106761      49
  106758  106764      49  106773  106776      47  106770  106773      49  106770
  106776      49  106785  106788      47  106782  106785      49  106782  106788
      49  106797  106800      47  106794  106797      49  106794  106800      49
  106809  106812      47  106806  106809      49  106806  106812      49  106821
  106824      47  106818  106821      49  106818  106824      49  106833  106836
      47  106830  106833      49  106830  106836      49  106845  106848      47
  106842  106845      49  106842  106848      49  106857  106860      47  106854
  106857      49  106854  106860      49  106869  106872      47  106866  106869
      49  106866  106872      49  106881  106884      47  106878  106881      49
  106878  106884      49  106893  106896      47  106890  106893      49  106890
  106896      49  106905  106908      47  106902  106905      49  106902  106908
      49  106917  106920      47  106914  106917      49  106914  106920      49
  106929  106932      47  106926  106929      49  106926  106932      49  106941
  106944      47  106938  106941      49  106938  106944      49  106953  106956
      47  106950  106953      49  106950  106956      49  106965  106968      47
  106962  106965      49  106962  106968      49  106977  106980      47  106974
  106977      49  106974  106980      49  106989  106992      47  106986  106989
      49  106986  106992      49  107001  107004      47  106998  107001      49
  106998  107004      49  107013  107016      47  107010  107013      49  107010
  107016      49  107025  107028      47  107022  107025      49  107022  107028
      49  107037  107040      47  107034  107037      49  107034  107040      49
  107049  107052      47  107046  107049      49  107046  107052      49  107061
  107064      47  107058  107061      49  107058  107064      49  107073  107076
      47  107070  107073      49  107070  107076      49  107085  107088      47
  107082  107085      49  107082  107088      49  107097  107100      47  107094
  107097      49  107094  107100      49  107109  107112      47  107106  107109
      49  107106  107112      49  107121  107124      47  107118  107121      49
  107118  107124      49  107133  107136      47  107130  107133      49  107130
  107136      49  107145  107148      47  107142  107145      49  107142  107148
      49  107157  107160      47  107154  107157      49  107154  107160      49
  107169  107172      47  107166  107169      49  107166  107172      49  107181
  107184      47  107178  107181      49  107178  107184      49  107193  107196
      47  107190  107193      49  107190  107196      49  107205  107208      47
  107202  107205      49  107202  107208      49  107217  107220      47  107214
  107217      49  107214  107220      49  107229  107232      47  107226  107229
      49  107226  107232      49  107241  107244      47  107238  107241      49
  107238  107244      49  107253  107256      47  107250  107253      49  107250
  107256      49  107265  107268      47  107262  107265      49  107262  107268
      49  107277  107280      47  107274  107277      49  107274  107280      49
  107289  107292      47  107286  107289      49  107286  107292      49  107301
  107304      47  107298  107301      49  107298  107304      49  107313  107316
      47  107310  107313      49  107310  107316      49  107325  107328      47
  107322  107325      49  107322  107328      49  107337  107340      47  107334
  107337      49  107334  107340      49  107349  107352      47  107346  107349
      49  107346  107352      49  107361  107364      47  107358  107361      49
  107358  107364      49  107373  107376      47  107370  107373      49  107370
  107376      49  107385  107388      47  107382  107385      49  107382  107388
      49  107397  107400      47  107394  107397      49  107394  107400      49
  107409  107412      47  107406  107409      49  107406  107412      49  107421
  107424      47  107418  107421      49  107418  107424      49  107433  107436
      47  107430  107433      49  107430  107436      49  107445  107448      47
  107442  107445      49  107442  107448      49  107457  107460      47  107454
  107457      49  107454  107460      49  107469  107472      47  107466  107469
      49  107466  107472      49  107481  107484      47  107478  107481      49
  107478  107484      49  107493  107496      47  107490  107493      49  107490
  107496      49  107505  107508      47  107502  107505      49  107502  107508
      49  107517  107520      47  107514  107517      49  107514  107520      49
  107529  107532      47  107526  107529      49  107526  107532      49  107541
  107544      47  107538  107541      49  107538  107544      49  107553  107556
      47  107550  107553      49  107550  107556      49  107565  107568      47
  107562  107565      49  107562  107568      49  107577  107580      47  107574
  107577      49  107574  107580      49  107589  107592      47  107586  107589
      49  107586  107592      49  107601  107604      47  107598  107601      49
  107598  107604      49  107613  107616      47  107610  107613      49  107610
  107616      49  107625  107628      47  107622  107625      49  107622  107628
      49  107637  107640      47  107634  107637      49  107634  107640      49
  107649  107652      47  107646  107649      49  107646  107652      49  107661
  107664      47  107658  107661      49  107658  107664      49  107673  107676
      47  107670  107673      49  107670  107676      49  107685  107688      47
  107682  107685      49  107682  107688      49  107697  107700      47  107694
  107697      49  107694  107700      49  107709  107712      47  107706  107709
      49  107706  107712      49  107721  107724      47  107718  107721      49
  107718  107724      49  107733  107736      47  107730  107733      49  107730
  107736      49  107745  107748      47  107742  107745      49  107742  107748
      49  107757  107760      47  107754  107757      49  107754  107760      49
  107769  107772      47  107766  107769      49  107766  107772      49  107781
  107784      47  107778  107781      49  107778  107784      49  107793  107796
      47  107790  107793      49  107790  107796      49  107805  107808      47
  107802  107805      49  107802  107808      49  107817  107820      47  107814
  107817      49  107814  107820      49  107829  107832      47  107826  107829
      49  107826  107832      49  107841  107844      47  107838  107841      49
  107838  107844      49  107853  107856      47  107850  107853      49  107850
  107856      49  107865  107868      47  107862  107865      49  107862  107868
      49  107877  107880      47  107874  107877      49  107874  107880      49
  107889  107892      47  107886  107889      49  107886  107892      49  107901
  107904      47  107898  107901      49  107898  107904      49  107913  107916
      47  107910  107913      49  107910  107916      49  107925  107928      47
  107922  107925      49  107922  107928      49  107937  107940      47  107934
  107937      49  107934  107940      49  107949  107952      47  107946  107949
      49  107946  107952      49  107961  107964      47  107958  107961      49
  107958  107964      49  107973  107976      47  107970  107973      49  107970
  107976      49  107985  107988      47  107982  107985      49  107982  107988
      49  107997  108000      47  107994  107997      49  107994  108000      49
  108009  108012      47  108006  108009      49  108006  108012      49  108021
  108024      47  108018  108021      49  108018  108024      49  108033  108036
      47  108030  108033      49  108030  108036      49  108045  108048      47
  108042  108045      49  108042  108048      49  108057  108060      47  108054
  108057      49  108054  108060      49  108069  108072      47  108066  108069
      49  108066  108072      49  108081  108084      47  108078  108081      49
  108078  108084      49  108093  108096      47  108090  108093      49  108090
  108096      49  108105  108108      47  108102  108105      49  108102  108108
      49  108117  108120      47  108114  108117      49  108114  108120      49
  108129  108132      47  108126  108129      49  108126  108132      49  108141
  108144      47  108138  108141      49  108138  108144      49  108153  108156
      47  108150  108153      49  108150  108156      49  108165  108168      47
  108162  108165      49  108162  108168      49  108177  108180      47  108174
  108177      49  108174  108180      49  108189  108192      47  108186  108189
      49  108186  108192      49  108201  108204      47  108198  108201      49
  108198  108204      49  108213  108216      47  108210  108213      49  108210
  108216      49  108225  108228      47  108222  108225      49  108222  108228
      49  108237  108240      47  108234  108237      49  108234  108240      49
  108249  108252      47  108246  108249      49  108246  108252      49  108261
  108264      47  108258  108261      49  108258  108264      49  108273  108276
      47  108270  108273      49  108270  108276      49  108285  108288      47
  108282  108285      49  108282  108288      49  108297  108300      47  108294
  108297      49  108294  108300      49  108309  108312      47  108306  108309
      49  108306  108312      49  108321  108324      47  108318  108321      49
  108318  108324      49  108333  108336      47  108330  108333      49  108330
  108336      49  108345  108348      47  108342  108345      49  108342  108348
      49  108357  108360      47  108354  108357      49  108354  108360      49
  108369  108372      47  108366  108369      49  108366  108372      49  108381
  108384      47  108378  108381      49  108378  108384      49  108393  108396
      47  108390  108393      49  108390  108396      49  108405  108408      47
  108402  108405      49  108402  108408      49  108417  108420      47  108414
  108417      49  108414  108420      49  108429  108432      47  108426  108429
      49  108426  108432      49  108441  108444      47  108438  108441      49
  108438  108444      49  108453  108456      47  108450  108453      49  108450
  108456      49  108465  108468      47  108462  108465      49  108462  108468
      49  108477  108480      47  108474  108477      49  108474  108480      49
  108489  108492      47  108486  108489      49  108486  108492      49  108501
  108504      47  108498  108501      49  108498  108504      49  108513  108516
      47  108510  108513      49  108510  108516      49  108525  108528      47
  108522  108525      49  108522  108528      49  108537  108540      47  108534
  108537      49  108534  108540      49  108549  108552      47  108546  108549
      49  108546  108552      49  108561  108564      47  108558  108561      49
  108558  108564      49  108573  108576      47  108570  108573      49  108570
  108576      49  108585  108588      47  108582  108585      49  108582  108588
      49  108597  108600      47  108594  108597      49  108594  108600      49
  108609  108612      47  108606  108609      49  108606  108612      49  108621
  108624      47  108618  108621      49  108618  108624      49  108633  108636
      47  108630  108633      49  108630  108636      49  108645  108648      47
  108642  108645      49  108642  108648      49  108657  108660      47  108654
  108657      49  108654  108660      49  108669  108672      47  108666  108669
      49  108666  108672      49  108681  108684      47  108678  108681      49
  108678  108684      49  108693  108696      47  108690  108693      49  108690
  108696      49  108705  108708      47  108702  108705      49  108702  108708
      49  108717  108720      47  108714  108717      49  108714  108720      49
  108729  108732      47  108726  108729      49  108726  108732      49  108741
  108744      47  108738  108741      49  108738  108744      49  108753  108756
      47  108750  108753      49  108750  108756      49  108765  108768      47
  108762  108765      49  108762  108768      49  108777  108780      47  108774
  108777      49  108774  108780      49  108789  108792      47  108786  108789
      49  108786  108792      49  108801  108804      47  108798  108801      49
  108798  108804      49  108813  108816      47  108810  108813      49  108810
  108816      49  108825  108828      47  108822  108825      49  108822  108828
      49  108837  108840      47  108834  108837      49  108834  108840      49
  108849  108852      47  108846  108849      49  108846  108852      49  108861
  108864      47  108858  108861      49  108858  108864      49  108873  108876
      47  108870  108873      49  108870  108876      49  108885  108888      47
  108882  108885      49  108882  108888      49  108897  108900      47  108894
  108897      49  108894  108900      49  108909  108912      47  108906  108909
      49  108906  108912      49  108921  108924      47  108918  108921      49
  108918  108924      49  108933  108936      47  108930  108933      49  108930
  108936      49  108945  108948      47  108942  108945      49  108942  108948
      49  108957  108960      47  108954  108957      49  108954  108960      49
  108969  108972      47  108966  108969      49  108966  108972      49  108981
  108984      47  108978  108981      49  108978  108984      49  108993  108996
      47  108990  108993      49  108990  108996      49  109005  109008      47
  109002  109005      49  109002  109008      49  109017  109020      47  109014
  109017      49  109014  109020      49  109029  109032      47  109026  109029
      49  109026  109032      49  109041  109044      47  109038  109041      49
  109038  109044      49  109053  109056      47  109050  109053      49  109050
  109056      49  109065  109068      47  109062  109065      49  109062  109068
      49  109077  109080      47  109074  109077      49  109074  109080      49
  109089  109092      47  109086  109089      49  109086  109092      49  109101
  109104      47  109098  109101      49  109098  109104      49  109113  109116
      47  109110  109113      49  109110  109116      49  109125  109128      47
  109122  109125      49  109122  109128      49  109137  109140      47  109134
  109137      49  109134  109140      49  109149  109152      47  109146  109149
      49  109146  109152      49  109161  109164      47  109158  109161      49
  109158  109164      49  109173  109176      47  109170  109173      49  109170
  109176      49  109185  109188      47  109182  109185      49  109182  109188
      49  109197  109200      47  109194  109197      49  109194  109200      49
  109209  109212      47  109206  109209      49  109206  109212      49  109221
  109224      47  109218  109221      49  109218  109224      49  109233  109236
      47  109230  109233      49  109230  109236      49  109245  109248      47
  109242  109245      49  109242  109248      49  109257  109260      47  109254
  109257      49  109254  109260      49  109269  109272      47  109266  109269
      49  109266  109272      49  109281  109284      47  109278  109281      49
  109278  109284      49  109293  109296      47  109290  109293      49  109290
  109296      49  109305  109308      47  109302  109305      49  109302  109308
      49  109317  109320      47  109314  109317      49  109314  109320      49
  109329  109332      47  109326  109329      49  109326  109332      49  109341
  109344      47  109338  109341      49  109338  109344      49  109353  109356
      47  109350  109353      49  109350  109356      49  109365  109368      47
  109362  109365      49  109362  109368      49  109377  109380      47  109374
  109377      49  109374  109380      49  109389  109392      47  109386  109389
      49  109386  109392      49  109401  109404      47  109398  109401      49
  109398  109404      49  109413  109416      47  109410  109413      49  109410
  109416      49  109425  109428      47  109422  109425      49  109422  109428
      49  109437  109440      47  109434  109437      49  109434  109440      49
  109449  109452      47  109446  109449      49  109446  109452      49  109461
  109464      47  109458  109461      49  109458  109464      49  109473  109476
      47  109470  109473      49  109470  109476      49  109485  109488      47
  109482  109485      49  109482  109488      49  109497  109500      47  109494
  109497      49  109494  109500      49  109509  109512      47  109506  109509
      49  109506  109512      49  109521  109524      47  109518  109521      49
  109518  109524      49  109533  109536      47  109530  109533      49  109530
  109536      49  109545  109548      47  109542  109545      49  109542  109548
      49  109557  109560      47  109554  109557      49  109554  109560      49
  109569  109572      47  109566  109569      49  109566  109572      49  109581
  109584      47  109578  109581      49  109578  109584      49  109593  109596
      47  109590  109593      49  109590  109596      49  109605  109608      47
  109602  109605      49  109602  109608      49  109617  109620      47  109614
  109617      49  109614  109620      49  109629  109632      47  109626  109629
      49  109626  109632      49  109641  109644      47  109638  109641      49
  109638  109644      49  109653  109656      47  109650  109653      49  109650
  109656      49  109665  109668      47  109662  109665      49  109662  109668
      49  109677  109680      47  109674  109677      49  109674  109680      49
  109689  109692      47  109686  109689      49  109686  109692      49  109701
  109704      47  109698  109701      49  109698  109704      49  109713  109716
      47  109710  109713      49  109710  109716      49  109725  109728      47
  109722  109725      49  109722  109728      49  109737  109740      47  109734
  109737      49  109734  109740      49  109749  109752      47  109746  109749
      49  109746  109752      49  109761  109764      47  109758  109761      49
  109758  109764      49  109773  109776      47  109770  109773      49  109770
  109776      49  109785  109788      47  109782  109785      49  109782  109788
      49  109797  109800      47  109794  109797      49  109794  109800      49
  109809  109812      47  109806  109809      49  109806  109812      49  109821
  109824      47  109818  109821      49  109818  109824      49  109833  109836
      47  109830  109833      49  109830  109836      49  109845  109848      47
  109842  109845      49  109842  109848      49  109857  109860      47  109854
  109857      49  109854  109860      49  109869  109872      47  109866  109869
      49  109866  109872      49  109881  109884      47  109878  109881      49
  109878  109884      49  109893  109896      47  109890  109893      49  109890
  109896      49  109905  109908      47  109902  109905      49  109902  109908
      49  109917  109920      47  109914  109917      49  109914  109920      49
  109929  109932      47  109926  109929      49  109926  109932      49  109941
  109944      47  109938  109941      49  109938  109944      49  109953  109956
      47  109950  109953      49  109950  109956      49  109965  109968      47
  109962  109965      49  109962  109968      49  109977  109980      47  109974
  109977      49  109974  109980      49  109989  109992      47  109986  109989
      49  109986  109992      49  110001  110004      47  109998  110001      49
  109998  110004      49  110013  110016      47  110010  110013      49  110010
  110016      49  110025  110028      47  110022  110025      49  110022  110028
      49  110037  110040      47  110034  110037      49  110034  110040      49
  110049  110052      47  110046  110049      49  110046  110052      49  110061
  110064      47  110058  110061      49  110058  110064      49  110073  110076
      47  110070  110073      49  110070  110076      49  110085  110088      47
  110082  110085      49  110082  110088      49  110097  110100      47  110094
  110097      49  110094  110100      49  110109  110112      47  110106  110109
      49  110106  110112      49  110121  110124      47  110118  110121      49
  110118  110124      49  110133  110136      47  110130  110133      49  110130
  110136      49  110145  110148      47  110142  110145      49  110142  110148
      49  110157  110160      47  110154  110157      49  110154  110160      49
  110169  110172      47  110166  110169      49  110166  110172      49  110181
  110184      47  110178  110181      49  110178  110184      49  110193  110196
      47  110190  110193      49  110190  110196      49  110205  110208      47
  110202  110205      49  110202  110208      49  110217  110220      47  110214
  110217      49  110214  110220      49  110229  110232      47  110226  110229
      49  110226  110232      49  110241  110244      47  110238  110241      49
  110238  110244      49  110253  110256      47  110250  110253      49  110250
  110256      49  110265  110268      47  110262  110265      49  110262  110268
      49  110277  110280      47  110274  110277      49  110274  110280      49
  110289  110292      47  110286  110289      49  110286  110292      49  110301
  110304      47  110298  110301      49  110298  110304      49  110313  110316
      47  110310  110313      49  110310  110316      49  110325  110328      47
  110322  110325      49  110322  110328      49  110337  110340      47  110334
  110337      49  110334  110340      49  110349  110352      47  110346  110349
      49  110346  110352      49  110361  110364      47  110358  110361      49
  110358  110364      49  110373  110376      47  110370  110373      49  110370
  110376      49  110385  110388      47  110382  110385      49  110382  110388
      49  110397  110400      47  110394  110397      49  110394  110400      49
  110409  110412      47  110406  110409      49  110406  110412      49  110421
  110424      47  110418  110421      49  110418  110424      49  110433  110436
      47  110430  110433      49  110430  110436      49  110445  110448      47
  110442  110445      49  110442  110448      49  110457  110460      47  110454
  110457      49  110454  110460      49  110469  110472      47  110466  110469
      49  110466  110472      49  110481  110484      47  110478  110481      49
  110478  110484      49  110493  110496      47  110490  110493      49  110490
  110496      49  110505  110508      47  110502  110505      49  110502  110508
      49  110517  110520      47  110514  110517      49  110514  110520      49
  110529  110532      47  110526  110529      49  110526  110532      49  110541
  110544      47  110538  110541      49  110538  110544      49  110553  110556
      47  110550  110553      49  110550  110556      49  110565  110568      47
  110562  110565      49  110562  110568      49  110577  110580      47  110574
  110577      49  110574  110580      49  110589  110592      47  110586  110589
      49  110586  110592      49  110601  110604      47  110598  110601      49
  110598  110604      49  110613  110616      47  110610  110613      49  110610
  110616      49  110625  110628      47  110622  110625      49  110622  110628
      49  110637  110640      47  110634  110637      49  110634  110640      49
  110649  110652      47  110646  110649      49  110646  110652      49  110661
  110664      47  110658  110661      49  110658  110664      49  110673  110676
      47  110670  110673      49  110670  110676      49  110685  110688      47
  110682  110685      49  110682  110688      49  110697  110700      47  110694
  110697      49  110694  110700      49  110709  110712      47  110706  110709
      49  110706  110712      49  110721  110724      47  110718  110721      49
  110718  110724      49  110733  110736      47  110730  110733      49  110730
  110736      49  110745  110748      47  110742  110745      49  110742  110748
      49  110757  110760      47  110754  110757      49  110754  110760      49
  110769  110772      47  110766  110769      49  110766  110772      49  110781
  110784      47  110778  110781      49  110778  110784      49  110793  110796
      47  110790  110793      49  110790  110796      49  110805  110808      47
  110802  110805      49  110802  110808      49  110817  110820      47  110814
  110817      49  110814  110820      49  110829  110832      47  110826  110829
      49  110826  110832      49  110841  110844      47  110838  110841      49
  110838  110844      49  110853  110856      47  110850  110853      49  110850
  110856      49  110865  110868      47  110862  110865      49  110862  110868
      49  110877  110880      47  110874  110877      49  110874  110880      49
  110889  110892      47  110886  110889      49  110886  110892      49  110901
  110904      47  110898  110901      49  110898  110904      49  110913  110916
      47  110910  110913      49  110910  110916      49  110925  110928      47
  110922  110925      49  110922  110928      49  110937  110940      47  110934
  110937      49  110934  110940      49  110949  110952      47  110946  110949
      49  110946  110952      49  110961  110964      47  110958  110961      49
  110958  110964      49  110973  110976      47  110970  110973      49  110970
  110976      49  110985  110988      47  110982  110985      49  110982  110988
      49  110997  111000      47  110994  110997      49  110994  111000      49
  111009  111012      47  111006  111009      49  111006  111012      49  111021
  111024      47  111018  111021      49  111018  111024      49  111033  111036
      47  111030  111033      49  111030  111036      49  111045  111048      47
  111042  111045      49  111042  111048      49  111057  111060      47  111054
  111057      49  111054  111060      49  111069  111072      47  111066  111069
      49  111066  111072      49  111081  111084      47  111078  111081      49
  111078  111084      49  111093  111096      47  111090  111093      49  111090
  111096      49  111105  111108      47  111102  111105      49  111102  111108
      49  111117  111120      47  111114  111117      49  111114  111120      49
  111129  111132      47  111126  111129      49  111126  111132      49  111141
  111144      47  111138  111141      49  111138  111144      49  111153  111156
      47  111150  111153      49  111150  111156      49  111165  111168      47
  111162  111165      49  111162  111168      49  111177  111180      47  111174
  111177      49  111174  111180      49  111189  111192      47  111186  111189
      49  111186  111192      49  111201  111204      47  111198  111201      49
  111198  111204      49  111213  111216      47  111210  111213      49  111210
  111216      49  111225  111228      47  111222  111225      49  111222  111228
      49  111237  111240      47  111234  111237      49  111234  111240      49
  111249  111252      47  111246  111249      49  111246  111252      49  111261
  111264      47  111258  111261      49  111258  111264      49  111273  111276
      47  111270  111273      49  111270  111276      49  111285  111288      47
  111282  111285      49  111282  111288      49  111297  111300      47  111294
  111297      49  111294  111300      49  111309  111312      47  111306  111309
      49  111306  111312      49  111321  111324      47  111318  111321      49
  111318  111324      49  111333  111336      47  111330  111333      49  111330
  111336      49  111345  111348      47  111342  111345      49  111342  111348
      49  111357  111360      47  111354  111357      49  111354  111360      49
  111369  111372      47  111366  111369      49  111366  111372      49  111381
  111384      47  111378  111381      49  111378  111384      49  111393  111396
      47  111390  111393      49  111390  111396      49  111405  111408      47
  111402  111405      49  111402  111408      49  111417  111420      47  111414
  111417      49  111414  111420      49  111429  111432      47  111426  111429
      49  111426  111432      49  111441  111444      47  111438  111441      49
  111438  111444      49  111453  111456      47  111450  111453      49  111450
  111456      49  111465  111468      47  111462  111465      49  111462  111468
      49  111477  111480      47  111474  111477      49  111474  111480      49
  111489  111492      47  111486  111489      49  111486  111492      49  111501
  111504      47  111498  111501      49  111498  111504      49  111513  111516
      47  111510  111513      49  111510  111516      49  111525  111528      47
  111522  111525      49  111522  111528      49  111537  111540      47  111534
  111537      49  111534  111540      49  111549  111552      47  111546  111549
      49  111546  111552      49  111561  111564      47  111558  111561      49
  111558  111564      49  111573  111576      47  111570  111573      49  111570
  111576      49  111585  111588      47  111582  111585      49  111582  111588
      49  111597  111600      47  111594  111597      49  111594  111600      49
  111609  111612      47  111606  111609      49  111606  111612      49  111621
  111624      47  111618  111621      49  111618  111624      49  111633  111636
      47  111630  111633      49  111630  111636      49  111645  111648      47
  111642  111645      49  111642  111648      49  111657  111660      47  111654
  111657      49  111654  111660      49  111669  111672      47  111666  111669
      49  111666  111672      49  111681  111684      47  111678  111681      49
  111678  111684      49  111693  111696      47  111690  111693      49  111690
  111696      49  111705  111708      47  111702  111705      49  111702  111708
      49  111717  111720      47  111714  111717      49  111714  111720      49
  111729  111732      47  111726  111729      49  111726  111732      49  111741
  111744      47  111738  111741      49  111738  111744      49  111753  111756
      47  111750  111753      49  111750  111756      49  111765  111768      47
  111762  111765      49  111762  111768      49  111777  111780      47  111774
  111777      49  111774  111780      49  111789  111792      47  111786  111789
      49  111786  111792      49  111801  111804      47  111798  111801      49
  111798  111804      49  111813  111816      47  111810  111813      49  111810
  111816      49  111825  111828      47  111822  111825      49  111822  111828
      49  111837  111840      47  111834  111837      49  111834  111840      49
  111849  111852      47  111846  111849      49  111846  111852      49  111861
  111864      47  111858  111861      49  111858  111864      49  111873  111876
      47  111870  111873      49  111870  111876      49  111885  111888      47
  111882  111885      49  111882  111888      49  111897  111900      47  111894
  111897      49  111894  111900      49  111909  111912      47  111906  111909
      49  111906  111912      49  111921  111924      47  111918  111921      49
  111918  111924      49  111933  111936      47  111930  111933      49  111930
  111936      49  111945  111948      47  111942  111945      49  111942  111948
      49  111957  111960      47  111954  111957      49  111954  111960      49
  111969  111972      47  111966  111969      49  111966  111972      49  111981
  111984      47  111978  111981      49  111978  111984      49  111993  111996
      47  111990  111993      49  111990  111996      49  112005  112008      47
  112002  112005      49  112002  112008      49  112017  112020      47  112014
  112017      49  112014  112020      49  112029  112032      47  112026  112029
      49  112026  112032      49  112041  112044      47  112038  112041      49
  112038  112044      49  112053  112056      47  112050  112053      49  112050
  112056      49  112065  112068      47  112062  112065      49  112062  112068
      49  112077  112080      47  112074  112077      49  112074  112080      49
  112089  112092      47  112086  112089      49  112086  112092      49  112101
  112104      47  112098  112101      49  112098  112104      49  112113  112116
      47  112110  112113      49  112110  112116      49  112125  112128      47
  112122  112125      49  112122  112128      49  112137  112140      47  112134
  112137      49  112134  112140      49  112149  112152      47  112146  112149
      49  112146  112152      49  112161  112164      47  112158  112161      49
  112158  112164      49  112173  112176      47  112170  112173      49  112170
  112176      49  112185  112188      47  112182  112185      49  112182  112188
      49  112197  112200      47  112194  112197      49  112194  112200      49
  112209  112212      47  112206  112209      49  112206  112212      49  112221
  112224      47  112218  112221      49  112218  112224      49  112233  112236
      47  112230  112233      49  112230  112236      49  112245  112248      47
  112242  112245      49  112242  112248      49  112257  112260      47  112254
  112257      49  112254  112260      49  112269  112272      47  112266  112269
      49  112266  112272      49  112281  112284      47  112278  112281      49
  112278  112284      49  112293  112296      47  112290  112293      49  112290
  112296      49  112305  112308      47  112302  112305      49  112302  112308
      49  112317  112320      47  112314  112317      49  112314  112320      49
  112329  112332      47  112326  112329      49  112326  112332      49  112341
  112344      47  112338  112341      49  112338  112344      49  112353  112356
      47  112350  112353      49  112350  112356      49  112365  112368      47
  112362  112365      49  112362  112368      49  112377  112380      47  112374
  112377      49  112374  112380      49  112389  112392      47  112386  112389
      49  112386  112392      49  112401  112404      47  112398  112401      49
  112398  112404      49  112413  112416      47  112410  112413      49  112410
  112416      49  112425  112428      47  112422  112425      49  112422  112428
      49  112437  112440      47  112434  112437      49  112434  112440      49
  112449  112452      47  112446  112449      49  112446  112452      49  112461
  112464      47  112458  112461      49  112458  112464      49  112473  112476
      47  112470  112473      49  112470  112476      49  112485  112488      47
  112482  112485      49  112482  112488      49  112497  112500      47  112494
  112497      49  112494  112500      49  112509  112512      47  112506  112509
      49  112506  112512      49  112521  112524      47  112518  112521      49
  112518  112524      49  112533  112536      47  112530  112533      49  112530
  112536      49  112545  112548      47  112542  112545      49  112542  112548
      49  112557  112560      47  112554  112557      49  112554  112560      49
  112569  112572      47  112566  112569      49  112566  112572      49  112581
  112584      47  112578  112581      49  112578  112584      49  112593  112596
      47  112590  112593      49  112590  112596      49  112605  112608      47
  112602  112605      49  112602  112608      49  112617  112620      47  112614
  112617      49  112614  112620      49  112629  112632      47  112626  112629
      49  112626  112632      49  112641  112644      47  112638  112641      49
  112638  112644      49  112653  112656      47  112650  112653      49  112650
  112656      49  112665  112668      47  112662  112665      49  112662  112668
      49  112677  112680      47  112674  112677      49  112674  112680      49
  112689  112692      47  112686  112689      49  112686  112692      49  112701
  112704      47  112698  112701      49  112698  112704      49  112713  112716
      47  112710  112713      49  112710  112716      49  112725  112728      47
  112722  112725      49  112722  112728      49  112737  112740      47  112734
  112737      49  112734  112740      49  112749  112752      47  112746  112749
      49  112746  112752      49  112761  112764      47  112758  112761      49
  112758  112764      49  112773  112776      47  112770  112773      49  112770
  112776      49  112785  112788      47  112782  112785      49  112782  112788
      49  112797  112800      47  112794  112797      49  112794  112800      49
  112809  112812      47  112806  112809      49  112806  112812      49  112821
  112824      47  112818  112821      49  112818  112824      49  112833  112836
      47  112830  112833      49  112830  112836      49  112845  112848      47
  112842  112845      49  112842  112848      49  112857  112860      47  112854
  112857      49  112854  112860      49  112869  112872      47  112866  112869
      49  112866  112872      49  112881  112884      47  112878  112881      49
  112878  112884      49  112893  112896      47  112890  112893      49  112890
  112896      49  112905  112908      47  112902  112905      49  112902  112908
      49  112917  112920      47  112914  112917      49  112914  112920      49
  112929  112932      47  112926  112929      49  112926  112932      49  112941
  112944      47  112938  112941      49  112938  112944      49  112953  112956
      47  112950  112953      49  112950  112956      49  112965  112968      47
  112962  112965      49  112962  112968      49  112977  112980      47  112974
  112977      49  112974  112980      49  112989  112992      47  112986  112989
      49  112986  112992      49  113001  113004      47  112998  113001      49
  112998  113004      49  113013  113016      47  113010  113013      49  113010
  113016      49  113025  113028      47  113022  113025      49  113022  113028
      49  113037  113040      47  113034  113037      49  113034  113040      49
  113049  113052      47  113046  113049      49  113046  113052      49  113061
  113064      47  113058  113061      49  113058  113064      49  113073  113076
      47  113070  113073      49  113070  113076      49  113085  113088      47
  113082  113085      49  113082  113088      49  113097  113100      47  113094
  113097      49  113094  113100      49  113109  113112      47  113106  113109
      49  113106  113112      49  113121  113124      47  113118  113121      49
  113118  113124      49  113133  113136      47  113130  113133      49  113130
  113136      49  113145  113148      47  113142  113145      49  113142  113148
      49  113157  113160      47  113154  113157      49  113154  113160      49
  113169  113172      47  113166  113169      49  113166  113172      49  113181
  113184      47  113178  113181      49  113178  113184      49  113193  113196
      47  113190  113193      49  113190  113196      49  113205  113208      47
  113202  113205      49  113202  113208      49  113217  113220      47  113214
  113217      49  113214  113220      49  113229  113232      47  113226  113229
      49  113226  113232      49  113241  113244      47  113238  113241      49
  113238  113244      49  113253  113256      47  113250  113253      49  113250
  113256      49  113265  113268      47  113262  113265      49  113262  113268
      49  113277  113280      47  113274  113277      49  113274  113280      49
  113289  113292      47  113286  113289      49  113286  113292      49  113301
  113304      47  113298  113301      49  113298  113304      49  113313  113316
      47  113310  113313      49  113310  113316      49  113325  113328      47
  113322  113325      49  113322  113328      49  113337  113340      47  113334
  113337      49  113334  113340      49  113349  113352      47  113346  113349
      49  113346  113352      49  113361  113364      47  113358  113361      49
  113358  113364      49  113373  113376      47  113370  113373      49  113370
  113376      49  113385  113388      47  113382  113385      49  113382  113388
      49  113397  113400      47  113394  113397      49  113394  113400      49
  113409  113412      47  113406  113409      49  113406  113412      49  113421
  113424      47  113418  113421      49  113418  113424      49  113433  113436
      47  113430  113433      49  113430  113436      49  113445  113448      47
  113442  113445      49  113442  113448      49  113457  113460      47  113454
  113457      49  113454  113460      49  113469  113472      47  113466  113469
      49  113466  113472      49  113481  113484      47  113478  113481      49
  113478  113484      49  113493  113496      47  113490  113493      49  113490
  113496      49  113505  113508      47  113502  113505      49  113502  113508
      49  113517  113520      47  113514  113517      49  113514  113520      49
  113529  113532      47  113526  113529      49  113526  113532      49  113541
  113544      47  113538  113541      49  113538  113544      49  113553  113556
      47  113550  113553      49  113550  113556      49  113565  113568      47
  113562  113565      49  113562  113568      49  113577  113580      47  113574
  113577      49  113574  113580      49  113589  113592      47  113586  113589
      49  113586  113592      49  113601  113604      47  113598  113601      49
  113598  113604      49  113613  113616      47  113610  113613      49  113610
  113616      49  113625  113628      47  113622  113625      49  113622  113628
      49  113637  113640      47  113634  113637      49  113634  113640      49
  113649  113652      47  113646  113649      49  113646  113652      49  113661
  113664      47  113658  113661      49  113658  113664      49  113673  113676
      47  113670  113673      49  113670  113676      49  113685  113688      47
  113682  113685      49  113682  113688      49  113697  113700      47  113694
  113697      49  113694  113700      49  113709  113712      47  113706  113709
      49  113706  113712      49  113721  113724      47  113718  113721      49
  113718  113724      49  113733  113736      47  113730  113733      49  113730
  113736      49  113745  113748      47  113742  113745      49  113742  113748
      49  113757  113760      47  113754  113757      49  113754  113760      49
  113769  113772      47  113766  113769      49  113766  113772      49  113781
  113784      47  113778  113781      49  113778  113784      49  113793  113796
      47  113790  113793      49  113790  113796      49  113805  113808      47
  113802  113805      49  113802  113808      49  113817  113820      47  113814
  113817      49  113814  113820      49  113829  113832      47  113826  113829
      49  113826  113832      49  113841  113844      47  113838  113841      49
  113838  113844      49  113853  113856      47  113850  113853      49  113850
  113856      49  113865  113868      47  113862  113865      49  113862  113868
      49  113877  113880      47  113874  113877      49  113874  113880      49
  113889  113892      47  113886  113889      49  113886  113892      49  113901
  113904      47  113898  113901      49  113898  113904      49  113913  113916
      47  113910  113913      49  113910  113916      49  113925  113928      47
  113922  113925      49  113922  113928      49  113937  113940      47  113934
  113937      49  113934  113940      49  113949  113952      47  113946  113949
      49  113946  113952      49  113961  113964      47  113958  113961      49
  113958  113964      49  113973  113976      47  113970  113973      49  113970
  113976      49  113985  113988      47  113982  113985      49  113982  113988
      49  113997  114000      47  113994  113997      49  113994  114000      49
  114009  114012      47  114006  114009      49  114006  114012      49  114021
  114024      47  114018  114021      49  114018  114024      49  114033  114036
      47  114030  114033      49  114030  114036      49  114045  114048      47
  114042  114045      49  114042  114048      49  114057  114060      47  114054
  114057      49  114054  114060      49  114069  114072      47  114066  114069
      49  114066  114072      49  114081  114084      47  114078  114081      49
  114078  114084      49  114093  114096      47  114090  114093      49  114090
  114096      49  114105  114108      47  114102  114105      49  114102  114108
      49  114117  114120      47  114114  114117      49  114114  114120      49
  114129  114132      47  114126  114129      49  114126  114132      49  114141
  114144      47  114138  114141      49  114138  114144      49  114153  114156
      47  114150  114153      49  114150  114156      49  114165  114168      47
  114162  114165      49  114162  114168      49  114177  114180      47  114174
  114177      49  114174  114180      49  114189  114192      47  114186  114189
      49  114186  114192      49  114201  114204      47  114198  114201      49
  114198  114204      49  114213  114216      47  114210  114213      49  114210
  114216      49  114225  114228      47  114222  114225      49  114222  114228
      49  114237  114240      47  114234  114237      49  114234  114240      49
  114249  114252      47  114246  114249      49  114246  114252      49  114261
  114264      47  114258  114261      49  114258  114264      49  114273  114276
      47  114270  114273      49  114270  114276      49  114285  114288      47
  114282  114285      49  114282  114288      49  114297  114300      47  114294
  114297      49  114294  114300      49  114309  114312      47  114306  114309
      49  114306  114312      49  114321  114324      47  114318  114321      49
  114318  114324      49  114333  114336      47  114330  114333      49  114330
  114336      49  114345  114348      47  114342  114345      49  114342  114348
      49  114357  114360      47  114354  114357      49  114354  114360      49
  114369  114372      47  114366  114369      49  114366  114372      49  114381
  114384      47  114378  114381      49  114378  114384      49  114393  114396
      47  114390  114393      49  114390  114396      49  114405  114408      47
  114402  114405      49  114402  114408      49  114417  114420      47  114414
  114417      49  114414  114420      49  114429  114432      47  114426  114429
      49  114426  114432      49  114441  114444      47  114438  114441      49
  114438  114444      49  114453  114456      47  114450  114453      49  114450
  114456      49  114465  114468      47  114462  114465      49  114462  114468
      49  114477  114480      47  114474  114477      49  114474  114480      49
  114489  114492      47  114486  114489      49  114486  114492      49  114501
  114504      47  114498  114501      49  114498  114504      49  114513  114516
      47  114510  114513      49  114510  114516      49  114525  114528      47
  114522  114525      49  114522  114528      49  114537  114540      47  114534
  114537      49  114534  114540      49  114549  114552      47  114546  114549
      49  114546  114552      49  114561  114564      47  114558  114561      49
  114558  114564      49  114573  114576      47  114570  114573      49  114570
  114576      49  114585  114588      47  114582  114585      49  114582  114588
      49  114597  114600      47  114594  114597      49  114594  114600      49
  114609  114612      47  114606  114609      49  114606  114612      49  114621
  114624      47  114618  114621      49  114618  114624      49  114633  114636
      47  114630  114633      49  114630  114636      49  114645  114648      47
  114642  114645      49  114642  114648      49  114657  114660      47  114654
  114657      49  114654  114660      49  114669  114672      47  114666  114669
      49  114666  114672      49  114681  114684      47  114678  114681      49
  114678  114684      49  114693  114696      47  114690  114693      49  114690
  114696      49  114705  114708      47  114702  114705      49  114702  114708
      49  114717  114720      47  114714  114717      49  114714  114720      49
  114729  114732      47  114726  114729      49  114726  114732      49  114741
  114744      47  114738  114741      49  114738  114744      49  114753  114756
      47  114750  114753      49  114750  114756      49  114765  114768      47
  114762  114765      49  114762  114768      49  114777  114780      47  114774
  114777      49  114774  114780      49  114789  114792      47  114786  114789
      49  114786  114792      49  114801  114804      47  114798  114801      49
  114798  114804      49  114813  114816      47  114810  114813      49  114810
  114816      49  114825  114828      47  114822  114825      49  114822  114828
      49  114837  114840      47  114834  114837      49  114834  114840      49
  114849  114852      47  114846  114849      49  114846  114852      49  114861
  114864      47  114858  114861      49  114858  114864      49  114873  114876
      47  114870  114873      49  114870  114876      49  114885  114888      47
  114882  114885      49  114882  114888      49  114897  114900      47  114894
  114897      49  114894  114900      49  114909  114912      47  114906  114909
      49  114906  114912      49  114921  114924      47  114918  114921      49
  114918  114924      49  114933  114936      47  114930  114933      49  114930
  114936      49  114945  114948      47  114942  114945      49  114942  114948
      49  114957  114960      47  114954  114957      49  114954  114960      49
  114969  114972      47  114966  114969      49  114966  114972      49  114981
  114984      47  114978  114981      49  114978  114984      49  114993  114996
      47  114990  114993      49  114990  114996      49  115005  115008      47
  115002  115005      49  115002  115008      49  115017  115020      47  115014
  115017      49  115014  115020      49  115029  115032      47  115026  115029
      49  115026  115032      49  115041  115044      47  115038  115041      49
  115038  115044      49  115053  115056      47  115050  115053      49  115050
  115056      49  115065  115068      47  115062  115065      49  115062  115068
      49  115077  115080      47  115074  115077      49  115074  115080      49
  115089  115092      47  115086  115089      49  115086  115092      49  115101
  115104      47  115098  115101      49  115098  115104      49  115113  115116
      47  115110  115113      49  115110  115116      49  115125  115128      47
  115122  115125      49  115122  115128      49  115137  115140      47  115134
  115137      49  115134  115140      49  115149  115152      47  115146  115149
      49  115146  115152      49  115161  115164      47  115158  115161      49
  115158  115164      49  115173  115176      47  115170  115173      49  115170
  115176      49  115185  115188      47  115182  115185      49  115182  115188
      49  115197  115200      47  115194  115197      49  115194  115200      49
  115209  115212      47  115206  115209      49  115206  115212      49  115221
  115224      47  115218  115221      49  115218  115224      49  115233  115236
      47  115230  115233      49  115230  115236      49  115245  115248      47
  115242  115245      49  115242  115248      49  115257  115260      47  115254
  115257      49  115254  115260      49  115269  115272      47  115266  115269
      49  115266  115272      49  115281  115284      47  115278  115281      49
  115278  115284      49  115293  115296      47  115290  115293      49  115290
  115296      49  115305  115308      47  115302  115305      49  115302  115308
      49  115317  115320      47  115314  115317      49  115314  115320      49
  115329  115332      47  115326  115329      49  115326  115332      49  115341
  115344      47  115338  115341      49  115338  115344      49  115353  115356
      47  115350  115353      49  115350  115356      49  115365  115368      47
  115362  115365      49  115362  115368      49  115377  115380      47  115374
  115377      49  115374  115380      49  115389  115392      47  115386  115389
      49  115386  115392      49  115401  115404      47  115398  115401      49
  115398  115404      49  115413  115416      47  115410  115413      49  115410
  115416      49  115425  115428      47  115422  115425      49  115422  115428
      49  115437  115440      47  115434  115437      49  115434  115440      49
  115449  115452      47  115446  115449      49  115446  115452      49  115461
  115464      47  115458  115461      49  115458  115464      49  115473  115476
      47  115470  115473      49  115470  115476      49  115485  115488      47
  115482  115485      49  115482  115488      49  115497  115500      47  115494
  115497      49  115494  115500      49  115509  115512      47  115506  115509
      49  115506  115512      49  115521  115524      47  115518  115521      49
  115518  115524      49  115533  115536      47  115530  115533      49  115530
  115536      49  115545  115548      47  115542  115545      49  115542  115548
      49  115557  115560      47  115554  115557      49  115554  115560      49
  115569  115572      47  115566  115569      49  115566  115572      49  115581
  115584      47  115578  115581      49  115578  115584      49  115593  115596
      47  115590  115593      49  115590  115596      49  115605  115608      47
  115602  115605      49  115602  115608      49  115617  115620      47  115614
  115617      49  115614  115620      49  115629  115632      47  115626  115629
      49  115626  115632      49  115641  115644      47  115638  115641      49
  115638  115644      49  115653  115656      47  115650  115653      49  115650
  115656      49  115665  115668      47  115662  115665      49  115662  115668
      49  115677  115680      47  115674  115677      49  115674  115680      49
  115689  115692      47  115686  115689      49  115686  115692      49  115701
  115704      47  115698  115701      49  115698  115704      49  115713  115716
      47  115710  115713      49  115710  115716      49  115725  115728      47
  115722  115725      49  115722  115728      49  115737  115740      47  115734
  115737      49  115734  115740      49  115749  115752      47  115746  115749
      49  115746  115752      49  115761  115764      47  115758  115761      49
  115758  115764      49  115773  115776      47  115770  115773      49  115770
  115776      49  115785  115788      47  115782  115785      49  115782  115788
      49  115797  115800      47  115794  115797      49  115794  115800      49
  115809  115812      47  115806  115809      49  115806  115812      49  115821
  115824      47  115818  115821      49  115818  115824      49  115833  115836
      47  115830  115833      49  115830  115836      49  115845  115848      47
  115842  115845      49  115842  115848      49  115857  115860      47  115854
  115857      49  115854  115860      49  115869  115872      47  115866  115869
      49  115866  115872      49  115881  115884      47  115878  115881      49
  115878  115884      49  115893  115896      47  115890  115893      49  115890
  115896      49  115905  115908      47  115902  115905      49  115902  115908
      49  115917  115920      47  115914  115917      49  115914  115920      49
  115929  115932      47  115926  115929      49  115926  115932      49  115941
  115944      47  115938  115941      49  115938  115944      49  115953  115956
      47  115950  115953      49  115950  115956      49  115965  115968      47
  115962  115965      49  115962  115968      49  115977  115980      47  115974
  115977      49  115974  115980      49  115989  115992      47  115986  115989
      49  115986  115992      49  116001  116004      47  115998  116001      49
  115998  116004      49  116013  116016      47  116010  116013      49  116010
  116016      49  116025  116028      47  116022  116025      49  116022  116028
      49  116037  116040      47  116034  116037      49  116034  116040      49
  116049  116052      47  116046  116049      49  116046  116052      49  116061
  116064      47  116058  116061      49  116058  116064      49  116073  116076
      47  116070  116073      49  116070  116076      49  116085  116088      47
  116082  116085      49  116082  116088      49  116097  116100      47  116094
  116097      49  116094  116100      49  116109  116112      47  116106  116109
      49  116106  116112      49  116121  116124      47  116118  116121      49
  116118  116124      49  116133  116136      47  116130  116133      49  116130
  116136      49  116145  116148      47  116142  116145      49  116142  116148
      49  116157  116160      47  116154  116157      49  116154  116160      49
  116169  116172      47  116166  116169      49  116166  116172      49  116181
  116184      47  116178  116181      49  116178  116184      49  116193  116196
      47  116190  116193      49  116190  116196      49  116205  116208      47
  116202  116205      49  116202  116208      49  116217  116220      47  116214
  116217      49  116214  116220      49  116229  116232      47  116226  116229
      49  116226  116232      49  116241  116244      47  116238  116241      49
  116238  116244      49  116253  116256      47  116250  116253      49  116250
  116256      49  116265  116268      47  116262  116265      49  116262  116268
      49  116277  116280      47  116274  116277      49  116274  116280      49
  116289  116292      47  116286  116289      49  116286  116292      49  116301
  116304      47  116298  116301      49  116298  116304      49  116313  116316
      47  116310  116313      49  116310  116316      49  116325  116328      47
  116322  116325      49  116322  116328      49  116337  116340      47  116334
  116337      49  116334  116340      49  116349  116352      47  116346  116349
      49  116346  116352      49  116361  116364      47  116358  116361      49
  116358  116364      49  116373  116376      47  116370  116373      49  116370
  116376      49  116385  116388      47  116382  116385      49  116382  116388
      49  116397  116400      47  116394  116397      49  116394  116400      49
  116409  116412      47  116406  116409      49  116406  116412      49  116421
  116424      47  116418  116421      49  116418  116424      49  116433  116436
      47  116430  116433      49  116430  116436      49  116445  116448      47
  116442  116445      49  116442  116448      49  116457  116460      47  116454
  116457      49  116454  116460      49  116469  116472      47  116466  116469
      49  116466  116472      49  116481  116484      47  116478  116481      49
  116478  116484      49  116493  116496      47  116490  116493      49  116490
  116496      49  116505  116508      47  116502  116505      49  116502  116508
      49  116517  116520      47  116514  116517      49  116514  116520      49
  116529  116532      47  116526  116529      49  116526  116532      49  116541
  116544      47  116538  116541      49  116538  116544      49  116553  116556
      47  116550  116553      49  116550  116556      49  116565  116568      47
  116562  116565      49  116562  116568      49  116577  116580      47  116574
  116577      49  116574  116580      49  116589  116592      47  116586  116589
      49  116586  116592      49  116601  116604      47  116598  116601      49
  116598  116604      49  116613  116616      47  116610  116613      49  116610
  116616      49  116625  116628      47  116622  116625      49  116622  116628
      49  116637  116640      47  116634  116637      49  116634  116640      49
  116649  116652      47  116646  116649      49  116646  116652      49  116661
  116664      47  116658  116661      49  116658  116664      49  116673  116676
      47  116670  116673      49  116670  116676      49  116685  116688      47
  116682  116685      49  116682  116688      49  116697  116700      47  116694
  116697      49  116694  116700      49  116709  116712      47  116706  116709
      49  116706  116712      49  116721  116724      47  116718  116721      49
  116718  116724      49  116733  116736      47  116730  116733      49  116730
  116736      49  116745  116748      47  116742  116745      49  116742  116748
      49  116757  116760      47  116754  116757      49  116754  116760      49
  116769  116772      47  116766  116769      49  116766  116772      49  116781
  116784      47  116778  116781      49  116778  116784      49  116793  116796
      47  116790  116793      49  116790  116796      49  116805  116808      47
  116802  116805      49  116802  116808      49  116817  116820      47  116814
  116817      49  116814  116820      49  116829  116832      47  116826  116829
      49  116826  116832      49  116841  116844      47  116838  116841      49
  116838  116844      49  116853  116856      47  116850  116853      49  116850
  116856      49  116865  116868      47  116862  116865      49  116862  116868
      49  116877  116880      47  116874  116877      49  116874  116880      49
  116889  116892      47  116886  116889      49  116886  116892      49  116901
  116904      47  116898  116901      49  116898  116904      49  116913  116916
      47  116910  116913      49  116910  116916      49  116925  116928      47
  116922  116925      49  116922  116928      49  116937  116940      47  116934
  116937      49  116934  116940      49  116949  116952      47  116946  116949
      49  116946  116952      49  116961  116964      47  116958  116961      49
  116958  116964      49  116973  116976      47  116970  116973      49  116970
  116976      49  116985  116988      47  116982  116985      49  116982  116988
      49  116997  117000      47  116994  116997      49  116994  117000      49
  117009  117012      47  117006  117009      49  117006  117012      49  117021
  117024      47  117018  117021      49  117018  117024      49  117033  117036
      47  117030  117033      49  117030  117036      49  117045  117048      47
  117042  117045      49  117042  117048      49  117057  117060      47  117054
  117057      49  117054  117060      49  117069  117072      47  117066  117069
      49  117066  117072      49  117081  117084      47  117078  117081      49
  117078  117084      49  117093  117096      47  117090  117093      49  117090
  117096      49  117105  117108      47  117102  117105      49  117102  117108
      49  117117  117120      47  117114  117117      49  117114  117120      49
  117129  117132      47  117126  117129      49  117126  117132      49  117141
  117144      47  117138  117141      49  117138  117144      49  117153  117156
      47  117150  117153      49  117150  117156      49  117165  117168      47
  117162  117165      49  117162  117168      49  117177  117180      47  117174
  117177      49  117174  117180      49  117189  117192      47  117186  117189
      49  117186  117192      49  117201  117204      47  117198  117201      49
  117198  117204      49  117213  117216      47  117210  117213      49  117210
  117216      49  117225  117228      47  117222  117225      49  117222  117228
      49  117237  117240      47  117234  117237      49  117234  117240      49
  117249  117252      47  117246  117249      49  117246  117252      49  117261
  117264      47  117258  117261      49  117258  117264      49  117273  117276
      47  117270  117273      49  117270  117276      49  117285  117288      47
  117282  117285      49  117282  117288      49  117297  117300      47  117294
  117297      49  117294  117300      49  117309  117312      47  117306  117309
      49  117306  117312      49  117321  117324      47  117318  117321      49
  117318  117324      49  117333  117336      47  117330  117333      49  117330
  117336      49  117345  117348      47  117342  117345      49  117342  117348
      49  117357  117360      47  117354  117357      49  117354  117360      49
  117369  117372      47  117366  117369      49  117366  117372      49  117381
  117384      47  117378  117381      49  117378  117384      49  117393  117396
      47  117390  117393      49  117390  117396      49  117405  117408      47
  117402  117405      49  117402  117408      49  117417  117420      47  117414
  117417      49  117414  117420      49  117429  117432      47  117426  117429
      49  117426  117432      49  117441  117444      47  117438  117441      49
  117438  117444      49  117453  117456      47  117450  117453      49  117450
  117456      49  117465  117468      47  117462  117465      49  117462  117468
      49  117477  117480      47  117474  117477      49  117474  117480      49
  117489  117492      47  117486  117489      49  117486  117492      49  117501
  117504      47  117498  117501      49  117498  117504      49  117513  117516
      47  117510  117513      49  117510  117516      49  117525  117528      47
  117522  117525      49  117522  117528      49  117537  117540      47  117534
  117537      49  117534  117540      49  117549  117552      47  117546  117549
      49  117546  117552      49  117561  117564      47  117558  117561      49
  117558  117564      49  117573  117576      47  117570  117573      49  117570
  117576      49  117585  117588      47  117582  117585      49  117582  117588
      49  117597  117600      47  117594  117597      49  117594  117600      49
  117609  117612      47  117606  117609      49  117606  117612      49  117621
  117624      47  117618  117621      49  117618  117624      49  117633  117636
      47  117630  117633      49  117630  117636      49  117645  117648      47
  117642  117645      49  117642  117648      49  117657  117660      47  117654
  117657      49  117654  117660      49  117669  117672      47  117666  117669
      49  117666  117672      49  117681  117684      47  117678  117681      49
  117678  117684      49  117693  117696      47  117690  117693      49  117690
  117696      49  117705  117708      47  117702  117705      49  117702  117708
      49  117717  117720      47  117714  117717      49  117714  117720      49
  117729  117732      47  117726  117729      49  117726  117732      49  117741
  117744      47  117738  117741      49  117738  117744      49  117753  117756
      47  117750  117753      49  117750  117756      49  117765  117768      47
  117762  117765      49  117762  117768      49  117777  117780      47  117774
  117777      49  117774  117780      49  117789  117792      47  117786  117789
      49  117786  117792      49  117801  117804      47  117798  117801      49
  117798  117804      49  117813  117816      47  117810  117813      49  117810
  117816      49  117825  117828      47  117822  117825      49  117822  117828
      49  117837  117840      47  117834  117837      49  117834  117840      49
  117849  117852      47  117846  117849      49  117846  117852      49  117861
  117864      47  117858  117861      49  117858  117864      49  117873  117876
      47  117870  117873      49  117870  117876      49  117885  117888      47
  117882  117885      49  117882  117888      49  117897  117900      47  117894
  117897      49  117894  117900      49  117909  117912      47  117906  117909
      49  117906  117912      49  117921  117924      47  117918  117921      49
  117918  117924      49  117933  117936      47  117930  117933      49  117930
  117936      49  117945  117948      47  117942  117945      49  117942  117948
      49  117957  117960      47  117954  117957      49  117954  117960      49
  117969  117972      47  117966  117969      49  117966  117972      49  117981
  117984      47  117978  117981      49  117978  117984      49  117993  117996
      47  117990  117993      49  117990  117996      49  118005  118008      47
  118002  118005      49  118002  118008      49  118017  118020      47  118014
  118017      49  118014  118020      49  118029  118032      47  118026  118029
      49  118026  118032      49  118041  118044      47  118038  118041      49
  118038  118044      49  118053  118056      47  118050  118053      49  118050
  118056      49  118065  118068      47  118062  118065      49  118062  118068
      49  118077  118080      47  118074  118077      49  118074  118080      49
  118089  118092      47  118086  118089      49  118086  118092      49  118101
  118104      47  118098  118101      49  118098  118104      49  118113  118116
      47  118110  118113      49  118110  118116      49  118125  118128      47
  118122  118125      49  118122  118128      49  118137  118140      47  118134
  118137      49  118134  118140      49  118149  118152      47  118146  118149
      49  118146  118152      49  118161  118164      47  118158  118161      49
  118158  118164      49  118173  118176      47  118170  118173      49  118170
  118176      49  118185  118188      47  118182  118185      49  118182  118188
      49  118197  118200      47  118194  118197      49  118194  118200      49
  118209  118212      47  118206  118209      49  118206  118212      49  118221
  118224      47  118218  118221      49  118218  118224      49  118233  118236
      47  118230  118233      49  118230  118236      49  118245  118248      47
  118242  118245      49  118242  118248      49  118257  118260      47  118254
  118257      49  118254  118260      49  118269  118272      47  118266  118269
      49  118266  118272      49  118281  118284      47  118278  118281      49
  118278  118284      49  118293  118296      47  118290  118293      49  118290
  118296      49  118305  118308      47  118302  118305      49  118302  118308
      49  118317  118320      47  118314  118317      49  118314  118320      49
  118329  118332      47  118326  118329      49  118326  118332      49  118341
  118344      47  118338  118341      49  118338  118344      49  118353  118356
      47  118350  118353      49  118350  118356      49  118365  118368      47
  118362  118365      49  118362  118368      49  118377  118380      47  118374
  118377      49  118374  118380      49  118389  118392      47  118386  118389
      49  118386  118392      49  118401  118404      47  118398  118401      49
  118398  118404      49  118413  118416      47  118410  118413      49  118410
  118416      49  118425  118428      47  118422  118425      49  118422  118428
      49  118437  118440      47  118434  118437      49  118434  118440      49
  118449  118452      47  118446  118449      49  118446  118452      49  118461
  118464      47  118458  118461      49  118458  118464      49  118473  118476
      47  118470  118473      49  118470  118476      49  118485  118488      47
  118482  118485      49  118482  118488      49  118497  118500      47  118494
  118497      49  118494  118500      49  118509  118512      47  118506  118509
      49  118506  118512      49  118521  118524      47  118518  118521      49
  118518  118524      49  118533  118536      47  118530  118533      49  118530
  118536      49  118545  118548      47  118542  118545      49  118542  118548
      49  118557  118560      47  118554  118557      49  118554  118560      49
  118569  118572      47  118566  118569      49  118566  118572      49  118581
  118584      47  118578  118581      49  118578  118584      49  118593  118596
      47  118590  118593      49  118590  118596      49  118605  118608      47
  118602  118605      49  118602  118608      49  118617  118620      47  118614
  118617      49  118614  118620      49  118629  118632      47  118626  118629
      49  118626  118632      49  118641  118644      47  118638  118641      49
  118638  118644      49  118653  118656      47  118650  118653      49  118650
  118656      49  118665  118668      47  118662  118665      49  118662  118668
      49  118677  118680      47  118674  118677      49  118674  118680      49
  118689  118692      47  118686  118689      49  118686  118692      49  118701
  118704      47  118698  118701      49  118698  118704      49  118713  118716
      47  118710  118713      49  118710  118716      49  118725  118728      47
  118722  118725      49  118722  118728      49  118737  118740      47  118734
  118737      49  118734  118740      49  118749  118752      47  118746  118749
      49  118746  118752      49  118761  118764      47  118758  118761      49
  118758  118764      49  118773  118776      47  118770  118773      49  118770
  118776      49  118785  118788      47  118782  118785      49  118782  118788
      49  118797  118800      47  118794  118797      49  118794  118800      49
  118809  118812      47  118806  118809      49  118806  118812      49  118821
  118824      47  118818  118821      49  118818  118824      49  118833  118836
      47  118830  118833      49  118830  118836      49  118845  118848      47
  118842  118845      49  118842  118848      49  118857  118860      47  118854
  118857      49  118854  118860      49  118869  118872      47  118866  118869
      49  118866  118872      49  118881  118884      47  118878  118881      49
  118878  118884      49  118893  118896      47  118890  118893      49  118890
  118896      49  118905  118908      47  118902  118905      49  118902  118908
      49  118917  118920      47  118914  118917      49  118914  118920      49
  118929  118932      47  118926  118929      49  118926  118932      49  118941
  118944      47  118938  118941      49  118938  118944      49  118953  118956
      47  118950  118953      49  118950  118956      49  118965  118968      47
  118962  118965      49  118962  118968      49  118977  118980      47  118974
  118977      49  118974  118980      49  118989  118992      47  118986  118989
      49  118986  118992      49  119001  119004      47  118998  119001      49
  118998  119004      49  119013  119016      47  119010  119013      49  119010
  119016      49  119025  119028      47  119022  119025      49  119022  119028
      49  119037  119040      47  119034  119037      49  119034  119040      49
  119049  119052      47  119046  119049      49  119046  119052      49  119061
  119064      47  119058  119061      49  119058  119064      49  119073  119076
      47  119070  119073      49  119070  119076      49  119085  119088      47
  119082  119085      49  119082  119088      49  119097  119100      47  119094
  119097      49  119094  119100      49  119109  119112      47  119106  119109
      49  119106  119112      49  119121  119124      47  119118  119121      49
  119118  119124      49  119133  119136      47  119130  119133      49  119130
  119136      49  119145  119148      47  119142  119145      49  119142  119148
      49  119157  119160      47  119154  119157      49  119154  119160      49
  119169  119172      47  119166  119169      49  119166  119172      49  119181
  119184      47  119178  119181      49  119178  119184      49  119193  119196
      47  119190  119193      49  119190  119196      49  119205  119208      47
  119202  119205      49  119202  119208      49  119217  119220      47  119214
  119217      49  119214  119220      49  119229  119232      47  119226  119229
      49  119226  119232      49  119241  119244      47  119238  119241      49
  119238  119244      49  119253  119256      47  119250  119253      49  119250
  119256      49  119265  119268      47  119262  119265      49  119262  119268
      49  119277  119280      47  119274  119277      49  119274  119280      49
  119289  119292      47  119286  119289      49  119286  119292      49  119301
  119304      47  119298  119301      49  119298  119304      49  119313  119316
      47  119310  119313      49  119310  119316      49  119325  119328      47
  119322  119325      49  119322  119328      49  119337  119340      47  119334
  119337      49  119334  119340      49  119349  119352      47  119346  119349
      49  119346  119352      49  119361  119364      47  119358  119361      49
  119358  119364      49  119373  119376      47  119370  119373      49  119370
  119376      49  119385  119388      47  119382  119385      49  119382  119388
      49  119397  119400      47  119394  119397      49  119394  119400      49
  119409  119412      47  119406  119409      49  119406  119412      49  119421
  119424      47  119418  119421      49  119418  119424      49  119433  119436
      47  119430  119433      49  119430  119436      49  119445  119448      47
  119442  119445      49  119442  119448      49  119457  119460      47  119454
  119457      49  119454  119460      49  119469  119472      47  119466  119469
      49  119466  119472      49  119481  119484      47  119478  119481      49
  119478  119484      49  119493  119496      47  119490  119493      49  119490
  119496      49  119505  119508      47  119502  119505      49  119502  119508
      49  119517  119520      47  119514  119517      49  119514  119520      49
  119529  119532      47  119526  119529      49  119526  119532      49  119541
  119544      47  119538  119541      49  119538  119544      49  119553  119556
      47  119550  119553      49  119550  119556      49  119565  119568      47
  119562  119565      49  119562  119568      49  119577  119580      47  119574
  119577      49  119574  119580      49  119589  119592      47  119586  119589
      49  119586  119592      49  119601  119604      47  119598  119601      49
  119598  119604      49  119613  119616      47  119610  119613      49  119610
  119616      49  119625  119628      47  119622  119625      49  119622  119628
      49  119637  119640      47  119634  119637      49  119634  119640      49
  119649  119652      47  119646  119649      49  119646  119652      49  119661
  119664      47  119658  119661      49  119658  119664      49  119673  119676
      47  119670  119673      49  119670  119676      49  119685  119688      47
  119682  119685      49  119682  119688      49  119697  119700      47  119694
  119697      49  119694  119700      49  119709  119712      47  119706  119709
      49  119706  119712      49  119721  119724      47  119718  119721      49
  119718  119724      49  119733  119736      47  119730  119733      49  119730
  119736      49  119745  119748      47  119742  119745      49  119742  119748
      49  119757  119760      47  119754  119757      49  119754  119760      49
  119769  119772      47  119766  119769      49  119766  119772      49  119781
  119784      47  119778  119781      49  119778  119784      49  119793  119796
      47  119790  119793      49  119790  119796      49  119805  119808      47
  119802  119805      49  119802  119808      49  119817  119820      47  119814
  119817      49  119814  119820      49  119829  119832      47  119826  119829
      49  119826  119832      49  119841  119844      47  119838  119841      49
  119838  119844      49  119853  119856      47  119850  119853      49  119850
  119856      49  119865  119868      47  119862  119865      49  119862  119868
      49  119877  119880      47  119874  119877      49  119874  119880      49
  119889  119892      47  119886  119889      49  119886  119892      49  119901
  119904      47  119898  119901      49  119898  119904      49  119913  119916
      47  119910  119913      49  119910  119916      49  119925  119928      47
  119922  119925      49  119922  119928      49  119937  119940      47  119934
  119937      49  119934  119940      49  119949  119952      47  119946  119949
      49  119946  119952      49  119961  119964      47  119958  119961      49
  119958  119964      49  119973  119976      47  119970  119973      49  119970
  119976      49  119985  119988      47  119982  119985      49  119982  119988
      49  119997  120000      47  119994  119997      49  119994  120000      49
  120009  120012      47  120006  120009      49  120006  120012      49  120021
  120024      47  120018  120021      49  120018  120024      49  120033  120036
      47  120030  120033      49  120030  120036      49  120045  120048      47
  120042  120045      49  120042  120048      49  120057  120060      47  120054
  120057      49  120054  120060      49  120069  120072      47  120066  120069
      49  120066  120072      49  120081  120084      47  120078  120081      49
  120078  120084      49  120093  120096      47  120090  120093      49  120090
  120096      49  120105  120108      47  120102  120105      49  120102  120108
      49  120117  120120      47  120114  120117      49  120114  120120      49
  120129  120132      47  120126  120129      49  120126  120132      49  120141
  120144      47  120138  120141      49  120138  120144      49  120153  120156
      47  120150  120153      49  120150  120156      49  120165  120168      47
  120162  120165      49  120162  120168      49  120177  120180      47  120174
  120177      49  120174  120180      49  120189  120192      47  120186  120189
      49  120186  120192      49  120201  120204      47  120198  120201      49
  120198  120204      49  120213  120216      47  120210  120213      49  120210
  120216      49  120225  120228      47  120222  120225      49  120222  120228
      49  120237  120240      47  120234  120237      49  120234  120240      49
  120249  120252      47  120246  120249      49  120246  120252      49  120261
  120264      47  120258  120261      49  120258  120264      49  120273  120276
      47  120270  120273      49  120270  120276      49  120285  120288      47
  120282  120285      49  120282  120288      49  120297  120300      47  120294
  120297      49  120294  120300      49  120309  120312      47  120306  120309
      49  120306  120312      49  120321  120324      47  120318  120321      49
  120318  120324      49  120333  120336      47  120330  120333      49  120330
  120336      49  120345  120348      47  120342  120345      49  120342  120348
      49  120357  120360      47  120354  120357      49  120354  120360      49
  120369  120372      47  120366  120369      49  120366  120372      49  120381
  120384      47  120378  120381      49  120378  120384      49  120393  120396
      47  120390  120393      49  120390  120396      49  120405  120408      47
  120402  120405      49  120402  120408      49  120417  120420      47  120414
  120417      49  120414  120420      49  120429  120432      47  120426  120429
      49  120426  120432      49  120441  120444      47  120438  120441      49
  120438  120444      49  120453  120456      47  120450  120453      49  120450
  120456      49  120465  120468      47  120462  120465      49  120462  120468
      49  120477  120480      47  120474  120477      49  120474  120480      49
  120489  120492      47  120486  120489      49  120486  120492      49  120501
  120504      47  120498  120501      49  120498  120504      49  120513  120516
      47  120510  120513      49  120510  120516      49  120525  120528      47
  120522  120525      49  120522  120528      49  120537  120540      47  120534
  120537      49  120534  120540      49  120549  120552      47  120546  120549
      49  120546  120552      49  120561  120564      47  120558  120561      49
  120558  120564      49  120573  120576      47  120570  120573      49  120570
  120576      49  120585  120588      47  120582  120585      49  120582  120588
      49  120597  120600      47  120594  120597      49  120594  120600      49
  120609  120612      47  120606  120609      49  120606  120612      49  120621
  120624      47  120618  120621      49  120618  120624      49  120633  120636
      47  120630  120633      49  120630  120636      49  120645  120648      47
  120642  120645      49  120642  120648      49  120657  120660      47  120654
  120657      49  120654  120660      49  120669  120672      47  120666  120669
      49  120666  120672      49  120681  120684      47  120678  120681      49
  120678  120684      49  120693  120696      47  120690  120693      49  120690
  120696      49  120705  120708      47  120702  120705      49  120702  120708
      49  120717  120720      47  120714  120717      49  120714  120720      49
  120729  120732      47  120726  120729      49  120726  120732      49  120741
  120744      47  120738  120741      49  120738  120744      49  120753  120756
      47  120750  120753      49  120750  120756      49  120765  120768      47
  120762  120765      49  120762  120768      49  120777  120780      47  120774
  120777      49  120774  120780      49  120789  120792      47  120786  120789
      49  120786  120792      49  120801  120804      47  120798  120801      49
  120798  120804      49  120813  120816      47  120810  120813      49  120810
  120816      49  120825  120828      47  120822  120825      49  120822  120828
      49  120837  120840      47  120834  120837      49  120834  120840      49
  120849  120852      47  120846  120849      49  120846  120852      49  120861
  120864      47  120858  120861      49  120858  120864      49  120873  120876
      47  120870  120873      49  120870  120876      49  120885  120888      47
  120882  120885      49  120882  120888      49  120897  120900      47  120894
  120897      49  120894  120900      49  120909  120912      47  120906  120909
      49  120906  120912      49  120921  120924      47  120918  120921      49
  120918  120924      49  120933  120936      47  120930  120933      49  120930
  120936      49  120945  120948      47  120942  120945      49  120942  120948
      49  120957  120960      47  120954  120957      49  120954  120960      49
  120969  120972      47  120966  120969      49  120966  120972      49  120981
  120984      47  120978  120981      49  120978  120984      49  120993  120996
      47  120990  120993      49  120990  120996      49  121005  121008      47
  121002  121005      49  121002  121008      49  121017  121020      47  121014
  121017      49  121014  121020      49  121029  121032      47  121026  121029
      49  121026  121032      49  121041  121044      47  121038  121041      49
  121038  121044      49  121053  121056      47  121050  121053      49  121050
  121056      49  121065  121068      47  121062  121065      49  121062  121068
      49  121077  121080      47  121074  121077      49  121074  121080      49
  121089  121092      47  121086  121089      49  121086  121092      49  121101
  121104      47  121098  121101      49  121098  121104      49  121113  121116
      47  121110  121113      49  121110  121116      49  121125  121128      47
  121122  121125      49  121122  121128      49  121137  121140      47  121134
  121137      49  121134  121140      49  121149  121152      47  121146  121149
      49  121146  121152      49  121161  121164      47  121158  121161      49
  121158  121164      49  121173  121176      47  121170  121173      49  121170
  121176      49  121185  121188      47  121182  121185      49  121182  121188
      49  121197  121200      47  121194  121197      49  121194  121200      49
  121209  121212      47  121206  121209      49  121206  121212      49  121221
  121224      47  121218  121221      49  121218  121224      49  121233  121236
      47  121230  121233      49  121230  121236      49  121245  121248      47
  121242  121245      49  121242  121248      49  121257  121260      47  121254
  121257      49  121254  121260      49  121269  121272      47  121266  121269
      49  121266  121272      49  121281  121284      47  121278  121281      49
  121278  121284      49  121293  121296      47  121290  121293      49  121290
  121296      49  121305  121308      47  121302  121305      49  121302  121308
      49  121317  121320      47  121314  121317      49  121314  121320      49
  121329  121332      47  121326  121329      49  121326  121332      49  121341
  121344      47  121338  121341      49  121338  121344      49  121353  121356
      47  121350  121353      49  121350  121356      49  121365  121368      47
  121362  121365      49  121362  121368      49  121377  121380      47  121374
  121377      49  121374  121380      49  121389  121392      47  121386  121389
      49  121386  121392      49  121401  121404      47  121398  121401      49
  121398  121404      49  121413  121416      47  121410  121413      49  121410
  121416      49  121425  121428      47  121422  121425      49  121422  121428
      49  121437  121440      47  121434  121437      49  121434  121440      49
  121449  121452      47  121446  121449      49  121446  121452      49  121461
  121464      47  121458  121461      49  121458  121464      49  121473  121476
      47  121470  121473      49  121470  121476      49  121485  121488      47
  121482  121485      49  121482  121488      49  121497  121500      47  121494
  121497      49  121494  121500      49  121509  121512      47  121506  121509
      49  121506  121512      49  121521  121524      47  121518  121521      49
  121518  121524      49  121533  121536      47  121530  121533      49  121530
  121536      49  121545  121548      47  121542  121545      49  121542  121548
      49  121557  121560      47  121554  121557      49  121554  121560      49
  121569  121572      47  121566  121569      49  121566  121572      49  121581
  121584      47  121578  121581      49  121578  121584      49  121593  121596
      47  121590  121593      49  121590  121596      49  121605  121608      47
  121602  121605      49  121602  121608      49  121617  121620      47  121614
  121617      49  121614  121620      49  121629  121632      47  121626  121629
      49  121626  121632      49  121641  121644      47  121638  121641      49
  121638  121644      49  121653  121656      47  121650  121653      49  121650
  121656      49  121665  121668      47  121662  121665      49  121662  121668
      49  121677  121680      47  121674  121677      49  121674  121680      49
  121689  121692      47  121686  121689      49  121686  121692      49  121701
  121704      47  121698  121701      49  121698  121704      49  121713  121716
      47  121710  121713      49  121710  121716      49  121725  121728      47
  121722  121725      49  121722  121728      49  121737  121740      47  121734
  121737      49  121734  121740      49  121749  121752      47  121746  121749
      49  121746  121752      49  121761  121764      47  121758  121761      49
  121758  121764      49  121773  121776      47  121770  121773      49  121770
  121776      49  121785  121788      47  121782  121785      49  121782  121788
      49  121797  121800      47  121794  121797      49  121794  121800      49
  121809  121812      47  121806  121809      49  121806  121812      49  121821
  121824      47  121818  121821      49  121818  121824      49  121833  121836
      47  121830  121833      49  121830  121836      49  121845  121848      47
  121842  121845      49  121842  121848      49  121857  121860      47  121854
  121857      49  121854  121860      49  121869  121872      47  121866  121869
      49  121866  121872      49  121881  121884      47  121878  121881      49
  121878  121884      49  121893  121896      47  121890  121893      49  121890
  121896      49  121905  121908      47  121902  121905      49  121902  121908
      49  121917  121920      47  121914  121917      49  121914  121920      49
  121929  121932      47  121926  121929      49  121926  121932      49  121941
  121944      47  121938  121941      49  121938  121944      49  121953  121956
      47  121950  121953      49  121950  121956      49  121965  121968      47
  121962  121965      49  121962  121968      49  121977  121980      47  121974
  121977      49  121974  121980      49  121989  121992      47  121986  121989
      49  121986  121992      49  122001  122004      47  121998  122001      49
  121998  122004      49  122013  122016      47  122010  122013      49  122010
  122016      49  122025  122028      47  122022  122025      49  122022  122028
      49  122037  122040      47  122034  122037      49  122034  122040      49
  122049  122052      47  122046  122049      49  122046  122052      49  122061
  122064      47  122058  122061      49  122058  122064      49  122073  122076
      47  122070  122073      49  122070  122076      49  122085  122088      47
  122082  122085      49  122082  122088      49  122097  122100      47  122094
  122097      49  122094  122100      49  122109  122112      47  122106  122109
      49  122106  122112      49  122121  122124      47  122118  122121      49
  122118  122124      49  122133  122136      47  122130  122133      49  122130
  122136      49  122145  122148      47  122142  122145      49  122142  122148
      49  122157  122160      47  122154  122157      49  122154  122160      49
  122169  122172      47  122166  122169      49  122166  122172      49  122181
  122184      47  122178  122181      49  122178  122184      49  122193  122196
      47  122190  122193      49  122190  122196      49  122205  122208      47
  122202  122205      49  122202  122208      49  122217  122220      47  122214
  122217      49  122214  122220      49  122229  122232      47  122226  122229
      49  122226  122232      49  122241  122244      47  122238  122241      49
  122238  122244      49  122253  122256      47  122250  122253      49  122250
  122256      49  122265  122268      47  122262  122265      49  122262  122268
      49  122277  122280      47  122274  122277      49  122274  122280      49
  122289  122292      47  122286  122289      49  122286  122292      49  122301
  122304      47  122298  122301      49  122298  122304      49  122313  122316
      47  122310  122313      49  122310  122316      49  122325  122328      47
  122322  122325      49  122322  122328      49  122337  122340      47  122334
  122337      49  122334  122340      49  122349  122352      47  122346  122349
      49  122346  122352      49  122361  122364      47  122358  122361      49
  122358  122364      49  122373  122376      47  122370  122373      49  122370
  122376      49  122385  122388      47  122382  122385      49  122382  122388
      49  122397  122400      47  122394  122397      49  122394  122400      49
  122409  122412      47  122406  122409      49  122406  122412      49  122421
  122424      47  122418  122421      49  122418  122424      49  122433  122436
      47  122430  122433      49  122430  122436      49  122445  122448      47
  122442  122445      49  122442  122448      49  122457  122460      47  122454
  122457      49  122454  122460      49  122469  122472      47  122466  122469
      49  122466  122472      49  122481  122484      47  122478  122481      49
  122478  122484      49  122493  122496      47  122490  122493      49  122490
  122496      49  122505  122508      47  122502  122505      49  122502  122508
      49  122517  122520      47  122514  122517      49  122514  122520      49
  122529  122532      47  122526  122529      49  122526  122532      49  122541
  122544      47  122538  122541      49  122538  122544      49  122553  122556
      47  122550  122553      49  122550  122556      49  122565  122568      47
  122562  122565      49  122562  122568      49  122577  122580      47  122574
  122577      49  122574  122580      49  122589  122592      47  122586  122589
      49  122586  122592      49  122601  122604      47  122598  122601      49
  122598  122604      49  122613  122616      47  122610  122613      49  122610
  122616      49  122625  122628      47  122622  122625      49  122622  122628
      49  122637  122640      47  122634  122637      49  122634  122640      49
  122649  122652      47  122646  122649      49  122646  122652      49  122661
  122664      47  122658  122661      49  122658  122664      49  122673  122676
      47  122670  122673      49  122670  122676      49  122685  122688      47
  122682  122685      49  122682  122688      49  122697  122700      47  122694
  122697      49  122694  122700      49  122709  122712      47  122706  122709
      49  122706  122712      49  122721  122724      47  122718  122721      49
  122718  122724      49  122733  122736      47  122730  122733      49  122730
  122736      49  122745  122748      47  122742  122745      49  122742  122748
      49  122757  122760      47  122754  122757      49  122754  122760      49
  122769  122772      47  122766  122769      49  122766  122772      49  122781
  122784      47  122778  122781      49  122778  122784      49  122793  122796
      47  122790  122793      49  122790  122796      49  122805  122808      47
  122802  122805      49  122802  122808      49  122817  122820      47  122814
  122817      49  122814  122820      49  122829  122832      47  122826  122829
      49  122826  122832      49  122841  122844      47  122838  122841      49
  122838  122844      49  122853  122856      47  122850  122853      49  122850
  122856      49  122865  122868      47  122862  122865      49  122862  122868
      49  122877  122880      47  122874  122877      49  122874  122880      49
  122889  122892      47  122886  122889      49  122886  122892      49  122901
  122904      47  122898  122901      49  122898  122904      49  122913  122916
      47  122910  122913      49  122910  122916      49  122925  122928      47
  122922  122925      49  122922  122928      49  122937  122940      47  122934
  122937      49  122934  122940      49  122949  122952      47  122946  122949
      49  122946  122952      49  122961  122964      47  122958  122961      49
  122958  122964      49  122973  122976      47  122970  122973      49  122970
  122976      49  122985  122988      47  122982  122985      49  122982  122988
      49  122997  123000      47  122994  122997      49  122994  123000      49
  123009  123012      47  123006  123009      49  123006  123012      49  123021
  123024      47  123018  123021      49  123018  123024      49  123033  123036
      47  123030  123033      49  123030  123036      49  123045  123048      47
  123042  123045      49  123042  123048      49  123057  123060      47  123054
  123057      49  123054  123060      49  123069  123072      47  123066  123069
      49  123066  123072      49  123081  123084      47  123078  123081      49
  123078  123084      49  123093  123096      47  123090  123093      49  123090
  123096      49  123105  123108      47  123102  123105      49  123102  123108
      49  123117  123120      47  123114  123117      49  123114  123120      49
  123129  123132      47  123126  123129      49  123126  123132      49  123141
  123144      47  123138  123141      49  123138  123144      49  123153  123156
      47  123150  123153      49  123150  123156      49  123165  123168      47
  123162  123165      49  123162  123168      49  123177  123180      47  123174
  123177      49  123174  123180      49  123189  123192      47  123186  123189
      49  123186  123192      49  123201  123204      47  123198  123201      49
  123198  123204      49  123213  123216      47  123210  123213      49  123210
  123216      49  123225  123228      47  123222  123225      49  123222  123228
      49  123237  123240      47  123234  123237      49  123234  123240      49
  123249  123252      47  123246  123249      49  123246  123252      49  123261
  123264      47  123258  123261      49  123258  123264      49  123273  123276
      47  123270  123273      49  123270  123276      49  123285  123288      47
  123282  123285      49  123282  123288      49  123297  123300      47  123294
  123297      49  123294  123300      49  123309  123312      47  123306  123309
      49  123306  123312      49  123321  123324      47  123318  123321      49
  123318  123324      49  123333  123336      47  123330  123333      49  123330
  123336      49  123345  123348      47  123342  123345      49  123342  123348
      49  123357  123360      47  123354  123357      49  123354  123360      49
  123369  123372      47  123366  123369      49  123366  123372      49  123381
  123384      47  123378  123381      49  123378  123384      49  123393  123396
      47  123390  123393      49  123390  123396      49  123405  123408      47
  123402  123405      49  123402  123408      49  123417  123420      47  123414
  123417      49  123414  123420      49  123429  123432      47  123426  123429
      49  123426  123432      49  123441  123444      47  123438  123441      49
  123438  123444      49  123453  123456      47  123450  123453      49  123450
  123456      49  123465  123468      47  123462  123465      49  123462  123468
      49  123477  123480      47  123474  123477      49  123474  123480      49
  123489  123492      47  123486  123489      49  123486  123492      49  123501
  123504      47  123498  123501      49  123498  123504      49  123513  123516
      47  123510  123513      49  123510  123516      49  123525  123528      47
  123522  123525      49  123522  123528      49  123537  123540      47  123534
  123537      49  123534  123540      49  123549  123552      47  123546  123549
      49  123546  123552      49  123561  123564      47  123558  123561      49
  123558  123564      49  123573  123576      47  123570  123573      49  123570
  123576      49  123585  123588      47  123582  123585      49  123582  123588
      49  123597  123600      47  123594  123597      49  123594  123600      49
  123609  123612      47  123606  123609      49  123606  123612      49  123621
  123624      47  123618  123621      49  123618  123624      49  123633  123636
      47  123630  123633      49  123630  123636      49  123645  123648      47
  123642  123645      49  123642  123648      49  123657  123660      47  123654
  123657      49  123654  123660      49  123669  123672      47  123666  123669
      49  123666  123672      49  123681  123684      47  123678  123681      49
  123678  123684      49  123693  123696      47  123690  123693      49  123690
  123696      49  123705  123708      47  123702  123705      49  123702  123708
      49  123717  123720      47  123714  123717      49  123714  123720      49
  123729  123732      47  123726  123729      49  123726  123732      49  123741
  123744      47  123738  123741      49  123738  123744      49  123753  123756
      47  123750  123753      49  123750  123756      49  123765  123768      47
  123762  123765      49  123762  123768      49  123777  123780      47  123774
  123777      49  123774  123780      49  123789  123792      47  123786  123789
      49  123786  123792      49  123801  123804      47  123798  123801      49
  123798  123804      49  123813  123816      47  123810  123813      49  123810
  123816      49  123825  123828      47  123822  123825      49  123822  123828
      49  123837  123840      47  123834  123837      49  123834  123840      49
  123849  123852      47  123846  123849      49  123846  123852      49  123861
  123864      47  123858  123861      49  123858  123864      49  123873  123876
      47  123870  123873      49  123870  123876      49  123885  123888      47
  123882  123885      49  123882  123888      49  123897  123900      47  123894
  123897      49  123894  123900      49  123909  123912      47  123906  123909
      49  123906  123912      49  123921  123924      47  123918  123921      49
  123918  123924      49  123933  123936      47  123930  123933      49  123930
  123936      49  123945  123948      47  123942  123945      49  123942  123948
      49  123957  123960      47  123954  123957      49  123954  123960      49
  123969  123972      47  123966  123969      49  123966  123972      49  123981
  123984      47  123978  123981      49  123978  123984      49  123993  123996
      47  123990  123993      49  123990  123996      49  124005  124008      47
  124002  124005      49  124002  124008      49  124017  124020      47  124014
  124017      49  124014  124020      49  124029  124032      47  124026  124029
      49  124026  124032      49  124041  124044      47  124038  124041      49
  124038  124044      49  124053  124056      47  124050  124053      49  124050
  124056      49  124065  124068      47  124062  124065      49  124062  124068
      49  124077  124080      47  124074  124077      49  124074  124080      49
  124089  124092      47  124086  124089      49  124086  124092      49  124101
  124104      47  124098  124101      49  124098  124104      49  124113  124116
      47  124110  124113      49  124110  124116      49  124125  124128      47
  124122  124125      49  124122  124128      49  124137  124140      47  124134
  124137      49  124134  124140      49  124149  124152      47  124146  124149
      49  124146  124152      49  124161  124164      47  124158  124161      49
  124158  124164      49  124173  124176      47  124170  124173      49  124170
  124176      49  124185  124188      47  124182  124185      49  124182  124188
      49  124197  124200      47  124194  124197      49  124194  124200      49
  124209  124212      47  124206  124209      49  124206  124212      49  124221
  124224      47  124218  124221      49  124218  124224      49  124233  124236
      47  124230  124233      49  124230  124236      49  124245  124248      47
  124242  124245      49  124242  124248      49  124257  124260      47  124254
  124257      49  124254  124260      49  124269  124272      47  124266  124269
      49  124266  124272      49  124281  124284      47  124278  124281      49
  124278  124284      49  124293  124296      47  124290  124293      49  124290
  124296      49  124305  124308      47  124302  124305      49  124302  124308
      49  124317  124320      47  124314  124317      49  124314  124320      49
  124329  124332      47  124326  124329      49  124326  124332      49  124341
  124344      47  124338  124341      49  124338  124344      49  124353  124356
      47  124350  124353      49  124350  124356      49  124365  124368      47
  124362  124365      49  124362  124368      49  124377  124380      47  124374
  124377      49  124374  124380      49  124389  124392      47  124386  124389
      49  124386  124392      49  124401  124404      47  124398  124401      49
  124398  124404      49  124413  124416      47  124410  124413      49  124410
  124416      49  124425  124428      47  124422  124425      49  124422  124428
      49  124437  124440      47  124434  124437      49  124434  124440      49
  124449  124452      47  124446  124449      49  124446  124452      49  124461
  124464      47  124458  124461      49  124458  124464      49  124473  124476
      47  124470  124473      49  124470  124476      49  124485  124488      47
  124482  124485      49  124482  124488      49  124497  124500      47  124494
  124497      49  124494  124500      49  124509  124512      47  124506  124509
      49  124506  124512      49  124521  124524      47  124518  124521      49
  124518  124524      49  124533  124536      47  124530  124533      49  124530
  124536      49  124545  124548      47  124542  124545      49  124542  124548
      49  124557  124560      47  124554  124557      49  124554  124560      49
  124569  124572      47  124566  124569      49  124566  124572      49  124581
  124584      47  124578  124581      49  124578  124584      49  124593  124596
      47  124590  124593      49  124590  124596      49  124605  124608      47
  124602  124605      49  124602  124608      49  124617  124620      47  124614
  124617      49  124614  124620      49  124629  124632      47  124626  124629
      49  124626  124632      49  124641  124644      47  124638  124641      49
  124638  124644      49  124653  124656      47  124650  124653      49  124650
  124656      49  124665  124668      47  124662  124665      49  124662  124668
      49  124677  124680      47  124674  124677      49  124674  124680      49
  124689  124692      47  124686  124689      49  124686  124692      49  124701
  124704      47  124698  124701      49  124698  124704      49  124713  124716
      47  124710  124713      49  124710  124716      49  124725  124728      47
  124722  124725      49  124722  124728      49  124737  124740      47  124734
  124737      49  124734  124740      49  124749  124752      47  124746  124749
      49  124746  124752      49  124761  124764      47  124758  124761      49
  124758  124764      49  124773  124776      47  124770  124773      49  124770
  124776      49  124785  124788      47  124782  124785      49  124782  124788
      49  124797  124800      47  124794  124797      49  124794  124800      49
  124809  124812      47  124806  124809      49  124806  124812      49  124821
  124824      47  124818  124821      49  124818  124824      49  124833  124836
      47  124830  124833      49  124830  124836      49  124845  124848      47
  124842  124845      49  124842  124848      49  124857  124860      47  124854
  124857      49  124854  124860      49  124869  124872      47  124866  124869
      49  124866  124872      49  124881  124884      47  124878  124881      49
  124878  124884      49  124893  124896      47  124890  124893      49  124890
  124896      49  124905  124908      47  124902  124905      49  124902  124908
      49  124917  124920      47  124914  124917      49  124914  124920      49
  124929  124932      47  124926  124929      49  124926  124932      49  124941
  124944      47  124938  124941      49  124938  124944      49  124953  124956
      47  124950  124953      49  124950  124956      49  124965  124968      47
  124962  124965      49  124962  124968      49  124977  124980      47  124974
  124977      49  124974  124980      49  124989  124992      47  124986  124989
      49  124986  124992      49  125001  125004      47  124998  125001      49
  124998  125004      49  125013  125016      47  125010  125013      49  125010
  125016      49  125025  125028      47  125022  125025      49  125022  125028
      49  125037  125040      47  125034  125037      49  125034  125040      49
  125049  125052      47  125046  125049      49  125046  125052      49  125061
  125064      47  125058  125061      49  125058  125064      49  125073  125076
      47  125070  125073      49  125070  125076      49  125085  125088      47
  125082  125085      49  125082  125088      49  125097  125100      47  125094
  125097      49  125094  125100      49  125109  125112      47  125106  125109
      49  125106  125112      49  125121  125124      47  125118  125121      49
  125118  125124      49  125133  125136      47  125130  125133      49  125130
  125136      49  125145  125148      47  125142  125145      49  125142  125148
      49  125157  125160      47  125154  125157      49  125154  125160      49
  125169  125172      47  125166  125169      49  125166  125172      49  125181
  125184      47  125178  125181      49  125178  125184      49  125193  125196
      47  125190  125193      49  125190  125196      49  125205  125208      47
  125202  125205      49  125202  125208      49  125217  125220      47  125214
  125217      49  125214  125220      49  125229  125232      47  125226  125229
      49  125226  125232      49  125241  125244      47  125238  125241      49
  125238  125244      49  125253  125256      47  125250  125253      49  125250
  125256      49  125265  125268      47  125262  125265      49  125262  125268
      49  125277  125280      47  125274  125277      49  125274  125280      49
  125289  125292      47  125286  125289      49  125286  125292      49  125301
  125304      47  125298  125301      49  125298  125304      49  125313  125316
      47  125310  125313      49  125310  125316      49  125325  125328      47
  125322  125325      49  125322  125328      49  125337  125340      47  125334
  125337      49  125334  125340      49  125349  125352      47  125346  125349
      49  125346  125352      49  125361  125364      47  125358  125361      49
  125358  125364      49  125373  125376      47  125370  125373      49  125370
  125376      49  125385  125388      47  125382  125385      49  125382  125388
      49  125397  125400      47  125394  125397      49  125394  125400      49
  125409  125412      47  125406  125409      49  125406  125412      49  125421
  125424      47  125418  125421      49  125418  125424      49  125433  125436
      47  125430  125433      49  125430  125436      49  125445  125448      47
  125442  125445      49  125442  125448      49  125457  125460      47  125454
  125457      49  125454  125460      49  125469  125472      47  125466  125469
      49  125466  125472      49  125481  125484      47  125478  125481      49
  125478  125484      49  125493  125496      47  125490  125493      49  125490
  125496      49  125505  125508      47  125502  125505      49  125502  125508
      49  125517  125520      47  125514  125517      49  125514  125520      49
  125529  125532      47  125526  125529      49  125526  125532      49  125541
  125544      47  125538  125541      49  125538  125544      49  125553  125556
      47  125550  125553      49  125550  125556      49  125565  125568      47
  125562  125565      49  125562  125568      49  125577  125580      47  125574
  125577      49  125574  125580      49  125589  125592      47  125586  125589
      49  125586  125592      49  125601  125604      47  125598  125601      49
  125598  125604      49  125613  125616      47  125610  125613      49  125610
  125616      49  125625  125628      47  125622  125625      49  125622  125628
      49  125637  125640      47  125634  125637      49  125634  125640      49
  125649  125652      47  125646  125649      49  125646  125652      49  125661
  125664      47  125658  125661      49  125658  125664      49  125673  125676
      47  125670  125673      49  125670  125676      49  125685  125688      47
  125682  125685      49  125682  125688      49  125697  125700      47  125694
  125697      49  125694  125700      49  125709  125712      47  125706  125709
      49  125706  125712      49  125721  125724      47  125718  125721      49
  125718  125724      49  125733  125736      47  125730  125733      49  125730
  125736      49  125745  125748      47  125742  125745      49  125742  125748
      49  125757  125760      47  125754  125757      49  125754  125760      49
  125769  125772      47  125766  125769      49  125766  125772      49  125781
  125784      47  125778  125781      49  125778  125784      49  125793  125796
      47  125790  125793      49  125790  125796      49  125805  125808      47
  125802  125805      49  125802  125808      49  125817  125820      47  125814
  125817      49  125814  125820      49  125829  125832      47  125826  125829
      49  125826  125832      49  125841  125844      47  125838  125841      49
  125838  125844      49  125853  125856      47  125850  125853      49  125850
  125856      49  125865  125868      47  125862  125865      49  125862  125868
      49  125877  125880      47  125874  125877      49  125874  125880      49
  125889  125892      47  125886  125889      49  125886  125892      49  125901
  125904      47  125898  125901      49  125898  125904      49  125913  125916
      47  125910  125913      49  125910  125916      49  125925  125928      47
  125922  125925      49  125922  125928      49  125937  125940      47  125934
  125937      49  125934  125940      49  125949  125952      47  125946  125949
      49  125946  125952      49  125961  125964      47  125958  125961      49
  125958  125964      49  125973  125976      47  125970  125973      49  125970
  125976      49  125985  125988      47  125982  125985      49  125982  125988
      49  125997  126000      47  125994  125997      49  125994  126000      49
  126009  126012      47  126006  126009      49  126006  126012      49  126021
  126024      47  126018  126021      49  126018  126024      49  126033  126036
      47  126030  126033      49  126030  126036      49  126045  126048      47
  126042  126045      49  126042  126048      49  126057  126060      47  126054
  126057      49  126054  126060      49  126069  126072      47  126066  126069
      49  126066  126072      49  126081  126084      47  126078  126081      49
  126078  126084      49  126093  126096      47  126090  126093      49  126090
  126096      49  126105  126108      47  126102  126105      49  126102  126108
      49  126117  126120      47  126114  126117      49  126114  126120      49
  126129  126132      47  126126  126129      49  126126  126132      49  126141
  126144      47  126138  126141      49  126138  126144      49  126153  126156
      47  126150  126153      49  126150  126156      49  126165  126168      47
  126162  126165      49  126162  126168      49  126177  126180      47  126174
  126177      49  126174  126180      49  126189  126192      47  126186  126189
      49  126186  126192      49  126201  126204      47  126198  126201      49
  126198  126204      49  126213  126216      47  126210  126213      49  126210
  126216      49  126225  126228      47  126222  126225      49  126222  126228
      49  126237  126240      47  126234  126237      49  126234  126240      49
  126249  126252      47  126246  126249      49  126246  126252      49  126261
  126264      47  126258  126261      49  126258  126264      49  126273  126276
      47  126270  126273      49  126270  126276      49  126285  126288      47
  126282  126285      49  126282  126288      49  126297  126300      47  126294
  126297      49  126294  126300      49  126309  126312      47  126306  126309
      49  126306  126312      49  126321  126324      47  126318  126321      49
  126318  126324      49  126333  126336      47  126330  126333      49  126330
  126336      49  126345  126348      47  126342  126345      49  126342  126348
      49  126357  126360      47  126354  126357      49  126354  126360      49
  126369  126372      47  126366  126369      49  126366  126372      49  126381
  126384      47  126378  126381      49  126378  126384      49  126393  126396
      47  126390  126393      49  126390  126396      49  126405  126408      47
  126402  126405      49  126402  126408      49  126417  126420      47  126414
  126417      49  126414  126420      49  126429  126432      47  126426  126429
      49  126426  126432      49  126441  126444      47  126438  126441      49
  126438  126444      49  126453  126456      47  126450  126453      49  126450
  126456      49  126465  126468      47  126462  126465      49  126462  126468
      49  126477  126480      47  126474  126477      49  126474  126480      49
  126489  126492      47  126486  126489      49  126486  126492      49  126501
  126504      47  126498  126501      49  126498  126504      49  126513  126516
      47  126510  126513      49  126510  126516      49  126525  126528      47
  126522  126525      49  126522  126528      49  126537  126540      47  126534
  126537      49  126534  126540      49  126549  126552      47  126546  126549
      49  126546  126552      49  126561  126564      47  126558  126561      49
  126558  126564      49  126573  126576      47  126570  126573      49  126570
  126576      49  126585  126588      47  126582  126585      49  126582  126588
      49  126597  126600      47  126594  126597      49  126594  126600      49
  126609  126612      47  126606  126609      49  126606  126612      49  126621
  126624      47  126618  126621      49  126618  126624      49  126633  126636
      47  126630  126633      49  126630  126636      49  126645  126648      47
  126642  126645      49  126642  126648      49  126657  126660      47  126654
  126657      49  126654  126660      49  126669  126672      47  126666  126669
      49  126666  126672      49  126681  126684      47  126678  126681      49
  126678  126684      49  126693  126696      47  126690  126693      49  126690
  126696      49  126705  126708      47  126702  126705      49  126702  126708
      49  126717  126720      47  126714  126717      49  126714  126720      49
  126729  126732      47  126726  126729      49  126726  126732      49  126741
  126744      47  126738  126741      49  126738  126744      49  126753  126756
      47  126750  126753      49  126750  126756      49  126765  126768      47
  126762  126765      49  126762  126768      49  126777  126780      47  126774
  126777      49  126774  126780      49  126789  126792      47  126786  126789
      49  126786  126792      49  126801  126804      47  126798  126801      49
  126798  126804      49  126813  126816      47  126810  126813      49  126810
  126816      49  126825  126828      47  126822  126825      49  126822  126828
      49  126837  126840      47  126834  126837      49  126834  126840      49
  126849  126852      47  126846  126849      49  126846  126852      49  126861
  126864      47  126858  126861      49  126858  126864      49  126873  126876
      47  126870  126873      49  126870  126876      49  126885  126888      47
  126882  126885      49  126882  126888      49  126897  126900      47  126894
  126897      49  126894  126900      49  126909  126912      47  126906  126909
      49  126906  126912      49  126921  126924      47  126918  126921      49
  126918  126924      49  126933  126936      47  126930  126933      49  126930
  126936      49  126945  126948      47  126942  126945      49  126942  126948
      49  126957  126960      47  126954  126957      49  126954  126960      49
  126969  126972      47  126966  126969      49  126966  126972      49  126981
  126984      47  126978  126981      49  126978  126984      49  126993  126996
      47  126990  126993      49  126990  126996      49  127005  127008      47
  127002  127005      49  127002  127008      49  127017  127020      47  127014
  127017      49  127014  127020      49  127029  127032      47  127026  127029
      49  127026  127032      49  127041  127044      47  127038  127041      49
  127038  127044      49  127053  127056      47  127050  127053      49  127050
  127056      49  127065  127068      47  127062  127065      49  127062  127068
      49  127077  127080      47  127074  127077      49  127074  127080      49
  127089  127092      47  127086  127089      49  127086  127092      49  127101
  127104      47  127098  127101      49  127098  127104      49  127113  127116
      47  127110  127113      49  127110  127116      49  127125  127128      47
  127122  127125      49  127122  127128      49  127137  127140      47  127134
  127137      49  127134  127140      49  127149  127152      47  127146  127149
      49  127146  127152      49  127161  127164      47  127158  127161      49
  127158  127164      49  127173  127176      47  127170  127173      49  127170
  127176      49  127185  127188      47  127182  127185      49  127182  127188
      49  127197  127200      47  127194  127197      49  127194  127200      49
  127209  127212      47  127206  127209      49  127206  127212      49  127221
  127224      47  127218  127221      49  127218  127224      49  127233  127236
      47  127230  127233      49  127230  127236      49  127245  127248      47
  127242  127245      49  127242  127248      49  127257  127260      47  127254
  127257      49  127254  127260      49  127269  127272      47  127266  127269
      49  127266  127272      49  127281  127284      47  127278  127281      49
  127278  127284      49  127293  127296      47  127290  127293      49  127290
  127296      49  127305  127308      47  127302  127305      49  127302  127308
      49  127317  127320      47  127314  127317      49  127314  127320      49
  127329  127332      47  127326  127329      49  127326  127332      49  127341
  127344      47  127338  127341      49  127338  127344      49  127353  127356
      47  127350  127353      49  127350  127356      49  127365  127368      47
  127362  127365      49  127362  127368      49  127377  127380      47  127374
  127377      49  127374  127380      49  127389  127392      47  127386  127389
      49  127386  127392      49  127401  127404      47  127398  127401      49
  127398  127404      49  127413  127416      47  127410  127413      49  127410
  127416      49  127425  127428      47  127422  127425      49  127422  127428
      49  127437  127440      47  127434  127437      49  127434  127440      49
  127449  127452      47  127446  127449      49  127446  127452      49  127461
  127464      47  127458  127461      49  127458  127464      49  127473  127476
      47  127470  127473      49  127470  127476      49  127485  127488      47
  127482  127485      49  127482  127488      49  127497  127500      47  127494
  127497      49  127494  127500      49  127509  127512      47  127506  127509
      49  127506  127512      49  127521  127524      47  127518  127521      49
  127518  127524      49  127533  127536      47  127530  127533      49  127530
  127536      49  127545  127548      47  127542  127545      49  127542  127548
      49  127557  127560      47  127554  127557      49  127554  127560      49
  127569  127572      47  127566  127569      49  127566  127572      49  127581
  127584      47  127578  127581      49  127578  127584      49  127593  127596
      47  127590  127593      49  127590  127596      49  127605  127608      47
  127602  127605      49  127602  127608      49  127617  127620      47  127614
  127617      49  127614  127620      49  127629  127632      47  127626  127629
      49  127626  127632      49  127641  127644      47  127638  127641      49
  127638  127644      49  127653  127656      47  127650  127653      49  127650
  127656      49  127665  127668      47  127662  127665      49  127662  127668
      49  127677  127680      47  127674  127677      49  127674  127680      49
  127689  127692      47  127686  127689      49  127686  127692      49  127701
  127704      47  127698  127701      49  127698  127704      49  127713  127716
      47  127710  127713      49  127710  127716      49  127725  127728      47
  127722  127725      49  127722  127728      49  127737  127740      47  127734
  127737      49  127734  127740      49  127749  127752      47  127746  127749
      49  127746  127752      49  127761  127764      47  127758  127761      49
  127758  127764      49  127773  127776      47  127770  127773      49  127770
  127776      49  127785  127788      47  127782  127785      49  127782  127788
      49  127797  127800      47  127794  127797      49  127794  127800      49
  127809  127812      47  127806  127809      49  127806  127812      49  127821
  127824      47  127818  127821      49  127818  127824      49  127833  127836
      47  127830  127833      49  127830  127836      49  127845  127848      47
  127842  127845      49  127842  127848      49  127857  127860      47  127854
  127857      49  127854  127860      49  127869  127872      47  127866  127869
      49  127866  127872      49  127881  127884      47  127878  127881      49
  127878  127884      49  127893  127896      47  127890  127893      49  127890
  127896      49  127905  127908      47  127902  127905      49  127902  127908
      49  127917  127920      47  127914  127917      49  127914  127920      49
  127929  127932      47  127926  127929      49  127926  127932      49  127941
  127944      47  127938  127941      49  127938  127944      49  127953  127956
      47  127950  127953      49  127950  127956      49  127965  127968      47
  127962  127965      49  127962  127968      49  127977  127980      47  127974
  127977      49  127974  127980      49  127989  127992      47  127986  127989
      49  127986  127992      49  128001  128004      47  127998  128001      49
  127998  128004      49  128013  128016      47  128010  128013      49  128010
  128016      49  128025  128028      47  128022  128025      49  128022  128028
      49  128037  128040      47  128034  128037      49  128034  128040      49
  128049  128052      47  128046  128049      49  128046  128052      49  128061
  128064      47  128058  128061      49  128058  128064      49  128073  128076
      47  128070  128073      49  128070  128076      49  128085  128088      47
  128082  128085      49  128082  128088      49  128097  128100      47  128094
  128097      49  128094  128100      49  128109  128112      47  128106  128109
      49  128106  128112      49  128121  128124      47  128118  128121      49
  128118  128124      49  128133  128136      47  128130  128133      49  128130
  128136      49  128145  128148      47  128142  128145      49  128142  128148
      49  128157  128160      47  128154  128157      49  128154  128160      49
  128169  128172      47  128166  128169      49  128166  128172      49  128181
  128184      47  128178  128181      49  128178  128184      49  128193  128196
      47  128190  128193      49  128190  128196      49  128205  128208      47
  128202  128205      49  128202  128208      49  128217  128220      47  128214
  128217      49  128214  128220      49  128229  128232      47  128226  128229
      49  128226  128232      49  128241  128244      47  128238  128241      49
  128238  128244      49  128253  128256      47  128250  128253      49  128250
  128256      49  128265  128268      47  128262  128265      49  128262  128268
      49  128277  128280      47  128274  128277      49  128274  128280      49
  128289  128292      47  128286  128289      49  128286  128292      49  128301
  128304      47  128298  128301      49  128298  128304      49  128313  128316
      47  128310  128313      49  128310  128316      49  128325  128328      47
  128322  128325      49  128322  128328      49  128337  128340      47  128334
  128337      49  128334  128340      49  128349  128352      47  128346  128349
      49  128346  128352      49  128361  128364      47  128358  128361      49
  128358  128364      49  128373  128376      47  128370  128373      49  128370
  128376      49  128385  128388      47  128382  128385      49  128382  128388
      49  128397  128400      47  128394  128397      49  128394  128400      49
  128409  128412      47  128406  128409      49  128406  128412      49  128421
  128424      47  128418  128421      49  128418  128424      49  128433  128436
      47  128430  128433      49  128430  128436      49  128445  128448      47
  128442  128445      49  128442  128448      49  128457  128460      47  128454
  128457      49  128454  128460      49  128469  128472      47  128466  128469
      49  128466  128472      49  128481  128484      47  128478  128481      49
  128478  128484      49  128493  128496      47  128490  128493      49  128490
  128496      49  128505  128508      47  128502  128505      49  128502  128508
      49  128517  128520      47  128514  128517      49  128514  128520      49
  128529  128532      47  128526  128529      49  128526  128532      49  128541
  128544      47  128538  128541      49  128538  128544      49  128553  128556
      47  128550  128553      49  128550  128556      49  128565  128568      47
  128562  128565      49  128562  128568      49  128577  128580      47  128574
  128577      49  128574  128580      49  128589  128592      47  128586  128589
      49  128586  128592      49  128601  128604      47  128598  128601      49
  128598  128604      49  128613  128616      47  128610  128613      49  128610
  128616      49  128625  128628      47  128622  128625      49  128622  128628
      49  128637  128640      47  128634  128637      49  128634  128640      49
  128649  128652      47  128646  128649      49  128646  128652      49  128661
  128664      47  128658  128661      49  128658  128664      49  128673  128676
      47  128670  128673      49  128670  128676      49  128685  128688      47
  128682  128685      49  128682  128688      49  128697  128700      47  128694
  128697      49  128694  128700      49  128709  128712      47  128706  128709
      49  128706  128712      49  128721  128724      47  128718  128721      49
  128718  128724      49  128733  128736      47  128730  128733      49  128730
  128736      49  128745  128748      47  128742  128745      49  128742  128748
      49  128757  128760      47  128754  128757      49  128754  128760      49
  128769  128772      47  128766  128769      49  128766  128772      49  128781
  128784      47  128778  128781      49  128778  128784      49  128793  128796
      47  128790  128793      49  128790  128796      49  128805  128808      47
  128802  128805      49  128802  128808      49  128817  128820      47  128814
  128817      49  128814  128820      49  128829  128832      47  128826  128829
      49  128826  128832      49  128841  128844      47  128838  128841      49
  128838  128844      49  128853  128856      47  128850  128853      49  128850
  128856      49  128865  128868      47  128862  128865      49  128862  128868
      49  128877  128880      47  128874  128877      49  128874  128880      49
  128889  128892      47  128886  128889      49  128886  128892      49  128901
  128904      47  128898  128901      49  128898  128904      49  128913  128916
      47  128910  128913      49  128910  128916      49  128925  128928      47
  128922  128925      49  128922  128928      49  128937  128940      47  128934
  128937      49  128934  128940      49  128949  128952      47  128946  128949
      49  128946  128952      49  128961  128964      47  128958  128961      49
  128958  128964      49  128973  128976      47  128970  128973      49  128970
  128976      49  128985  128988      47  128982  128985      49  128982  128988
      49  128997  129000      47  128994  128997      49  128994  129000      49
  129009  129012      47  129006  129009      49  129006  129012      49  129021
  129024      47  129018  129021      49  129018  129024      49  129033  129036
      47  129030  129033      49  129030  129036      49  129045  129048      47
  129042  129045      49  129042  129048      49  129057  129060      47  129054
  129057      49  129054  129060      49  129069  129072      47  129066  129069
      49  129066  129072      49  129081  129084      47  129078  129081      49
  129078  129084      49  129093  129096      47  129090  129093      49  129090
  129096      49  129105  129108      47  129102  129105      49  129102  129108
      49  129117  129120      47  129114  129117      49  129114  129120      49
  129129  129132      47  129126  129129      49  129126  129132      49  129141
  129144      47  129138  129141      49  129138  129144      49  129153  129156
      47  129150  129153      49  129150  129156      49  129165  129168      47
  129162  129165      49  129162  129168      49  129177  129180      47  129174
  129177      49  129174  129180      49  129189  129192      47  129186  129189
      49  129186  129192      49  129201  129204      47  129198  129201      49
  129198  129204      49  129213  129216      47  129210  129213      49  129210
  129216      49  129225  129228      47  129222  129225      49  129222  129228
      49  129237  129240      47  129234  129237      49  129234  129240      49
  129249  129252      47  129246  129249      49  129246  129252      49  129261
  129264      47  129258  129261      49  129258  129264      49  129273  129276
      47  129270  129273      49  129270  129276      49  129285  129288      47
  129282  129285      49  129282  129288      49  129297  129300      47  129294
  129297      49  129294  129300      49  129309  129312      47  129306  129309
      49  129306  129312      49  129321  129324      47  129318  129321      49
  129318  129324      49  129333  129336      47  129330  129333      49  129330
  129336      49  129345  129348      47  129342  129345      49  129342  129348
      49  129357  129360      47  129354  129357      49  129354  129360      49
  129369  129372      47  129366  129369      49  129366  129372      49  129381
  129384      47  129378  129381      49  129378  129384      49  129393  129396
      47  129390  129393      49  129390  129396      49  129405  129408      47
  129402  129405      49  129402  129408      49  129417  129420      47  129414
  129417      49  129414  129420      49  129429  129432      47  129426  129429
      49  129426  129432      49  129441  129444      47  129438  129441      49
  129438  129444      49  129453  129456      47  129450  129453      49  129450
  129456      49  129465  129468      47  129462  129465      49  129462  129468
      49  129477  129480      47  129474  129477      49  129474  129480      49
  129489  129492      47  129486  129489      49  129486  129492      49  129501
  129504      47  129498  129501      49  129498  129504      49  129513  129516
      47  129510  129513      49  129510  129516      49  129525  129528      47
  129522  129525      49  129522  129528      49  129537  129540      47  129534
  129537      49  129534  129540      49  129549  129552      47  129546  129549
      49  129546  129552      49  129561  129564      47  129558  129561      49
  129558  129564      49  129573  129576      47  129570  129573      49  129570
  129576      49  129585  129588      47  129582  129585      49  129582  129588
      49  129597  129600      47  129594  129597      49  129594  129600      49
  129609  129612      47  129606  129609      49  129606  129612      49  129621
  129624      47  129618  129621      49  129618  129624      49  129633  129636
      47  129630  129633      49  129630  129636      49  129645  129648      47
  129642  129645      49  129642  129648      49  129657  129660      47  129654
  129657      49  129654  129660      49  129669  129672      47  129666  129669
      49  129666  129672      49  129681  129684      47  129678  129681      49
  129678  129684      49  129693  129696      47  129690  129693      49  129690
  129696      49  129705  129708      47  129702  129705      49  129702  129708
      49  129717  129720      47  129714  129717      49  129714  129720      49
  129729  129732      47  129726  129729      49  129726  129732      49  129741
  129744      47  129738  129741      49  129738  129744      49  129753  129756
      47  129750  129753      49  129750  129756      49  129765  129768      47
  129762  129765      49  129762  129768      49  129777  129780      47  129774
  129777      49  129774  129780      49  129789  129792      47  129786  129789
      49  129786  129792      49  129801  129804      47  129798  129801      49
  129798  129804      49  129813  129816      47  129810  129813      49  129810
  129816      49  129825  129828      47  129822  129825      49  129822  129828
      49  129837  129840      47  129834  129837      49  129834  129840      49
  129849  129852      47  129846  129849      49  129846  129852      49  129861
  129864      47  129858  129861      49  129858  129864      49  129873  129876
      47  129870  129873      49  129870  129876      49  129885  129888      47
  129882  129885      49  129882  129888      49  129897  129900      47  129894
  129897      49  129894  129900      49  129909  129912      47  129906  129909
      49  129906  129912      49  129921  129924      47  129918  129921      49
  129918  129924      49  129933  129936      47  129930  129933      49  129930
  129936      49  129945  129948      47  129942  129945      49  129942  129948
      49  129957  129960      47  129954  129957      49  129954  129960      49
  129969  129972      47  129966  129969      49  129966  129972      49  129981
  129984      47  129978  129981      49  129978  129984      49  129993  129996
      47  129990  129993      49  129990  129996      49  130005  130008      47
  130002  130005      49  130002  130008      49  130017  130020      47  130014
  130017      49  130014  130020      49  130029  130032      47  130026  130029
      49  130026  130032      49  130041  130044      47  130038  130041      49
  130038  130044      49  130053  130056      47  130050  130053      49  130050
  130056      49  130065  130068      47  130062  130065      49  130062  130068
      49  130077  130080      47  130074  130077      49  130074  130080      49
  130089  130092      47  130086  130089      49  130086  130092      49  130101
  130104      47  130098  130101      49  130098  130104      49  130113  130116
      47  130110  130113      49  130110  130116      49  130125  130128      47
  130122  130125      49  130122  130128      49  130137  130140      47  130134
  130137      49  130134  130140      49  130149  130152      47  130146  130149
      49  130146  130152      49  130161  130164      47  130158  130161      49
  130158  130164      49  130173  130176      47  130170  130173      49  130170
  130176      49  130185  130188      47  130182  130185      49  130182  130188
      49  130197  130200      47  130194  130197      49  130194  130200      49
  130209  130212      47  130206  130209      49  130206  130212      49  130221
  130224      47  130218  130221      49  130218  130224      49  130233  130236
      47  130230  130233      49  130230  130236      49  130245  130248      47
  130242  130245      49  130242  130248      49  130257  130260      47  130254
  130257      49  130254  130260      49  130269  130272      47  130266  130269
      49  130266  130272      49  130281  130284      47  130278  130281      49
  130278  130284      49  130293  130296      47  130290  130293      49  130290
  130296      49  130305  130308      47  130302  130305      49  130302  130308
      49  130317  130320      47  130314  130317      49  130314  130320      49
  130329  130332      47  130326  130329      49  130326  130332      49  130341
  130344      47  130338  130341      49  130338  130344      49  130353  130356
      47  130350  130353      49  130350  130356      49  130365  130368      47
  130362  130365      49  130362  130368      49  130377  130380      47  130374
  130377      49  130374  130380      49  130389  130392      47  130386  130389
      49  130386  130392      49  130401  130404      47  130398  130401      49
  130398  130404      49  130413  130416      47  130410  130413      49  130410
  130416      49  130425  130428      47  130422  130425      49  130422  130428
      49  130437  130440      47  130434  130437      49  130434  130440      49
  130449  130452      47  130446  130449      49  130446  130452      49  130461
  130464      47  130458  130461      49  130458  130464      49  130473  130476
      47  130470  130473      49  130470  130476      49  130485  130488      47
  130482  130485      49  130482  130488      49  130497  130500      47  130494
  130497      49  130494  130500      49  130509  130512      47  130506  130509
      49  130506  130512      49  130521  130524      47  130518  130521      49
  130518  130524      49  130533  130536      47  130530  130533      49  130530
  130536      49  130545  130548      47  130542  130545      49  130542  130548
      49  130557  130560      47  130554  130557      49  130554  130560      49
  130569  130572      47  130566  130569      49  130566  130572      49  130581
  130584      47  130578  130581      49  130578  130584      49  130593  130596
      47  130590  130593      49  130590  130596      49  130605  130608      47
  130602  130605      49  130602  130608      49  130617  130620      47  130614
  130617      49  130614  130620      49  130629  130632      47  130626  130629
      49  130626  130632      49  130641  130644      47  130638  130641      49
  130638  130644      49  130653  130656      47  130650  130653      49  130650
  130656      49  130665  130668      47  130662  130665      49  130662  130668
      49  130677  130680      47  130674  130677      49  130674  130680      49
  130689  130692      47  130686  130689      49  130686  130692      49  130701
  130704      47  130698  130701      49  130698  130704      49  130713  130716
      47  130710  130713      49  130710  130716      49  130725  130728      47
  130722  130725      49  130722  130728      49  130737  130740      47  130734
  130737      49  130734  130740      49  130749  130752      47  130746  130749
      49  130746  130752      49  130761  130764      47  130758  130761      49
  130758  130764      49  130773  130776      47  130770  130773      49  130770
  130776      49  130785  130788      47  130782  130785      49  130782  130788
      49  130797  130800      47  130794  130797      49  130794  130800      49
  130809  130812      47  130806  130809      49  130806  130812      49  130821
  130824      47  130818  130821      49  130818  130824      49  130833  130836
      47  130830  130833      49  130830  130836      49  130845  130848      47
  130842  130845      49  130842  130848      49  130857  130860      47  130854
  130857      49  130854  130860      49  130869  130872      47  130866  130869
      49  130866  130872      49  130881  130884      47  130878  130881      49
  130878  130884      49  130893  130896      47  130890  130893      49  130890
  130896      49  130905  130908      47  130902  130905      49  130902  130908
      49  130917  130920      47  130914  130917      49  130914  130920      49
  130929  130932      47  130926  130929      49  130926  130932      49  130941
  130944      47  130938  130941      49  130938  130944      49  130953  130956
      47  130950  130953      49  130950  130956      49  130965  130968      47
  130962  130965      49  130962  130968      49  130977  130980      47  130974
  130977      49  130974  130980      49  130989  130992      47  130986  130989
      49  130986  130992      49  131001  131004      47  130998  131001      49
  130998  131004      49  131013  131016      47  131010  131013      49  131010
  131016      49  131025  131028      47  131022  131025      49  131022  131028
      49  131037  131040      47  131034  131037      49  131034  131040      49
  131049  131052      47  131046  131049      49  131046  131052      49  131061
  131064      47  131058  131061      49  131058  131064      49  131073  131076
      47  131070  131073      49  131070  131076      49  131085  131088      47
  131082  131085      49  131082  131088      49  131097  131100      47  131094
  131097      49  131094  131100      49  131109  131112      47  131106  131109
      49  131106  131112      49  131121  131124      47  131118  131121      49
  131118  131124      49  131133  131136      47  131130  131133      49  131130
  131136      49  131145  131148      47  131142  131145      49  131142  131148
      49  131157  131160      47  131154  131157      49  131154  131160      49
  131169  131172      47  131166  131169      49  131166  131172      49  131181
  131184      47  131178  131181      49  131178  131184      49  131193  131196
      47  131190  131193      49  131190  131196      49  131205  131208      47
  131202  131205      49  131202  131208      49  131217  131220      47  131214
  131217      49  131214  131220      49  131229  131232      47  131226  131229
      49  131226  131232      49  131241  131244      47  131238  131241      49
  131238  131244      49  131253  131256      47  131250  131253      49  131250
  131256      49  131265  131268      47  131262  131265      49  131262  131268
      49  131277  131280      47  131274  131277      49  131274  131280      49
  131289  131292      47  131286  131289      49  131286  131292      49  131301
  131304      47  131298  131301      49  131298  131304      49  131313  131316
      47  131310  131313      49  131310  131316      49  131325  131328      47
  131322  131325      49  131322  131328      49  131337  131340      47  131334
  131337      49  131334  131340      49  131349  131352      47  131346  131349
      49  131346  131352      49  131361  131364      47  131358  131361      49
  131358  131364      49  131373  131376      47  131370  131373      49  131370
  131376      49  131385  131388      47  131382  131385      49  131382  131388
      49  131397  131400      47  131394  131397      49  131394  131400      49
  131409  131412      47  131406  131409      49  131406  131412      49  131421
  131424      47  131418  131421      49  131418  131424      49  131433  131436
      47  131430  131433      49  131430  131436      49  131445  131448      47
  131442  131445      49  131442  131448      49  131457  131460      47  131454
  131457      49  131454  131460      49  131469  131472      47  131466  131469
      49  131466  131472      49  131481  131484      47  131478  131481      49
  131478  131484      49  131493  131496      47  131490  131493      49  131490
  131496      49  131505  131508      47  131502  131505      49  131502  131508
      49  131517  131520      47  131514  131517      49  131514  131520      49
  131529  131532      47  131526  131529      49  131526  131532      49  131541
  131544      47  131538  131541      49  131538  131544      49  131553  131556
      47  131550  131553      49  131550  131556      49  131565  131568      47
  131562  131565      49  131562  131568      49  131577  131580      47  131574
  131577      49  131574  131580      49  131589  131592      47  131586  131589
      49  131586  131592      49  131601  131604      47  131598  131601      49
  131598  131604      49  131613  131616      47  131610  131613      49  131610
  131616      49  131625  131628      47  131622  131625      49  131622  131628
      49  131637  131640      47  131634  131637      49  131634  131640      49
  131649  131652      47  131646  131649      49  131646  131652      49  131661
  131664      47  131658  131661      49  131658  131664      49  131673  131676
      47  131670  131673      49  131670  131676      49  131685  131688      47
  131682  131685      49  131682  131688      49  131697  131700      47  131694
  131697      49  131694  131700      49  131709  131712      47  131706  131709
      49  131706  131712      49  131721  131724      47  131718  131721      49
  131718  131724      49  131733  131736      47  131730  131733      49  131730
  131736      49  131745  131748      47  131742  131745      49  131742  131748
      49  131757  131760      47  131754  131757      49  131754  131760      49
  131769  131772      47  131766  131769      49  131766  131772      49  131781
  131784      47  131778  131781      49  131778  131784      49  131793  131796
      47  131790  131793      49  131790  131796      49  131805  131808      47
  131802  131805      49  131802  131808      49  131817  131820      47  131814
  131817      49  131814  131820      49  131829  131832      47  131826  131829
      49  131826  131832      49  131841  131844      47  131838  131841      49
  131838  131844      49  131853  131856      47  131850  131853      49  131850
  131856      49  131865  131868      47  131862  131865      49  131862  131868
      49  131877  131880      47  131874  131877      49  131874  131880      49
  131889  131892      47  131886  131889      49  131886  131892      49  131901
  131904      47  131898  131901      49  131898  131904      49  131913  131916
      47  131910  131913      49  131910  131916      49  131925  131928      47
  131922  131925      49  131922  131928      49  131937  131940      47  131934
  131937      49  131934  131940      49  131949  131952      47  131946  131949
      49  131946  131952      49  131961  131964      47  131958  131961      49
  131958  131964      49  131973  131976      47  131970  131973      49  131970
  131976      49  131985  131988      47  131982  131985      49  131982  131988
      49  131997  132000      47  131994  131997      49  131994  132000      49
  132009  132012      47  132006  132009      49  132006  132012      49  132021
  132024      47  132018  132021      49  132018  132024      49  132033  132036
      47  132030  132033      49  132030  132036      49  132045  132048      47
  132042  132045      49  132042  132048      49  132057  132060      47  132054
  132057      49  132054  132060      49  132069  132072      47  132066  132069
      49  132066  132072      49  132081  132084      47  132078  132081      49
  132078  132084      49  132093  132096      47  132090  132093      49  132090
  132096      49  132105  132108      47  132102  132105      49  132102  132108
      49  132117  132120      47  132114  132117      49  132114  132120      49
  132129  132132      47  132126  132129      49  132126  132132      49  132141
  132144      47  132138  132141      49  132138  132144      49  132153  132156
      47  132150  132153      49  132150  132156      49  132165  132168      47
  132162  132165      49  132162  132168      49  132177  132180      47  132174
  132177      49  132174  132180      49  132189  132192      47  132186  132189
      49  132186  132192      49  132201  132204      47  132198  132201      49
  132198  132204      49  132213  132216      47  132210  132213      49  132210
  132216      49  132225  132228      47  132222  132225      49  132222  132228
      49  132237  132240      47  132234  132237      49  132234  132240      49
  132249  132252      47  132246  132249      49  132246  132252      49  132261
  132264      47  132258  132261      49  132258  132264      49  132273  132276
      47  132270  132273      49  132270  132276      49  132285  132288      47
  132282  132285      49  132282  132288      49  132297  132300      47  132294
  132297      49  132294  132300      49  132309  132312      47  132306  132309
      49  132306  132312      49  132321  132324      47  132318  132321      49
  132318  132324      49  132333  132336      47  132330  132333      49  132330
  132336      49  132345  132348      47  132342  132345      49  132342  132348
      49  132357  132360      47  132354  132357      49  132354  132360      49
  132369  132372      47  132366  132369      49  132366  132372      49  132381
  132384      47  132378  132381      49  132378  132384      49  132393  132396
      47  132390  132393      49  132390  132396      49  132405  132408      47
  132402  132405      49  132402  132408      49  132417  132420      47  132414
  132417      49  132414  132420      49  132429  132432      47  132426  132429
      49  132426  132432      49  132441  132444      47  132438  132441      49
  132438  132444      49  132453  132456      47  132450  132453      49  132450
  132456      49  132465  132468      47  132462  132465      49  132462  132468
      49  132477  132480      47  132474  132477      49  132474  132480      49
  132489  132492      47  132486  132489      49  132486  132492      49  132501
  132504      47  132498  132501      49  132498  132504      49  132513  132516
      47  132510  132513      49  132510  132516      49  132525  132528      47
  132522  132525      49  132522  132528      49  132537  132540      47  132534
  132537      49  132534  132540      49  132549  132552      47  132546  132549
      49  132546  132552      49  132561  132564      47  132558  132561      49
  132558  132564      49  132573  132576      47  132570  132573      49  132570
  132576      49  132585  132588      47  132582  132585      49  132582  132588
      49  132597  132600      47  132594  132597      49  132594  132600      49
  132609  132612      47  132606  132609      49  132606  132612      49  132621
  132624      47  132618  132621      49  132618  132624      49  132633  132636
      47  132630  132633      49  132630  132636      49  132645  132648      47
  132642  132645      49  132642  132648      49  132657  132660      47  132654
  132657      49  132654  132660      49  132669  132672      47  132666  132669
      49  132666  132672      49  132681  132684      47  132678  132681      49
  132678  132684      49  132693  132696      47  132690  132693      49  132690
  132696      49  132705  132708      47  132702  132705      49  132702  132708
      49  132717  132720      47  132714  132717      49  132714  132720      49
  132729  132732      47  132726  132729      49  132726  132732      49  132741
  132744      47  132738  132741      49  132738  132744      49  132753  132756
      47  132750  132753      49  132750  132756      49  132765  132768      47
  132762  132765      49  132762  132768      49  132777  132780      47  132774
  132777      49  132774  132780      49  132789  132792      47  132786  132789
      49  132786  132792      49  132801  132804      47  132798  132801      49
  132798  132804      49  132813  132816      47  132810  132813      49  132810
  132816      49  132825  132828      47  132822  132825      49  132822  132828
      49  132837  132840      47  132834  132837      49  132834  132840      49
  132849  132852      47  132846  132849      49  132846  132852      49  132861
  132864      47  132858  132861      49  132858  132864      49  132873  132876
      47  132870  132873      49  132870  132876      49  132885  132888      47
  132882  132885      49  132882  132888      49  132897  132900      47  132894
  132897      49  132894  132900      49  132909  132912      47  132906  132909
      49  132906  132912      49  132921  132924      47  132918  132921      49
  132918  132924      49  132933  132936      47  132930  132933      49  132930
  132936      49  132945  132948      47  132942  132945      49  132942  132948
      49  132957  132960      47  132954  132957      49  132954  132960      49
  132969  132972      47  132966  132969      49  132966  132972      49  132981
  132984      47  132978  132981      49  132978  132984      49  132993  132996
      47  132990  132993      49  132990  132996      49  133005  133008      47
  133002  133005      49  133002  133008      49  133017  133020      47  133014
  133017      49  133014  133020      49  133029  133032      47  133026  133029
      49  133026  133032      49  133041  133044      47  133038  133041      49
  133038  133044      49  133053  133056      47  133050  133053      49  133050
  133056      49  133065  133068      47  133062  133065      49  133062  133068
      49  133077  133080      47  133074  133077      49  133074  133080      49
  133089  133092      47  133086  133089      49  133086  133092      49  133101
  133104      47  133098  133101      49  133098  133104      49  133113  133116
      47  133110  133113      49  133110  133116      49  133125  133128      47
  133122  133125      49  133122  133128      49  133137  133140      47  133134
  133137      49  133134  133140      49  133149  133152      47  133146  133149
      49  133146  133152      49  133161  133164      47  133158  133161      49
  133158  133164      49  133173  133176      47  133170  133173      49  133170
  133176      49  133185  133188      47  133182  133185      49  133182  133188
      49  133197  133200      47  133194  133197      49  133194  133200      49
  133209  133212      47  133206  133209      49  133206  133212      49  133221
  133224      47  133218  133221      49  133218  133224      49  133233  133236
      47  133230  133233      49  133230  133236      49  133245  133248      47
  133242  133245      49  133242  133248      49  133257  133260      47  133254
  133257      49  133254  133260      49  133269  133272      47  133266  133269
      49  133266  133272      49  133281  133284      47  133278  133281      49
  133278  133284      49  133293  133296      47  133290  133293      49  133290
  133296      49  133305  133308      47  133302  133305      49  133302  133308
      49  133317  133320      47  133314  133317      49  133314  133320      49
  133329  133332      47  133326  133329      49  133326  133332      49  133341
  133344      47  133338  133341      49  133338  133344      49  133353  133356
      47  133350  133353      49  133350  133356      49  133365  133368      47
  133362  133365      49  133362  133368      49  133377  133380      47  133374
  133377      49  133374  133380      49  133389  133392      47  133386  133389
      49  133386  133392      49  133401  133404      47  133398  133401      49
  133398  133404      49  133413  133416      47  133410  133413      49  133410
  133416      49  133425  133428      47  133422  133425      49  133422  133428
      49  133437  133440      47  133434  133437      49  133434  133440      49
  133449  133452      47  133446  133449      49  133446  133452      49  133461
  133464      47  133458  133461      49  133458  133464      49  133473  133476
      47  133470  133473      49  133470  133476      49  133485  133488      47
  133482  133485      49  133482  133488      49  133497  133500      47  133494
  133497      49  133494  133500      49  133509  133512      47  133506  133509
      49  133506  133512      49  133521  133524      47  133518  133521      49
  133518  133524      49  133533  133536      47  133530  133533      49  133530
  133536      49  133545  133548      47  133542  133545      49  133542  133548
      49  133557  133560      47  133554  133557      49  133554  133560      49
  133569  133572      47  133566  133569      49  133566  133572      49  133581
  133584      47  133578  133581      49  133578  133584      49  133593  133596
      47  133590  133593      49  133590  133596      49  133605  133608      47
  133602  133605      49  133602  133608      49  133617  133620      47  133614
  133617      49  133614  133620      49  133629  133632      47  133626  133629
      49  133626  133632      49  133641  133644      47  133638  133641      49
  133638  133644      49  133653  133656      47  133650  133653      49  133650
  133656      49  133665  133668      47  133662  133665      49  133662  133668
      49  133677  133680      47  133674  133677      49  133674  133680      49
  133689  133692      47  133686  133689      49  133686  133692      49  133701
  133704      47  133698  133701      49  133698  133704      49  133713  133716
      47  133710  133713      49  133710  133716      49  133725  133728      47
  133722  133725      49  133722  133728      49  133737  133740      47  133734
  133737      49  133734  133740      49  133749  133752      47  133746  133749
      49  133746  133752      49  133761  133764      47  133758  133761      49
  133758  133764      49  133773  133776      47  133770  133773      49  133770
  133776      49  133785  133788      47  133782  133785      49  133782  133788
      49  133797  133800      47  133794  133797      49  133794  133800      49
  133809  133812      47  133806  133809      49  133806  133812      49  133821
  133824      47  133818  133821      49  133818  133824      49  133833  133836
      47  133830  133833      49  133830  133836      49  133845  133848      47
  133842  133845      49  133842  133848      49  133857  133860      47  133854
  133857      49  133854  133860      49  133869  133872      47  133866  133869
      49  133866  133872      49  133881  133884      47  133878  133881      49
  133878  133884      49  133893  133896      47  133890  133893      49  133890
  133896      49  133905  133908      47  133902  133905      49  133902  133908
      49  133917  133920      47  133914  133917      49  133914  133920      49
  133929  133932      47  133926  133929      49  133926  133932      49  133941
  133944      47  133938  133941      49  133938  133944      49  133953  133956
      47  133950  133953      49  133950  133956      49  133965  133968      47
  133962  133965      49  133962  133968      49  133977  133980      47  133974
  133977      49  133974  133980      49  133989  133992      47  133986  133989
      49  133986  133992      49  134001  134004      47  133998  134001      49
  133998  134004      49  134013  134016      47  134010  134013      49  134010
  134016      49  134025  134028      47  134022  134025      49  134022  134028
      49  134037  134040      47  134034  134037      49  134034  134040      49
  134049  134052      47  134046  134049      49  134046  134052      49  134061
  134064      47  134058  134061      49  134058  134064      49  134073  134076
      47  134070  134073      49  134070  134076      49  134085  134088      47
  134082  134085      49  134082  134088      49  134097  134100      47  134094
  134097      49  134094  134100      49  134109  134112      47  134106  134109
      49  134106  134112      49  134121  134124      47  134118  134121      49
  134118  134124      49  134133  134136      47  134130  134133      49  134130
  134136      49  134145  134148      47  134142  134145      49  134142  134148
      49  134157  134160      47  134154  134157      49  134154  134160      49
  134169  134172      47  134166  134169      49  134166  134172      49  134181
  134184      47  134178  134181      49  134178  134184      49  134193  134196
      47  134190  134193      49  134190  134196      49  134205  134208      47
  134202  134205      49  134202  134208      49  134217  134220      47  134214
  134217      49  134214  134220      49  134229  134232      47  134226  134229
      49  134226  134232      49  134241  134244      47  134238  134241      49
  134238  134244      49  134253  134256      47  134250  134253      49  134250
  134256      49  134265  134268      47  134262  134265      49  134262  134268
      49  134277  134280      47  134274  134277      49  134274  134280      49
  134289  134292      47  134286  134289      49  134286  134292      49  134301
  134304      47  134298  134301      49  134298  134304      49  134313  134316
      47  134310  134313      49  134310  134316      49  134325  134328      47
  134322  134325      49  134322  134328      49  134337  134340      47  134334
  134337      49  134334  134340      49  134349  134352      47  134346  134349
      49  134346  134352      49  134361  134364      47  134358  134361      49
  134358  134364      49  134373  134376      47  134370  134373      49  134370
  134376      49  134385  134388      47  134382  134385      49  134382  134388
      49  134397  134400      47  134394  134397      49  134394  134400      49
  134409  134412      47  134406  134409      49  134406  134412      49  134421
  134424      47  134418  134421      49  134418  134424      49  134433  134436
      47  134430  134433      49  134430  134436      49  134445  134448      47
  134442  134445      49  134442  134448      49  134457  134460      47  134454
  134457      49  134454  134460      49  134469  134472      47  134466  134469
      49  134466  134472      49  134481  134484      47  134478  134481      49
  134478  134484      49  134493  134496      47  134490  134493      49  134490
  134496      49  134505  134508      47  134502  134505      49  134502  134508
      49  134517  134520      47  134514  134517      49  134514  134520      49
  134529  134532      47  134526  134529      49  134526  134532      49  134541
  134544      47  134538  134541      49  134538  134544      49  134553  134556
      47  134550  134553      49  134550  134556      49  134565  134568      47
  134562  134565      49  134562  134568      49  134577  134580      47  134574
  134577      49  134574  134580      49  134589  134592      47  134586  134589
      49  134586  134592      49  134601  134604      47  134598  134601      49
  134598  134604      49  134613  134616      47  134610  134613      49  134610
  134616      49  134625  134628      47  134622  134625      49  134622  134628
      49  134637  134640      47  134634  134637      49  134634  134640      49
  134649  134652      47  134646  134649      49  134646  134652      49  134661
  134664      47  134658  134661      49  134658  134664      49  134673  134676
      47  134670  134673      49  134670  134676      49  134685  134688      47
  134682  134685      49  134682  134688      49  134697  134700      47  134694
  134697      49  134694  134700      49  134709  134712      47  134706  134709
      49  134706  134712      49  134721  134724      47  134718  134721      49
  134718  134724      49  134733  134736      47  134730  134733      49  134730
  134736      49  134745  134748      47  134742  134745      49  134742  134748
      49  134757  134760      47  134754  134757      49  134754  134760      49
  134769  134772      47  134766  134769      49  134766  134772      49  134781
  134784      47  134778  134781      49  134778  134784      49  134793  134796
      47  134790  134793      49  134790  134796      49  134805  134808      47
  134802  134805      49  134802  134808      49  134817  134820      47  134814
  134817      49  134814  134820      49  134829  134832      47  134826  134829
      49  134826  134832      49  134841  134844      47  134838  134841      49
  134838  134844      49  134853  134856      47  134850  134853      49  134850
  134856      49  134865  134868      47  134862  134865      49  134862  134868
      49  134877  134880      47  134874  134877      49  134874  134880      49
  134889  134892      47  134886  134889      49  134886  134892      49  134901
  134904      47  134898  134901      49  134898  134904      49  134913  134916
      47  134910  134913      49  134910  134916      49  134925  134928      47
  134922  134925      49  134922  134928      49  134937  134940      47  134934
  134937      49  134934  134940      49  134949  134952      47  134946  134949
      49  134946  134952      49  134961  134964      47  134958  134961      49
  134958  134964      49  134973  134976      47  134970  134973      49  134970
  134976      49  134985  134988      47  134982  134985      49  134982  134988
      49  134997  135000      47  134994  134997      49  134994  135000      49
  135009  135012      47  135006  135009      49  135006  135012      49  135021
  135024      47  135018  135021      49  135018  135024      49  135033  135036
      47  135030  135033      49  135030  135036      49  135045  135048      47
  135042  135045      49  135042  135048      49  135057  135060      47  135054
  135057      49  135054  135060      49  135069  135072      47  135066  135069
      49  135066  135072      49  135081  135084      47  135078  135081      49
  135078  135084      49  135093  135096      47  135090  135093      49  135090
  135096      49  135105  135108      47  135102  135105      49  135102  135108
      49  135117  135120      47  135114  135117      49  135114  135120      49
  135129  135132      47  135126  135129      49  135126  135132      49  135141
  135144      47  135138  135141      49  135138  135144      49  135153  135156
      47  135150  135153      49  135150  135156      49  135165  135168      47
  135162  135165      49  135162  135168      49  135177  135180      47  135174
  135177      49  135174  135180      49  135189  135192      47  135186  135189
      49  135186  135192      49  135201  135204      47  135198  135201      49
  135198  135204      49  135213  135216      47  135210  135213      49  135210
  135216      49  135225  135228      47  135222  135225      49  135222  135228
      49  135237  135240      47  135234  135237      49  135234  135240      49
  135249  135252      47  135246  135249      49  135246  135252      49  135261
  135264      47  135258  135261      49  135258  135264      49  135273  135276
      47  135270  135273      49  135270  135276      49  135285  135288      47
  135282  135285      49  135282  135288      49  135297  135300      47  135294
  135297      49  135294  135300      49  135309  135312      47  135306  135309
      49  135306  135312      49  135321  135324      47  135318  135321      49
  135318  135324      49  135333  135336      47  135330  135333      49  135330
  135336      49  135345  135348      47  135342  135345      49  135342  135348
      49  135357  135360      47  135354  135357      49  135354  135360      49
  135369  135372      47  135366  135369      49  135366  135372      49  135381
  135384      47  135378  135381      49  135378  135384      49  135393  135396
      47  135390  135393      49  135390  135396      49  135405  135408      47
  135402  135405      49  135402  135408      49  135417  135420      47  135414
  135417      49  135414  135420      49  135429  135432      47  135426  135429
      49  135426  135432      49  135441  135444      47  135438  135441      49
  135438  135444      49  135453  135456      47  135450  135453      49  135450
  135456      49  135465  135468      47  135462  135465      49  135462  135468
      49  135477  135480      47  135474  135477      49  135474  135480      49
  135489  135492      47  135486  135489      49  135486  135492      49  135501
  135504      47  135498  135501      49  135498  135504      49  135513  135516
      47  135510  135513      49  135510  135516      49  135525  135528      47
  135522  135525      49  135522  135528      49  135537  135540      47  135534
  135537      49  135534  135540      49  135549  135552      47  135546  135549
      49  135546  135552      49  135561  135564      47  135558  135561      49
  135558  135564      49  135573  135576      47  135570  135573      49  135570
  135576      49  135585  135588      47  135582  135585      49  135582  135588
      49  135597  135600      47  135594  135597      49  135594  135600      49
  135609  135612      47  135606  135609      49  135606  135612      49  135621
  135624      47  135618  135621      49  135618  135624      49  135633  135636
      47  135630  135633      49  135630  135636      49  135645  135648      47
  135642  135645      49  135642  135648      49  135657  135660      47  135654
  135657      49  135654  135660      49  135669  135672      47  135666  135669
      49  135666  135672      49  135681  135684      47  135678  135681      49
  135678  135684      49  135693  135696      47  135690  135693      49  135690
  135696      49  135705  135708      47  135702  135705      49  135702  135708
      49  135717  135720      47  135714  135717      49  135714  135720      49
  135729  135732      47  135726  135729      49  135726  135732      49  135741
  135744      47  135738  135741      49  135738  135744      49  135753  135756
      47  135750  135753      49  135750  135756      49  135765  135768      47
  135762  135765      49  135762  135768      49  135777  135780      47  135774
  135777      49  135774  135780      49  135789  135792      47  135786  135789
      49  135786  135792      49  135801  135804      47  135798  135801      49
  135798  135804      49  135813  135816      47  135810  135813      49  135810
  135816      49  135825  135828      47  135822  135825      49  135822  135828
      49  135837  135840      47  135834  135837      49  135834  135840      49
  135849  135852      47  135846  135849      49  135846  135852      49  135861
  135864      47  135858  135861      49  135858  135864      49  135873  135876
      47  135870  135873      49  135870  135876      49  135885  135888      47
  135882  135885      49  135882  135888      49  135897  135900      47  135894
  135897      49  135894  135900      49  135909  135912      47  135906  135909
      49  135906  135912      49  135921  135924      47  135918  135921      49
  135918  135924      49  135933  135936      47  135930  135933      49  135930
  135936      49  135945  135948      47  135942  135945      49  135942  135948
      49  135957  135960      47  135954  135957      49  135954  135960      49
  135969  135972      47  135966  135969      49  135966  135972      49  135981
  135984      47  135978  135981      49  135978  135984      49  135993  135996
      47  135990  135993      49  135990  135996      49  136005  136008      47
  136002  136005      49  136002  136008      49  136017  136020      47  136014
  136017      49  136014  136020      49  136029  136032      47  136026  136029
      49  136026  136032      49  136041  136044      47  136038  136041      49
  136038  136044      49  136053  136056      47  136050  136053      49  136050
  136056      49  136065  136068      47  136062  136065      49  136062  136068
      49  136077  136080      47  136074  136077      49  136074  136080      49
  136089  136092      47  136086  136089      49  136086  136092      49  136101
  136104      47  136098  136101      49  136098  136104      49  136113  136116
      47  136110  136113      49  136110  136116      49  136125  136128      47
  136122  136125      49  136122  136128      49  136137  136140      47  136134
  136137      49  136134  136140      49  136149  136152      47  136146  136149
      49  136146  136152      49  136161  136164      47  136158  136161      49
  136158  136164      49  136173  136176      47  136170  136173      49  136170
  136176      49  136185  136188      47  136182  136185      49  136182  136188
      49  136197  136200      47  136194  136197      49  136194  136200      49
  136209  136212      47  136206  136209      49  136206  136212      49  136221
  136224      47  136218  136221      49  136218  136224      49  136233  136236
      47  136230  136233      49  136230  136236      49  136245  136248      47
  136242  136245      49  136242  136248      49  136257  136260      47  136254
  136257      49  136254  136260      49  136269  136272      47  136266  136269
      49  136266  136272      49  136281  136284      47  136278  136281      49
  136278  136284      49  136293  136296      47  136290  136293      49  136290
  136296      49  136305  136308      47  136302  136305      49  136302  136308
      49  136317  136320      47  136314  136317      49  136314  136320      49
  136329  136332      47  136326  136329      49  136326  136332      49  136341
  136344      47  136338  136341      49  136338  136344      49  136353  136356
      47  136350  136353      49  136350  136356      49  136365  136368      47
  136362  136365      49  136362  136368      49  136377  136380      47  136374
  136377      49  136374  136380      49  136389  136392      47  136386  136389
      49  136386  136392      49  136401  136404      47  136398  136401      49
  136398  136404      49  136413  136416      47  136410  136413      49  136410
  136416      49  136425  136428      47  136422  136425      49  136422  136428
      49  136437  136440      47  136434  136437      49  136434  136440      49
  136449  136452      47  136446  136449      49  136446  136452      49  136461
  136464      47  136458  136461      49  136458  136464      49  136473  136476
      47  136470  136473      49  136470  136476      49  136485  136488      47
  136482  136485      49  136482  136488      49  136497  136500      47  136494
  136497      49  136494  136500      49  136509  136512      47  136506  136509
      49  136506  136512      49  136521  136524      47  136518  136521      49
  136518  136524      49  136533  136536      47  136530  136533      49  136530
  136536      49  136545  136548      47  136542  136545      49  136542  136548
      49  136557  136560      47  136554  136557      49  136554  136560      49
  136569  136572      47  136566  136569      49  136566  136572      49  136581
  136584      47  136578  136581      49  136578  136584      49  136593  136596
      47  136590  136593      49  136590  136596      49  136605  136608      47
  136602  136605      49  136602  136608      49  136617  136620      47  136614
  136617      49  136614  136620      49  136629  136632      47  136626  136629
      49  136626  136632      49  136641  136644      47  136638  136641      49
  136638  136644      49  136653  136656      47  136650  136653      49  136650
  136656      49  136665  136668      47  136662  136665      49  136662  136668
      49  136677  136680      47  136674  136677      49  136674  136680      49
  136689  136692      47  136686  136689      49  136686  136692      49  136701
  136704      47  136698  136701      49  136698  136704      49  136713  136716
      47  136710  136713      49  136710  136716      49  136725  136728      47
  136722  136725      49  136722  136728      49  136737  136740      47  136734
  136737      49  136734  136740      49  136749  136752      47  136746  136749
      49  136746  136752      49  136761  136764      47  136758  136761      49
  136758  136764      49  136773  136776      47  136770  136773      49  136770
  136776      49  136785  136788      47  136782  136785      49  136782  136788
      49  136797  136800      47  136794  136797      49  136794  136800      49
  136809  136812      47  136806  136809      49  136806  136812      49  136821
  136824      47  136818  136821      49  136818  136824      49  136833  136836
      47  136830  136833      49  136830  136836      49  136845  136848      47
  136842  136845      49  136842  136848      49  136857  136860      47  136854
  136857      49  136854  136860      49  136869  136872      47  136866  136869
      49  136866  136872      49  136881  136884      47  136878  136881      49
  136878  136884      49  136893  136896      47  136890  136893      49  136890
  136896      49  136905  136908      47  136902  136905      49  136902  136908
      49  136917  136920      47  136914  136917      49  136914  136920      49
  136929  136932      47  136926  136929      49  136926  136932      49  136941
  136944      47  136938  136941      49  136938  136944      49  136953  136956
      47  136950  136953      49  136950  136956      49  136965  136968      47
  136962  136965      49  136962  136968      49  136977  136980      47  136974
  136977      49  136974  136980      49  136989  136992      47  136986  136989
      49  136986  136992      49  137001  137004      47  136998  137001      49
  136998  137004      49  137013  137016      47  137010  137013      49  137010
  137016      49  137025  137028      47  137022  137025      49  137022  137028
      49  137037  137040      47  137034  137037      49  137034  137040      49
  137049  137052      47  137046  137049      49  137046  137052      49  137061
  137064      47  137058  137061      49  137058  137064      49  137073  137076
      47  137070  137073      49  137070  137076      49  137085  137088      47
  137082  137085      49  137082  137088      49  137097  137100      47  137094
  137097      49  137094  137100      49  137109  137112      47  137106  137109
      49  137106  137112      49  137121  137124      47  137118  137121      49
  137118  137124      49  137133  137136      47  137130  137133      49  137130
  137136      49  137145  137148      47  137142  137145      49  137142  137148
      49  137157  137160      47  137154  137157      49  137154  137160      49
  137169  137172      47  137166  137169      49  137166  137172      49  137181
  137184      47  137178  137181      49  137178  137184      49  137193  137196
      47  137190  137193      49  137190  137196      49  137205  137208      47
  137202  137205      49  137202  137208      49  137217  137220      47  137214
  137217      49  137214  137220      49  137229  137232      47  137226  137229
      49  137226  137232      49  137241  137244      47  137238  137241      49
  137238  137244      49  137253  137256      47  137250  137253      49  137250
  137256      49  137265  137268      47  137262  137265      49  137262  137268
      49  137277  137280      47  137274  137277      49  137274  137280      49
  137289  137292      47  137286  137289      49  137286  137292      49  137301
  137304      47  137298  137301      49  137298  137304      49  137313  137316
      47  137310  137313      49  137310  137316      49  137325  137328      47
  137322  137325      49  137322  137328      49  137337  137340      47  137334
  137337      49  137334  137340      49  137349  137352      47  137346  137349
      49  137346  137352      49  137361  137364      47  137358  137361      49
  137358  137364      49  137373  137376      47  137370  137373      49  137370
  137376      49  137385  137388      47  137382  137385      49  137382  137388
      49  137397  137400      47  137394  137397      49  137394  137400      49
  137409  137412      47  137406  137409      49  137406  137412      49  137421
  137424      47  137418  137421      49  137418  137424      49  137433  137436
      47  137430  137433      49  137430  137436      49  137445  137448      47
  137442  137445      49  137442  137448      49  137457  137460      47  137454
  137457      49  137454  137460      49  137469  137472      47  137466  137469
      49  137466  137472      49  137481  137484      47  137478  137481      49
  137478  137484      49  137493  137496      47  137490  137493      49  137490
  137496      49  137505  137508      47  137502  137505      49  137502  137508
      49  137517  137520      47  137514  137517      49  137514  137520      49
  137529  137532      47  137526  137529      49  137526  137532      49  137541
  137544      47  137538  137541      49  137538  137544      49  137553  137556
      47  137550  137553      49  137550  137556      49  137565  137568      47
  137562  137565      49  137562  137568      49  137577  137580      47  137574
  137577      49  137574  137580      49  137589  137592      47  137586  137589
      49  137586  137592      49  137601  137604      47  137598  137601      49
  137598  137604      49  137613  137616      47  137610  137613      49  137610
  137616      49  137625  137628      47  137622  137625      49  137622  137628
      49  137637  137640      47  137634  137637      49  137634  137640      49
  137649  137652      47  137646  137649      49  137646  137652      49  137661
  137664      47  137658  137661      49  137658  137664      49  137673  137676
      47  137670  137673      49  137670  137676      49  137685  137688      47
  137682  137685      49  137682  137688      49  137697  137700      47  137694
  137697      49  137694  137700      49  137709  137712      47  137706  137709
      49  137706  137712      49  137721  137724      47  137718  137721      49
  137718  137724      49  137733  137736      47  137730  137733      49  137730
  137736      49  137745  137748      47  137742  137745      49  137742  137748
      49  137757  137760      47  137754  137757      49  137754  137760      49
  137769  137772      47  137766  137769      49  137766  137772      49  137781
  137784      47  137778  137781      49  137778  137784      49  137793  137796
      47  137790  137793      49  137790  137796      49  137805  137808      47
  137802  137805      49  137802  137808      49  137817  137820      47  137814
  137817      49  137814  137820      49  137829  137832      47  137826  137829
      49  137826  137832      49  137841  137844      47  137838  137841      49
  137838  137844      49  137853  137856      47  137850  137853      49  137850
  137856      49  137865  137868      47  137862  137865      49  137862  137868
      49  137877  137880      47  137874  137877      49  137874  137880      49
  137889  137892      47  137886  137889      49  137886  137892      49  137901
  137904      47  137898  137901      49  137898  137904      49  137913  137916
      47  137910  137913      49  137910  137916      49  137925  137928      47
  137922  137925      49  137922  137928      49  137937  137940      47  137934
  137937      49  137934  137940      49  137949  137952      47  137946  137949
      49  137946  137952      49  137961  137964      47  137958  137961      49
  137958  137964      49  137973  137976      47  137970  137973      49  137970
  137976      49  137985  137988      47  137982  137985      49  137982  137988
      49  137997  138000      47  137994  137997      49  137994  138000      49
  138009  138012      47  138006  138009      49  138006  138012      49  138021
  138024      47  138018  138021      49  138018  138024      49  138033  138036
      47  138030  138033      49  138030  138036      49  138045  138048      47
  138042  138045      49  138042  138048      49  138057  138060      47  138054
  138057      49  138054  138060      49  138069  138072      47  138066  138069
      49  138066  138072      49  138081  138084      47  138078  138081      49
  138078  138084      49  138093  138096      47  138090  138093      49  138090
  138096      49  138105  138108      47  138102  138105      49  138102  138108
      49  138117  138120      47  138114  138117      49  138114  138120      49
  138129  138132      47  138126  138129      49  138126  138132      49  138141
  138144      47  138138  138141      49  138138  138144      49  138153  138156
      47  138150  138153      49  138150  138156      49  138165  138168      47
  138162  138165      49  138162  138168      49  138177  138180      47  138174
  138177      49  138174  138180      49  138189  138192      47  138186  138189
      49  138186  138192      49  138201  138204      47  138198  138201      49
  138198  138204      49  138213  138216      47  138210  138213      49  138210
  138216      49  138225  138228      47  138222  138225      49  138222  138228
      49  138237  138240      47  138234  138237      49  138234  138240      49
  138249  138252      47  138246  138249      49  138246  138252      49  138261
  138264      47  138258  138261      49  138258  138264      49  138273  138276
      47  138270  138273      49  138270  138276      49  138285  138288      47
  138282  138285      49  138282  138288      49  138297  138300      47  138294
  138297      49  138294  138300      49  138309  138312      47  138306  138309
      49  138306  138312      49  138321  138324      47  138318  138321      49
  138318  138324      49  138333  138336      47  138330  138333      49  138330
  138336      49  138345  138348      47  138342  138345      49  138342  138348
      49  138357  138360      47  138354  138357      49  138354  138360      49
  138369  138372      47  138366  138369      49  138366  138372      49  138381
  138384      47  138378  138381      49  138378  138384      49  138393  138396
      47  138390  138393      49  138390  138396      49  138405  138408      47
  138402  138405      49  138402  138408      49  138417  138420      47  138414
  138417      49  138414  138420      49  138429  138432      47  138426  138429
      49  138426  138432      49  138441  138444      47  138438  138441      49
  138438  138444      49  138453  138456      47  138450  138453      49  138450
  138456      49  138465  138468      47  138462  138465      49  138462  138468
      49  138477  138480      47  138474  138477      49  138474  138480      49
  138489  138492      47  138486  138489      49  138486  138492      49  138501
  138504      47  138498  138501      49  138498  138504      49  138513  138516
      47  138510  138513      49  138510  138516      49  138525  138528      47
  138522  138525      49  138522  138528      49  138537  138540      47  138534
  138537      49  138534  138540      49  138549  138552      47  138546  138549
      49  138546  138552      49  138561  138564      47  138558  138561      49
  138558  138564      49  138573  138576      47  138570  138573      49  138570
  138576      49  138585  138588      47  138582  138585      49  138582  138588
      49  138597  138600      47  138594  138597      49  138594  138600      49
  138609  138612      47  138606  138609      49  138606  138612      49  138621
  138624      47  138618  138621      49  138618  138624      49  138633  138636
      47  138630  138633      49  138630  138636      49  138645  138648      47
  138642  138645      49  138642  138648      49  138657  138660      47  138654
  138657      49  138654  138660      49  138669  138672      47  138666  138669
      49  138666  138672      49  138681  138684      47  138678  138681      49
  138678  138684      49  138693  138696      47  138690  138693      49  138690
  138696      49  138705  138708      47  138702  138705      49  138702  138708
      49  138717  138720      47  138714  138717      49  138714  138720      49
  138729  138732      47  138726  138729      49  138726  138732      49  138741
  138744      47  138738  138741      49  138738  138744      49  138753  138756
      47  138750  138753      49  138750  138756      49  138765  138768      47
  138762  138765      49  138762  138768      49  138777  138780      47  138774
  138777      49  138774  138780      49  138789  138792      47  138786  138789
      49  138786  138792      49  138801  138804      47  138798  138801      49
  138798  138804      49  138813  138816      47  138810  138813      49  138810
  138816      49  138825  138828      47  138822  138825      49  138822  138828
      49  138837  138840      47  138834  138837      49  138834  138840      49
  138849  138852      47  138846  138849      49  138846  138852      49  138861
  138864      47  138858  138861      49  138858  138864      49  138873  138876
      47  138870  138873      49  138870  138876      49  138885  138888      47
  138882  138885      49  138882  138888      49  138897  138900      47  138894
  138897      49  138894  138900      49  138909  138912      47  138906  138909
      49  138906  138912      49  138921  138924      47  138918  138921      49
  138918  138924      49  138933  138936      47  138930  138933      49  138930
  138936      49  138945  138948      47  138942  138945      49  138942  138948
      49  138957  138960      47  138954  138957      49  138954  138960      49
  138969  138972      47  138966  138969      49  138966  138972      49  138981
  138984      47  138978  138981      49  138978  138984      49  138993  138996
      47  138990  138993      49  138990  138996      49  139005  139008      47
  139002  139005      49  139002  139008      49  139017  139020      47  139014
  139017      49  139014  139020      49  139029  139032      47  139026  139029
      49  139026  139032      49  139041  139044      47  139038  139041      49
  139038  139044      49  139053  139056      47  139050  139053      49  139050
  139056      49  139065  139068      47  139062  139065      49  139062  139068
      49  139077  139080      47  139074  139077      49  139074  139080      49
  139089  139092      47  139086  139089      49  139086  139092      49  139101
  139104      47  139098  139101      49  139098  139104      49  139113  139116
      47  139110  139113      49  139110  139116      49  139125  139128      47
  139122  139125      49  139122  139128      49  139137  139140      47  139134
  139137      49  139134  139140      49  139149  139152      47  139146  139149
      49  139146  139152      49  139161  139164      47  139158  139161      49
  139158  139164      49  139173  139176      47  139170  139173      49  139170
  139176      49  139185  139188      47  139182  139185      49  139182  139188
      49  139197  139200      47  139194  139197      49  139194  139200      49
  139209  139212      47  139206  139209      49  139206  139212      49  139221
  139224      47  139218  139221      49  139218  139224      49  139233  139236
      47  139230  139233      49  139230  139236      49  139245  139248      47
  139242  139245      49  139242  139248      49  139257  139260      47  139254
  139257      49  139254  139260      49  139269  139272      47  139266  139269
      49  139266  139272      49  139281  139284      47  139278  139281      49
  139278  139284      49  139293  139296      47  139290  139293      49  139290
  139296      49  139305  139308      47  139302  139305      49  139302  139308
      49  139317  139320      47  139314  139317      49  139314  139320      49
  139329  139332      47  139326  139329      49  139326  139332      49  139341
  139344      47  139338  139341      49  139338  139344      49  139353  139356
      47  139350  139353      49  139350  139356      49  139365  139368      47
  139362  139365      49  139362  139368      49  139377  139380      47  139374
  139377      49  139374  139380      49  139389  139392      47  139386  139389
      49  139386  139392      49  139401  139404      47  139398  139401      49
  139398  139404      49  139413  139416      47  139410  139413      49  139410
  139416      49  139425  139428      47  139422  139425      49  139422  139428
      49  139437  139440      47  139434  139437      49  139434  139440      49
  139449  139452      47  139446  139449      49  139446  139452      49  139461
  139464      47  139458  139461      49  139458  139464      49  139473  139476
      47  139470  139473      49  139470  139476      49  139485  139488      47
  139482  139485      49  139482  139488      49  139497  139500      47  139494
  139497      49  139494  139500      49  139509  139512      47  139506  139509
      49  139506  139512      49  139521  139524      47  139518  139521      49
  139518  139524      49  139533  139536      47  139530  139533      49  139530
  139536      49  139545  139548      47  139542  139545      49  139542  139548
      49  139557  139560      47  139554  139557      49  139554  139560      49
  139569  139572      47  139566  139569      49  139566  139572      49  139581
  139584      47  139578  139581      49  139578  139584      49  139593  139596
      47  139590  139593      49  139590  139596      49  139605  139608      47
  139602  139605      49  139602  139608      49  139617  139620      47  139614
  139617      49  139614  139620      49  139629  139632      47  139626  139629
      49  139626  139632      49  139641  139644      47  139638  139641      49
  139638  139644      49  139653  139656      47  139650  139653      49  139650
  139656      49  139665  139668      47  139662  139665      49  139662  139668
      49  139677  139680      47  139674  139677      49  139674  139680      49
  139689  139692      47  139686  139689      49  139686  139692      49  139701
  139704      47  139698  139701      49  139698  139704      49  139713  139716
      47  139710  139713      49  139710  139716      49  139725  139728      47
  139722  139725      49  139722  139728      49  139737  139740      47  139734
  139737      49  139734  139740      49  139749  139752      47  139746  139749
      49  139746  139752      49  139761  139764      47  139758  139761      49
  139758  139764      49  139773  139776      47  139770  139773      49  139770
  139776      49  139785  139788      47  139782  139785      49  139782  139788
      49  139797  139800      47  139794  139797      49  139794  139800      49
  139809  139812      47  139806  139809      49  139806  139812      49  139821
  139824      47  139818  139821      49  139818  139824      49  139833  139836
      47  139830  139833      49  139830  139836      49  139845  139848      47
  139842  139845      49  139842  139848      49  139857  139860      47  139854
  139857      49  139854  139860      49  139869  139872      47  139866  139869
      49  139866  139872      49  139881  139884      47  139878  139881      49
  139878  139884      49  139893  139896      47  139890  139893      49  139890
  139896      49  139905  139908      47  139902  139905      49  139902  139908
      49  139917  139920      47  139914  139917      49  139914  139920      49
  139929  139932      47  139926  139929      49  139926  139932      49  139941
  139944      47  139938  139941      49  139938  139944      49  139953  139956
      47  139950  139953      49  139950  139956      49  139965  139968      47
  139962  139965      49  139962  139968      49  139977  139980      47  139974
  139977      49  139974  139980      49  139989  139992      47  139986  139989
      49  139986  139992      49  140001  140004      47  139998  140001      49
  139998  140004      49  140013  140016      47  140010  140013      49  140010
  140016      49  140025  140028      47  140022  140025      49  140022  140028
      49  140037  140040      47  140034  140037      49  140034  140040      49
  140049  140052      47  140046  140049      49  140046  140052      49  140061
  140064      47  140058  140061      49  140058  140064      49  140073  140076
      47  140070  140073      49  140070  140076      49  140085  140088      47
  140082  140085      49  140082  140088      49  140097  140100      47  140094
  140097      49  140094  140100      49  140109  140112      47  140106  140109
      49  140106  140112      49  140121  140124      47  140118  140121      49
  140118  140124      49  140133  140136      47  140130  140133      49  140130
  140136      49  140145  140148      47  140142  140145      49  140142  140148
      49  140157  140160      47  140154  140157      49  140154  140160      49
  140169  140172      47  140166  140169      49  140166  140172      49  140181
  140184      47  140178  140181      49  140178  140184      49  140193  140196
      47  140190  140193      49  140190  140196      49  140205  140208      47
  140202  140205      49  140202  140208      49  140217  140220      47  140214
  140217      49  140214  140220      49  140229  140232      47  140226  140229
      49  140226  140232      49  140241  140244      47  140238  140241      49
  140238  140244      49  140253  140256      47  140250  140253      49  140250
  140256      49  140265  140268      47  140262  140265      49  140262  140268
      49  140277  140280      47  140274  140277      49  140274  140280      49
  140289  140292      47  140286  140289      49  140286  140292      49  140301
  140304      47  140298  140301      49  140298  140304      49  140313  140316
      47  140310  140313      49  140310  140316      49  140325  140328      47
  140322  140325      49  140322  140328      49  140337  140340      47  140334
  140337      49  140334  140340      49  140349  140352      47  140346  140349
      49  140346  140352      49  140361  140364      47  140358  140361      49
  140358  140364      49  140373  140376      47  140370  140373      49  140370
  140376      49  140385  140388      47  140382  140385      49  140382  140388
      49  140397  140400      47  140394  140397      49  140394  140400      49
  140409  140412      47  140406  140409      49  140406  140412      49  140421
  140424      47  140418  140421      49  140418  140424      49  140433  140436
      47  140430  140433      49  140430  140436      49  140445  140448      47
  140442  140445      49  140442  140448      49  140457  140460      47  140454
  140457      49  140454  140460      49  140469  140472      47  140466  140469
      49  140466  140472      49  140481  140484      47  140478  140481      49
  140478  140484      49  140493  140496      47  140490  140493      49  140490
  140496      49  140505  140508      47  140502  140505      49  140502  140508
      49  140517  140520      47  140514  140517      49  140514  140520      49
  140529  140532      47  140526  140529      49  140526  140532      49  140541
  140544      47  140538  140541      49  140538  140544      49  140553  140556
      47  140550  140553      49  140550  140556      49  140565  140568      47
  140562  140565      49  140562  140568      49  140577  140580      47  140574
  140577      49  140574  140580      49  140589  140592      47  140586  140589
      49  140586  140592      49  140601  140604      47  140598  140601      49
  140598  140604      49  140613  140616      47  140610  140613      49  140610
  140616      49  140625  140628      47  140622  140625      49  140622  140628
      49  140637  140640      47  140634  140637      49  140634  140640      49
  140649  140652      47  140646  140649      49  140646  140652      49  140661
  140664      47  140658  140661      49  140658  140664      49  140673  140676
      47  140670  140673      49  140670  140676      49  140685  140688      47
  140682  140685      49  140682  140688      49  140697  140700      47  140694
  140697      49  140694  140700      49  140709  140712      47  140706  140709
      49  140706  140712      49  140721  140724      47  140718  140721      49
  140718  140724      49  140733  140736      47  140730  140733      49  140730
  140736      49  140745  140748      47  140742  140745      49  140742  140748
      49  140757  140760      47  140754  140757      49  140754  140760      49
  140769  140772      47  140766  140769      49  140766  140772      49  140781
  140784      47  140778  140781      49  140778  140784      49  140793  140796
      47  140790  140793      49  140790  140796      49  140805  140808      47
  140802  140805      49  140802  140808      49  140817  140820      47  140814
  140817      49  140814  140820      49  140829  140832      47  140826  140829
      49  140826  140832      49  140841  140844      47  140838  140841      49
  140838  140844      49  140853  140856      47  140850  140853      49  140850
  140856      49  140865  140868      47  140862  140865      49  140862  140868
      49  140877  140880      47  140874  140877      49  140874  140880      49
  140889  140892      47  140886  140889      49  140886  140892      49  140901
  140904      47  140898  140901      49  140898  140904      49  140913  140916
      47  140910  140913      49  140910  140916      49  140925  140928      47
  140922  140925      49  140922  140928      49  140937  140940      47  140934
  140937      49  140934  140940      49  140949  140952      47  140946  140949
      49  140946  140952      49  140961  140964      47  140958  140961      49
  140958  140964      49  140973  140976      47  140970  140973      49  140970
  140976      49  140985  140988      47  140982  140985      49  140982  140988
      49  140997  141000      47  140994  140997      49  140994  141000      49
  141009  141012      47  141006  141009      49  141006  141012      49  141021
  141024      47  141018  141021      49  141018  141024      49  141033  141036
      47  141030  141033      49  141030  141036      49  141045  141048      47
  141042  141045      49  141042  141048      49  141057  141060      47  141054
  141057      49  141054  141060      49  141069  141072      47  141066  141069
      49  141066  141072      49  141081  141084      47  141078  141081      49
  141078  141084      49  141093  141096      47  141090  141093      49  141090
  141096      49  141105  141108      47  141102  141105      49  141102  141108
      49  141117  141120      47  141114  141117      49  141114  141120      49
  141129  141132      47  141126  141129      49  141126  141132      49  141141
  141144      47  141138  141141      49  141138  141144      49  141153  141156
      47  141150  141153      49  141150  141156      49  141165  141168      47
  141162  141165      49  141162  141168      49  141177  141180      47  141174
  141177      49  141174  141180      49  141189  141192      47  141186  141189
      49  141186  141192      49  141201  141204      47  141198  141201      49
  141198  141204      49  141213  141216      47  141210  141213      49  141210
  141216      49  141225  141228      47  141222  141225      49  141222  141228
      49  141237  141240      47  141234  141237      49  141234  141240      49
  141249  141252      47  141246  141249      49  141246  141252      49  141261
  141264      47  141258  141261      49  141258  141264      49  141273  141276
      47  141270  141273      49  141270  141276      49  141285  141288      47
  141282  141285      49  141282  141288      49  141297  141300      47  141294
  141297      49  141294  141300      49  141309  141312      47  141306  141309
      49  141306  141312      49  141321  141324      47  141318  141321      49
  141318  141324      49  141333  141336      47  141330  141333      49  141330
  141336      49  141345  141348      47  141342  141345      49  141342  141348
      49  141357  141360      47  141354  141357      49  141354  141360      49
  141369  141372      47  141366  141369      49  141366  141372      49  141381
  141384      47  141378  141381      49  141378  141384      49  141393  141396
      47  141390  141393      49  141390  141396      49  141405  141408      47
  141402  141405      49  141402  141408      49  141417  141420      47  141414
  141417      49  141414  141420      49  141429  141432      47  141426  141429
      49  141426  141432      49  141441  141444      47  141438  141441      49
  141438  141444      49  141453  141456      47  141450  141453      49  141450
  141456      49  141465  141468      47  141462  141465      49  141462  141468
      49  141477  141480      47  141474  141477      49  141474  141480      49
  141489  141492      47  141486  141489      49  141486  141492      49  141501
  141504      47  141498  141501      49  141498  141504      49  141513  141516
      47  141510  141513      49  141510  141516      49  141525  141528      47
  141522  141525      49  141522  141528      49  141537  141540      47  141534
  141537      49  141534  141540      49  141549  141552      47  141546  141549
      49  141546  141552      49  141561  141564      47  141558  141561      49
  141558  141564      49  141573  141576      47  141570  141573      49  141570
  141576      49  141585  141588      47  141582  141585      49  141582  141588
      49  141597  141600      47  141594  141597      49  141594  141600      49
  141609  141612      47  141606  141609      49  141606  141612      49  141621
  141624      47  141618  141621      49  141618  141624      49  141633  141636
      47  141630  141633      49  141630  141636      49  141645  141648      47
  141642  141645      49  141642  141648      49  141657  141660      47  141654
  141657      49  141654  141660      49  141669  141672      47  141666  141669
      49  141666  141672      49  141681  141684      47  141678  141681      49
  141678  141684      49  141693  141696      47  141690  141693      49  141690
  141696      49  141705  141708      47  141702  141705      49  141702  141708
      49  141717  141720      47  141714  141717      49  141714  141720      49
  141729  141732      47  141726  141729      49  141726  141732      49  141741
  141744      47  141738  141741      49  141738  141744      49  141753  141756
      47  141750  141753      49  141750  141756      49  141765  141768      47
  141762  141765      49  141762  141768      49  141777  141780      47  141774
  141777      49  141774  141780      49  141789  141792      47  141786  141789
      49  141786  141792      49  141801  141804      47  141798  141801      49
  141798  141804      49  141813  141816      47  141810  141813      49  141810
  141816      49  141825  141828      47  141822  141825      49  141822  141828
      49  141837  141840      47  141834  141837      49  141834  141840      49
  141849  141852      47  141846  141849      49  141846  141852      49  141861
  141864      47  141858  141861      49  141858  141864      49  141873  141876
      47  141870  141873      49  141870  141876      49  141885  141888      47
  141882  141885      49  141882  141888      49  141897  141900      47  141894
  141897      49  141894  141900      49  141909  141912      47  141906  141909
      49  141906  141912      49  141921  141924      47  141918  141921      49
  141918  141924      49  141933  141936      47  141930  141933      49  141930
  141936      49  141945  141948      47  141942  141945      49  141942  141948
      49  141957  141960      47  141954  141957      49  141954  141960      49
  141969  141972      47  141966  141969      49  141966  141972      49  141981
  141984      47  141978  141981      49  141978  141984      49  141993  141996
      47  141990  141993      49  141990  141996      49  142005  142008      47
  142002  142005      49  142002  142008      49  142017  142020      47  142014
  142017      49  142014  142020      49  142029  142032      47  142026  142029
      49  142026  142032      49  142041  142044      47  142038  142041      49
  142038  142044      49  142053  142056      47  142050  142053      49  142050
  142056      49  142065  142068      47  142062  142065      49  142062  142068
      49  142077  142080      47  142074  142077      49  142074  142080      49
  142089  142092      47  142086  142089      49  142086  142092      49  142101
  142104      47  142098  142101      49  142098  142104      49  142113  142116
      47  142110  142113      49  142110  142116      49  142125  142128      47
  142122  142125      49  142122  142128      49  142137  142140      47  142134
  142137      49  142134  142140      49  142149  142152      47  142146  142149
      49  142146  142152      49  142161  142164      47  142158  142161      49
  142158  142164      49  142173  142176      47  142170  142173      49  142170
  142176      49  142185  142188      47  142182  142185      49  142182  142188
      49  142197  142200      47  142194  142197      49  142194  142200      49
  142209  142212      47  142206  142209      49  142206  142212      49  142221
  142224      47  142218  142221      49  142218  142224      49  142233  142236
      47  142230  142233      49  142230  142236      49  142245  142248      47
  142242  142245      49  142242  142248      49  142257  142260      47  142254
  142257      49  142254  142260      49  142269  142272      47  142266  142269
      49  142266  142272      49  142281  142284      47  142278  142281      49
  142278  142284      49  142293  142296      47  142290  142293      49  142290
  142296      49  142305  142308      47  142302  142305      49  142302  142308
      49  142317  142320      47  142314  142317      49  142314  142320      49
  142329  142332      47  142326  142329      49  142326  142332      49  142341
  142344      47  142338  142341      49  142338  142344      49  142353  142356
      47  142350  142353      49  142350  142356      49  142365  142368      47
  142362  142365      49  142362  142368      49  142377  142380      47  142374
  142377      49  142374  142380      49  142389  142392      47  142386  142389
      49  142386  142392      49  142401  142404      47  142398  142401      49
  142398  142404      49  142413  142416      47  142410  142413      49  142410
  142416      49  142425  142428      47  142422  142425      49  142422  142428
      49  142437  142440      47  142434  142437      49  142434  142440      49
  142449  142452      47  142446  142449      49  142446  142452      49  142461
  142464      47  142458  142461      49  142458  142464      49  142473  142476
      47  142470  142473      49  142470  142476      49  142485  142488      47
  142482  142485      49  142482  142488      49  142497  142500      47  142494
  142497      49  142494  142500      49  142509  142512      47  142506  142509
      49  142506  142512      49  142521  142524      47  142518  142521      49
  142518  142524      49  142533  142536      47  142530  142533      49  142530
  142536      49  142545  142548      47  142542  142545      49  142542  142548
      49  142557  142560      47  142554  142557      49  142554  142560      49
  142569  142572      47  142566  142569      49  142566  142572      49  142581
  142584      47  142578  142581      49  142578  142584      49  142593  142596
      47  142590  142593      49  142590  142596      49  142605  142608      47
  142602  142605      49  142602  142608      49  142617  142620      47  142614
  142617      49  142614  142620      49  142629  142632      47  142626  142629
      49  142626  142632      49  142641  142644      47  142638  142641      49
  142638  142644      49  142653  142656      47  142650  142653      49  142650
  142656      49  142665  142668      47  142662  142665      49  142662  142668
      49  142677  142680      47  142674  142677      49  142674  142680      49
  142689  142692      47  142686  142689      49  142686  142692      49  142701
  142704      47  142698  142701      49  142698  142704      49  142713  142716
      47  142710  142713      49  142710  142716      49  142725  142728      47
  142722  142725      49  142722  142728      49  142737  142740      47  142734
  142737      49  142734  142740      49  142749  142752      47  142746  142749
      49  142746  142752      49  142761  142764      47  142758  142761      49
  142758  142764      49  142773  142776      47  142770  142773      49  142770
  142776      49  142785  142788      47  142782  142785      49  142782  142788
      49  142797  142800      47  142794  142797      49  142794  142800      49
  142809  142812      47  142806  142809      49  142806  142812      49  142821
  142824      47  142818  142821      49  142818  142824      49  142833  142836
      47  142830  142833      49  142830  142836      49  142845  142848      47
  142842  142845      49  142842  142848      49  142857  142860      47  142854
  142857      49  142854  142860      49  142869  142872      47  142866  142869
      49  142866  142872      49  142881  142884      47  142878  142881      49
  142878  142884      49  142893  142896      47  142890  142893      49  142890
  142896      49  142905  142908      47  142902  142905      49  142902  142908
      49  142917  142920      47  142914  142917      49  142914  142920      49
  142929  142932      47  142926  142929      49  142926  142932      49  142941
  142944      47  142938  142941      49  142938  142944      49  142953  142956
      47  142950  142953      49  142950  142956      49  142965  142968      47
  142962  142965      49  142962  142968      49  142977  142980      47  142974
  142977      49  142974  142980      49  142989  142992      47  142986  142989
      49  142986  142992      49  143001  143004      47  142998  143001      49
  142998  143004      49  143013  143016      47  143010  143013      49  143010
  143016      49  143025  143028      47  143022  143025      49  143022  143028
      49  143037  143040      47  143034  143037      49  143034  143040      49
  143049  143052      47  143046  143049      49  143046  143052      49  143061
  143064      47  143058  143061      49  143058  143064      49  143073  143076
      47  143070  143073      49  143070  143076      49  143085  143088      47
  143082  143085      49  143082  143088      49  143097  143100      47  143094
  143097      49  143094  143100      49  143109  143112      47  143106  143109
      49  143106  143112      49  143121  143124      47  143118  143121      49
  143118  143124      49  143133  143136      47  143130  143133      49  143130
  143136      49  143145  143148      47  143142  143145      49  143142  143148
      49  143157  143160      47  143154  143157      49  143154  143160      49
  143169  143172      47  143166  143169      49  143166  143172      49  143181
  143184      47  143178  143181      49  143178  143184      49  143193  143196
      47  143190  143193      49  143190  143196      49  143205  143208      47
  143202  143205      49  143202  143208      49  143217  143220      47  143214
  143217      49  143214  143220      49  143229  143232      47  143226  143229
      49  143226  143232      49  143241  143244      47  143238  143241      49
  143238  143244      49  143253  143256      47  143250  143253      49  143250
  143256      49  143265  143268      47  143262  143265      49  143262  143268
      49  143277  143280      47  143274  143277      49  143274  143280      49
  143289  143292      47  143286  143289      49  143286  143292      49  143301
  143304      47  143298  143301      49  143298  143304      49  143313  143316
      47  143310  143313      49  143310  143316      49  143325  143328      47
  143322  143325      49  143322  143328      49  143337  143340      47  143334
  143337      49  143334  143340      49  143349  143352      47  143346  143349
      49  143346  143352      49  143361  143364      47  143358  143361      49
  143358  143364      49  143373  143376      47  143370  143373      49  143370
  143376      49  143385  143388      47  143382  143385      49  143382  143388
      49  143397  143400      47  143394  143397      49  143394  143400      49
  143409  143412      47  143406  143409      49  143406  143412      49  143421
  143424      47  143418  143421      49  143418  143424      49  143433  143436
      47  143430  143433      49  143430  143436      49  143445  143448      47
  143442  143445      49  143442  143448      49  143457  143460      47  143454
  143457      49  143454  143460      49  143469  143472      47  143466  143469
      49  143466  143472      49  143481  143484      47  143478  143481      49
  143478  143484      49  143493  143496      47  143490  143493      49  143490
  143496      49  143505  143508      47  143502  143505      49  143502  143508
      49  143517  143520      47  143514  143517      49  143514  143520      49
  143529  143532      47  143526  143529      49  143526  143532      49  143541
  143544      47  143538  143541      49  143538  143544      49  143553  143556
      47  143550  143553      49  143550  143556      49  143565  143568      47
  143562  143565      49  143562  143568      49  143577  143580      47  143574
  143577      49  143574  143580      49  143589  143592      47  143586  143589
      49  143586  143592      49  143601  143604      47  143598  143601      49
  143598  143604      49  143613  143616      47  143610  143613      49  143610
  143616      49  143625  143628      47  143622  143625      49  143622  143628
      49  143637  143640      47  143634  143637      49  143634  143640      49
  143649  143652      47  143646  143649      49  143646  143652      49  143661
  143664      47  143658  143661      49  143658  143664      49  143673  143676
      47  143670  143673      49  143670  143676      49  143685  143688      47
  143682  143685      49  143682  143688      49  143697  143700      47  143694
  143697      49  143694  143700      49  143709  143712      47  143706  143709
      49  143706  143712      49  143721  143724      47  143718  143721      49
  143718  143724      49  143733  143736      47  143730  143733      49  143730
  143736      49  143745  143748      47  143742  143745      49  143742  143748
      49  143757  143760      47  143754  143757      49  143754  143760      49
  143769  143772      47  143766  143769      49  143766  143772      49  143781
  143784      47  143778  143781      49  143778  143784      49  143793  143796
      47  143790  143793      49  143790  143796      49  143805  143808      47
  143802  143805      49  143802  143808      49  143817  143820      47  143814
  143817      49  143814  143820      49  143829  143832      47  143826  143829
      49  143826  143832      49  143841  143844      47  143838  143841      49
  143838  143844      49  143853  143856      47  143850  143853      49  143850
  143856      49  143865  143868      47  143862  143865      49  143862  143868
      49  143877  143880      47  143874  143877      49  143874  143880      49
  143889  143892      47  143886  143889      49  143886  143892      49  143901
  143904      47  143898  143901      49  143898  143904      49  143913  143916
      47  143910  143913      49  143910  143916      49  143925  143928      47
  143922  143925      49  143922  143928      49  143937  143940      47  143934
  143937      49  143934  143940      49  143949  143952      47  143946  143949
      49  143946  143952      49  143961  143964      47  143958  143961      49
  143958  143964      49  143973  143976      47  143970  143973      49  143970
  143976      49  143985  143988      47  143982  143985      49  143982  143988
      49  143997  144000      47  143994  143997      49  143994  144000      49
  144009  144012      47  144006  144009      49  144006  144012      49  144021
  144024      47  144018  144021      49  144018  144024      49  144033  144036
      47  144030  144033      49  144030  144036      49  144045  144048      47
  144042  144045      49  144042  144048      49  144057  144060      47  144054
  144057      49  144054  144060      49  144069  144072      47  144066  144069
      49  144066  144072      49  144081  144084      47  144078  144081      49
  144078  144084      49  144093  144096      47  144090  144093      49  144090
  144096      49  144105  144108      47  144102  144105      49  144102  144108
      49  144117  144120      47  144114  144117      49  144114  144120      49
  144129  144132      47  144126  144129      49  144126  144132      49  144141
  144144      47  144138  144141      49  144138  144144      49  144153  144156
      47  144150  144153      49  144150  144156      49  144165  144168      47
  144162  144165      49  144162  144168      49  144177  144180      47  144174
  144177      49  144174  144180      49  144189  144192      47  144186  144189
      49  144186  144192      49  144201  144204      47  144198  144201      49
  144198  144204      49  144213  144216      47  144210  144213      49  144210
  144216      49  144225  144228      47  144222  144225      49  144222  144228
      49  144237  144240      47  144234  144237      49  144234  144240      49
  144249  144252      47  144246  144249      49  144246  144252      49  144261
  144264      47  144258  144261      49  144258  144264      49  144273  144276
      47  144270  144273      49  144270  144276      49  144285  144288      47
  144282  144285      49  144282  144288      49  144297  144300      47  144294
  144297      49  144294  144300      49  144309  144312      47  144306  144309
      49  144306  144312      49  144321  144324      47  144318  144321      49
  144318  144324      49  144333  144336      47  144330  144333      49  144330
  144336      49  144345  144348      47  144342  144345      49  144342  144348
      49  144357  144360      47  144354  144357      49  144354  144360      49
  144369  144372      47  144366  144369      49  144366  144372      49  144381
  144384      47  144378  144381      49  144378  144384      49  144393  144396
      47  144390  144393      49  144390  144396      49  144405  144408      47
  144402  144405      49  144402  144408      49  144417  144420      47  144414
  144417      49  144414  144420      49  144429  144432      47  144426  144429
      49  144426  144432      49  144441  144444      47  144438  144441      49
  144438  144444      49  144453  144456      47  144450  144453      49  144450
  144456      49  144465  144468      47  144462  144465      49  144462  144468
      49  144477  144480      47  144474  144477      49  144474  144480      49
  144489  144492      47  144486  144489      49  144486  144492      49  144501
  144504      47  144498  144501      49  144498  144504      49  144513  144516
      47  144510  144513      49  144510  144516      49  144525  144528      47
  144522  144525      49  144522  144528      49  144537  144540      47  144534
  144537      49  144534  144540      49  144549  144552      47  144546  144549
      49  144546  144552      49  144561  144564      47  144558  144561      49
  144558  144564      49  144573  144576      47  144570  144573      49  144570
  144576      49  144585  144588      47  144582  144585      49  144582  144588
      49  144597  144600      47  144594  144597      49  144594  144600      49
  144609  144612      47  144606  144609      49  144606  144612      49  144621
  144624      47  144618  144621      49  144618  144624      49  144633  144636
      47  144630  144633      49  144630  144636      49  144645  144648      47
  144642  144645      49  144642  144648      49  144657  144660      47  144654
  144657      49  144654  144660      49  144669  144672      47  144666  144669
      49  144666  144672      49  144681  144684      47  144678  144681      49
  144678  144684      49  144693  144696      47  144690  144693      49  144690
  144696      49  144705  144708      47  144702  144705      49  144702  144708
      49  144717  144720      47  144714  144717      49  144714  144720      49
  144729  144732      47  144726  144729      49  144726  144732      49  144741
  144744      47  144738  144741      49  144738  144744      49  144753  144756
      47  144750  144753      49  144750  144756      49  144765  144768      47
  144762  144765      49  144762  144768      49  144777  144780      47  144774
  144777      49  144774  144780      49  144789  144792      47  144786  144789
      49  144786  144792      49  144801  144804      47  144798  144801      49
  144798  144804      49  144813  144816      47  144810  144813      49  144810
  144816      49  144825  144828      47  144822  144825      49  144822  144828
      49  144837  144840      47  144834  144837      49  144834  144840      49
  144849  144852      47  144846  144849      49  144846  144852      49  144861
  144864      47  144858  144861      49  144858  144864      49  144873  144876
      47  144870  144873      49  144870  144876      49  144885  144888      47
  144882  144885      49  144882  144888      49  144897  144900      47  144894
  144897      49  144894  144900      49  144909  144912      47  144906  144909
      49  144906  144912      49  144921  144924      47  144918  144921      49
  144918  144924      49  144933  144936      47  144930  144933      49  144930
  144936      49  144945  144948      47  144942  144945      49  144942  144948
      49  144957  144960      47  144954  144957      49  144954  144960      49
  144969  144972      47  144966  144969      49  144966  144972      49  144981
  144984      47  144978  144981      49  144978  144984      49  144993  144996
      47  144990  144993      49  144990  144996      49  145005  145008      47
  145002  145005      49  145002  145008      49  145017  145020      47  145014
  145017      49  145014  145020      49  145029  145032      47  145026  145029
      49  145026  145032      49  145041  145044      47  145038  145041      49
  145038  145044      49  145053  145056      47  145050  145053      49  145050
  145056      49  145065  145068      47  145062  145065      49  145062  145068
      49  145077  145080      47  145074  145077      49  145074  145080      49
  145089  145092      47  145086  145089      49  145086  145092      49  145101
  145104      47  145098  145101      49  145098  145104      49  145113  145116
      47  145110  145113      49  145110  145116      49  145125  145128      47
  145122  145125      49  145122  145128      49  145137  145140      47  145134
  145137      49  145134  145140      49  145149  145152      47  145146  145149
      49  145146  145152      49  145161  145164      47  145158  145161      49
  145158  145164      49  145173  145176      47  145170  145173      49  145170
  145176      49  145185  145188      47  145182  145185      49  145182  145188
      49  145197  145200      47  145194  145197      49  145194  145200      49
  145209  145212      47  145206  145209      49  145206  145212      49  145221
  145224      47  145218  145221      49  145218  145224      49  145233  145236
      47  145230  145233      49  145230  145236      49  145245  145248      47
  145242  145245      49  145242  145248      49  145257  145260      47  145254
  145257      49  145254  145260      49  145269  145272      47  145266  145269
      49  145266  145272      49  145281  145284      47  145278  145281      49
  145278  145284      49  145293  145296      47  145290  145293      49  145290
  145296      49  145305  145308      47  145302  145305      49  145302  145308
      49  145317  145320      47  145314  145317      49  145314  145320      49
  145329  145332      47  145326  145329      49  145326  145332      49  145341
  145344      47  145338  145341      49  145338  145344      49  145353  145356
      47  145350  145353      49  145350  145356      49  145365  145368      47
  145362  145365      49  145362  145368      49  145377  145380      47  145374
  145377      49  145374  145380      49  145389  145392      47  145386  145389
      49  145386  145392      49  145401  145404      47  145398  145401      49
  145398  145404      49  145413  145416      47  145410  145413      49  145410
  145416      49  145425  145428      47  145422  145425      49  145422  145428
      49  145437  145440      47  145434  145437      49  145434  145440      49
  145449  145452      47  145446  145449      49  145446  145452      49  145461
  145464      47  145458  145461      49  145458  145464      49  145473  145476
      47  145470  145473      49  145470  145476      49  145485  145488      47
  145482  145485      49  145482  145488      49  145497  145500      47  145494
  145497      49  145494  145500      49  145509  145512      47  145506  145509
      49  145506  145512      49  145521  145524      47  145518  145521      49
  145518  145524      49  145533  145536      47  145530  145533      49  145530
  145536      49  145545  145548      47  145542  145545      49  145542  145548
      49  145557  145560      47  145554  145557      49  145554  145560      49
  145569  145572      47  145566  145569      49  145566  145572      49  145581
  145584      47  145578  145581      49  145578  145584      49  145593  145596
      47  145590  145593      49  145590  145596      49  145605  145608      47
  145602  145605      49  145602  145608      49  145617  145620      47  145614
  145617      49  145614  145620      49  145629  145632      47  145626  145629
      49  145626  145632      49  145641  145644      47  145638  145641      49
  145638  145644      49  145653  145656      47  145650  145653      49  145650
  145656      49  145665  145668      47  145662  145665      49  145662  145668
      49  145677  145680      47  145674  145677      49  145674  145680      49
  145689  145692      47  145686  145689      49  145686  145692      49  145701
  145704      47  145698  145701      49  145698  145704      49  145713  145716
      47  145710  145713      49  145710  145716      49  145725  145728      47
  145722  145725      49  145722  145728      49  145737  145740      47  145734
  145737      49  145734  145740      49  145749  145752      47  145746  145749
      49  145746  145752      49  145761  145764      47  145758  145761      49
  145758  145764      49  145773  145776      47  145770  145773      49  145770
  145776      49  145785  145788      47  145782  145785      49  145782  145788
      49  145797  145800      47  145794  145797      49  145794  145800      49
  145809  145812      47  145806  145809      49  145806  145812      49  145821
  145824      47  145818  145821      49  145818  145824      49  145833  145836
      47  145830  145833      49  145830  145836      49  145845  145848      47
  145842  145845      49  145842  145848      49  145857  145860      47  145854
  145857      49  145854  145860      49  145869  145872      47  145866  145869
      49  145866  145872      49  145881  145884      47  145878  145881      49
  145878  145884      49  145893  145896      47  145890  145893      49  145890
  145896      49  145905  145908      47  145902  145905      49  145902  145908
      49  145917  145920      47  145914  145917      49  145914  145920      49
  145929  145932      47  145926  145929      49  145926  145932      49  145941
  145944      47  145938  145941      49  145938  145944      49  145953  145956
      47  145950  145953      49  145950  145956      49  145965  145968      47
  145962  145965      49  145962  145968      49  145977  145980      47  145974
  145977      49  145974  145980      49  145989  145992      47  145986  145989
      49  145986  145992      49  146001  146004      47  145998  146001      49
  145998  146004      49  146013  146016      47  146010  146013      49  146010
  146016      49  146025  146028      47  146022  146025      49  146022  146028
      49  146037  146040      47  146034  146037      49  146034  146040      49
  146049  146052      47  146046  146049      49  146046  146052      49  146061
  146064      47  146058  146061      49  146058  146064      49  146073  146076
      47  146070  146073      49  146070  146076      49  146085  146088      47
  146082  146085      49  146082  146088      49  146097  146100      47  146094
  146097      49  146094  146100      49  146109  146112      47  146106  146109
      49  146106  146112      49  146121  146124      47  146118  146121      49
  146118  146124      49  146133  146136      47  146130  146133      49  146130
  146136      49  146145  146148      47  146142  146145      49  146142  146148
      49  146157  146160      47  146154  146157      49  146154  146160      49
  146169  146172      47  146166  146169      49  146166  146172      49  146181
  146184      47  146178  146181      49  146178  146184      49  146193  146196
      47  146190  146193      49  146190  146196      49  146205  146208      47
  146202  146205      49  146202  146208      49  146217  146220      47  146214
  146217      49  146214  146220      49  146229  146232      47  146226  146229
      49  146226  146232      49  146241  146244      47  146238  146241      49
  146238  146244      49  146253  146256      47  146250  146253      49  146250
  146256      49  146265  146268      47  146262  146265      49  146262  146268
      49  146277  146280      47  146274  146277      49  146274  146280      49
  146289  146292      47  146286  146289      49  146286  146292      49  146301
  146304      47  146298  146301      49  146298  146304      49  146313  146316
      47  146310  146313      49  146310  146316      49  146325  146328      47
  146322  146325      49  146322  146328      49  146337  146340      47  146334
  146337      49  146334  146340      49  146349  146352      47  146346  146349
      49  146346  146352      49  146361  146364      47  146358  146361      49
  146358  146364      49  146373  146376      47  146370  146373      49  146370
  146376      49  146385  146388      47  146382  146385      49  146382  146388
      49  146397  146400      47  146394  146397      49  146394  146400      49
  146409  146412      47  146406  146409      49  146406  146412      49  146421
  146424      47  146418  146421      49  146418  146424      49  146433  146436
      47  146430  146433      49  146430  146436      49  146445  146448      47
  146442  146445      49  146442  146448      49  146457  146460      47  146454
  146457      49  146454  146460      49  146469  146472      47  146466  146469
      49  146466  146472      49  146481  146484      47  146478  146481      49
  146478  146484      49  146493  146496      47  146490  146493      49  146490
  146496      49  146505  146508      47  146502  146505      49  146502  146508
      49  146517  146520      47  146514  146517      49  146514  146520      49
  146529  146532      47  146526  146529      49  146526  146532      49  146541
  146544      47  146538  146541      49  146538  146544      49  146553  146556
      47  146550  146553      49  146550  146556      49  146565  146568      47
  146562  146565      49  146562  146568      49  146577  146580      47  146574
  146577      49  146574  146580      49  146589  146592      47  146586  146589
      49  146586  146592      49  146601  146604      47  146598  146601      49
  146598  146604      49  146613  146616      47  146610  146613      49  146610
  146616      49  146625  146628      47  146622  146625      49  146622  146628
      49  146637  146640      47  146634  146637      49  146634  146640      49
  146649  146652      47  146646  146649      49  146646  146652      49  146661
  146664      47  146658  146661      49  146658  146664      49  146673  146676
      47  146670  146673      49  146670  146676      49  146685  146688      47
  146682  146685      49  146682  146688      49  146697  146700      47  146694
  146697      49  146694  146700      49  146709  146712      47  146706  146709
      49  146706  146712      49  146721  146724      47  146718  146721      49
  146718  146724      49  146733  146736      47  146730  146733      49  146730
  146736      49  146745  146748      47  146742  146745      49  146742  146748
      49  146757  146760      47  146754  146757      49  146754  146760      49
  146769  146772      47  146766  146769      49  146766  146772      49  146781
  146784      47  146778  146781      49  146778  146784      49  146793  146796
      47  146790  146793      49  146790  146796      49  146805  146808      47
  146802  146805      49  146802  146808      49  146817  146820      47  146814
  146817      49  146814  146820      49  146829  146832      47  146826  146829
      49  146826  146832      49  146841  146844      47  146838  146841      49
  146838  146844      49  146853  146856      47  146850  146853      49  146850
  146856      49  146865  146868      47  146862  146865      49  146862  146868
      49  146877  146880      47  146874  146877      49  146874  146880      49
  146889  146892      47  146886  146889      49  146886  146892      49  146901
  146904      47  146898  146901      49  146898  146904      49  146913  146916
      47  146910  146913      49  146910  146916      49  146925  146928      47
  146922  146925      49  146922  146928      49  146937  146940      47  146934
  146937      49  146934  146940      49  146949  146952      47  146946  146949
      49  146946  146952      49  146961  146964      47  146958  146961      49
  146958  146964      49  146973  146976      47  146970  146973      49  146970
  146976      49  146985  146988      47  146982  146985      49  146982  146988
      49  146997  147000      47  146994  146997      49  146994  147000      49
  147009  147012      47  147006  147009      49  147006  147012      49  147021
  147024      47  147018  147021      49  147018  147024      49  147033  147036
      47  147030  147033      49  147030  147036      49  147045  147048      47
  147042  147045      49  147042  147048      49  147057  147060      47  147054
  147057      49  147054  147060      49  147069  147072      47  147066  147069
      49  147066  147072      49  147081  147084      47  147078  147081      49
  147078  147084      49  147093  147096      47  147090  147093      49  147090
  147096      49  147105  147108      47  147102  147105      49  147102  147108
      49  147117  147120      47  147114  147117      49  147114  147120      49
  147129  147132      47  147126  147129      49  147126  147132      49  147141
  147144      47  147138  147141      49  147138  147144      49  147153  147156
      47  147150  147153      49  147150  147156      49  147165  147168      47
  147162  147165      49  147162  147168      49  147177  147180      47  147174
  147177      49  147174  147180      49  147189  147192      47  147186  147189
      49  147186  147192      49  147201  147204      47  147198  147201      49
  147198  147204      49  147213  147216      47  147210  147213      49  147210
  147216      49  147225  147228      47  147222  147225      49  147222  147228
      49  147237  147240      47  147234  147237      49  147234  147240      49
  147249  147252      47  147246  147249      49  147246  147252      49  147261
  147264      47  147258  147261      49  147258  147264      49  147273  147276
      47  147270  147273      49  147270  147276      49  147285  147288      47
  147282  147285      49  147282  147288      49  147297  147300      47  147294
  147297      49  147294  147300      49  147309  147312      47  147306  147309
      49  147306  147312      49  147321  147324      47  147318  147321      49
  147318  147324      49  147333  147336      47  147330  147333      49  147330
  147336      49  147345  147348      47  147342  147345      49  147342  147348
      49  147357  147360      47  147354  147357      49  147354  147360      49
  147369  147372      47  147366  147369      49  147366  147372      49  147381
  147384      47  147378  147381      49  147378  147384      49  147393  147396
      47  147390  147393      49  147390  147396      49  147405  147408      47
  147402  147405      49  147402  147408      49  147417  147420      47  147414
  147417      49  147414  147420      49  147429  147432      47  147426  147429
      49  147426  147432      49  147441  147444      47  147438  147441      49
  147438  147444      49  147453  147456      47  147450  147453      49  147450
  147456      49  147465  147468      47  147462  147465      49  147462  147468
      49  147477  147480      47  147474  147477      49  147474  147480      49
  147489  147492      47  147486  147489      49  147486  147492      49  147501
  147504      47  147498  147501      49  147498  147504      49  147513  147516
      47  147510  147513      49  147510  147516      49  147525  147528      47
  147522  147525      49  147522  147528      49  147537  147540      47  147534
  147537      49  147534  147540      49  147549  147552      47  147546  147549
      49  147546  147552      49  147561  147564      47  147558  147561      49
  147558  147564      49  147573  147576      47  147570  147573      49  147570
  147576      49  147585  147588      47  147582  147585      49  147582  147588
      49  147597  147600      47  147594  147597      49  147594  147600      49
  147609  147612      47  147606  147609      49  147606  147612      49  147621
  147624      47  147618  147621      49  147618  147624      49  147633  147636
      47  147630  147633      49  147630  147636      49  147645  147648      47
  147642  147645      49  147642  147648      49  147657  147660      47  147654
  147657      49  147654  147660      49  147669  147672      47  147666  147669
      49  147666  147672      49  147681  147684      47  147678  147681      49
  147678  147684      49  147693  147696      47  147690  147693      49  147690
  147696      49  147705  147708      47  147702  147705      49  147702  147708
      49  147717  147720      47  147714  147717      49  147714  147720      49
  147729  147732      47  147726  147729      49  147726  147732      49  147741
  147744      47  147738  147741      49  147738  147744      49  147753  147756
      47  147750  147753      49  147750  147756      49  147765  147768      47
  147762  147765      49  147762  147768      49  147777  147780      47  147774
  147777      49  147774  147780      49  147789  147792      47  147786  147789
      49  147786  147792      49  147801  147804      47  147798  147801      49
  147798  147804      49  147813  147816      47  147810  147813      49  147810
  147816      49  147825  147828      47  147822  147825      49  147822  147828
      49  147837  147840      47  147834  147837      49  147834  147840      49
  147849  147852      47  147846  147849      49  147846  147852      49  147861
  147864      47  147858  147861      49  147858  147864      49  147873  147876
      47  147870  147873      49  147870  147876      49  147885  147888      47
  147882  147885      49  147882  147888      49  147897  147900      47  147894
  147897      49  147894  147900      49  147909  147912      47  147906  147909
      49  147906  147912      49  147921  147924      47  147918  147921      49
  147918  147924      49  147933  147936      47  147930  147933      49  147930
  147936      49  147945  147948      47  147942  147945      49  147942  147948
      49  147957  147960      47  147954  147957      49  147954  147960      49
  147969  147972      47  147966  147969      49  147966  147972      49  147981
  147984      47  147978  147981      49  147978  147984      49  147993  147996
      47  147990  147993      49  147990  147996      49  148005  148008      47
  148002  148005      49  148002  148008      49  148017  148020      47  148014
  148017      49  148014  148020      49  148029  148032      47  148026  148029
      49  148026  148032      49  148041  148044      47  148038  148041      49
  148038  148044      49  148053  148056      47  148050  148053      49  148050
  148056      49  148065  148068      47  148062  148065      49  148062  148068
      49  148077  148080      47  148074  148077      49  148074  148080      49
  148089  148092      47  148086  148089      49  148086  148092      49  148101
  148104      47  148098  148101      49  148098  148104      49  148113  148116
      47  148110  148113      49  148110  148116      49  148125  148128      47
  148122  148125      49  148122  148128      49  148137  148140      47  148134
  148137      49  148134  148140      49  148149  148152      47  148146  148149
      49  148146  148152      49  148161  148164      47  148158  148161      49
  148158  148164      49  148173  148176      47  148170  148173      49  148170
  148176      49  148185  148188      47  148182  148185      49  148182  148188
      49  148197  148200      47  148194  148197      49  148194  148200      49
  148209  148212      47  148206  148209      49  148206  148212      49  148221
  148224      47  148218  148221      49  148218  148224      49  148233  148236
      47  148230  148233      49  148230  148236      49  148245  148248      47
  148242  148245      49  148242  148248      49  148257  148260      47  148254
  148257      49  148254  148260      49  148269  148272      47  148266  148269
      49  148266  148272      49  148281  148284      47  148278  148281      49
  148278  148284      49  148293  148296      47  148290  148293      49  148290
  148296      49  148305  148308      47  148302  148305      49  148302  148308
      49  148317  148320      47  148314  148317      49  148314  148320      49
  148329  148332      47  148326  148329      49  148326  148332      49  148341
  148344      47  148338  148341      49  148338  148344      49  148353  148356
      47  148350  148353      49  148350  148356      49  148365  148368      47
  148362  148365      49  148362  148368      49  148377  148380      47  148374
  148377      49  148374  148380      49  148389  148392      47  148386  148389
      49  148386  148392      49  148401  148404      47  148398  148401      49
  148398  148404      49  148413  148416      47  148410  148413      49  148410
  148416      49  148425  148428      47  148422  148425      49  148422  148428
      49  148437  148440      47  148434  148437      49  148434  148440      49
  148449  148452      47  148446  148449      49  148446  148452      49  148461
  148464      47  148458  148461      49  148458  148464      49  148473  148476
      47  148470  148473      49  148470  148476      49  148485  148488      47
  148482  148485      49  148482  148488      49  148497  148500      47  148494
  148497      49  148494  148500      49  148509  148512      47  148506  148509
      49  148506  148512      49  148521  148524      47  148518  148521      49
  148518  148524      49  148533  148536      47  148530  148533      49  148530
  148536      49  148545  148548      47  148542  148545      49  148542  148548
      49  148557  148560      47  148554  148557      49  148554  148560      49
  148569  148572      47  148566  148569      49  148566  148572      49  148581
  148584      47  148578  148581      49  148578  148584      49  148593  148596
      47  148590  148593      49  148590  148596      49  148605  148608      47
  148602  148605      49  148602  148608      49  148617  148620      47  148614
  148617      49  148614  148620      49  148629  148632      47  148626  148629
      49  148626  148632      49  148641  148644      47  148638  148641      49
  148638  148644      49  148653  148656      47  148650  148653      49  148650
  148656      49  148665  148668      47  148662  148665      49  148662  148668
      49  148677  148680      47  148674  148677      49  148674  148680      49
  148689  148692      47  148686  148689      49  148686  148692      49  148701
  148704      47  148698  148701      49  148698  148704      49  148713  148716
      47  148710  148713      49  148710  148716      49  148725  148728      47
  148722  148725      49  148722  148728      49  148737  148740      47  148734
  148737      49  148734  148740      49  148749  148752      47  148746  148749
      49  148746  148752      49  148761  148764      47  148758  148761      49
  148758  148764      49  148773  148776      47  148770  148773      49  148770
  148776      49  148785  148788      47  148782  148785      49  148782  148788
      49  148797  148800      47  148794  148797      49  148794  148800      49
  148809  148812      47  148806  148809      49  148806  148812      49  148821
  148824      47  148818  148821      49  148818  148824      49  148833  148836
      47  148830  148833      49  148830  148836      49  148845  148848      47
  148842  148845      49  148842  148848      49  148857  148860      47  148854
  148857      49  148854  148860      49  148869  148872      47  148866  148869
      49  148866  148872      49  148881  148884      47  148878  148881      49
  148878  148884      49  148893  148896      47  148890  148893      49  148890
  148896      49  148905  148908      47  148902  148905      49  148902  148908
      49  148917  148920      47  148914  148917      49  148914  148920      49
  148929  148932      47  148926  148929      49  148926  148932      49  148941
  148944      47  148938  148941      49  148938  148944      49  148953  148956
      47  148950  148953      49  148950  148956      49  148965  148968      47
  148962  148965      49  148962  148968      49  148977  148980      47  148974
  148977      49  148974  148980      49  148989  148992      47  148986  148989
      49  148986  148992      49  149001  149004      47  148998  149001      49
  148998  149004      49  149013  149016      47  149010  149013      49  149010
  149016      49  149025  149028      47  149022  149025      49  149022  149028
      49  149037  149040      47  149034  149037      49  149034  149040      49
  149049  149052      47  149046  149049      49  149046  149052      49  149061
  149064      47  149058  149061      49  149058  149064      49  149073  149076
      47  149070  149073      49  149070  149076      49  149085  149088      47
  149082  149085      49  149082  149088      49  149097  149100      47  149094
  149097      49  149094  149100      49  149109  149112      47  149106  149109
      49  149106  149112      49  149121  149124      47  149118  149121      49
  149118  149124      49  149133  149136      47  149130  149133      49  149130
  149136      49  149145  149148      47  149142  149145      49  149142  149148
      49  149157  149160      47  149154  149157      49  149154  149160      49
  149169  149172      47  149166  149169      49  149166  149172      49  149181
  149184      47  149178  149181      49  149178  149184      49  149193  149196
      47  149190  149193      49  149190  149196      49  149205  149208      47
  149202  149205      49  149202  149208      49  149217  149220      47  149214
  149217      49  149214  149220      49  149229  149232      47  149226  149229
      49  149226  149232      49  149241  149244      47  149238  149241      49
  149238  149244      49  149253  149256      47  149250  149253      49  149250
  149256      49  149265  149268      47  149262  149265      49  149262  149268
      49  149277  149280      47  149274  149277      49  149274  149280      49
  149289  149292      47  149286  149289      49  149286  149292      49  149301
  149304      47  149298  149301      49  149298  149304      49  149313  149316
      47  149310  149313      49  149310  149316      49  149325  149328      47
  149322  149325      49  149322  149328      49  149337  149340      47  149334
  149337      49  149334  149340      49  149349  149352      47  149346  149349
      49  149346  149352      49  149361  149364      47  149358  149361      49
  149358  149364      49  149373  149376      47  149370  149373      49  149370
  149376      49  149385  149388      47  149382  149385      49  149382  149388
      49  149397  149400      47  149394  149397      49  149394  149400      49
  149409  149412      47  149406  149409      49  149406  149412      49  149421
  149424      47  149418  149421      49  149418  149424      49  149433  149436
      47  149430  149433      49  149430  149436      49  149445  149448      47
  149442  149445      49  149442  149448      49  149457  149460      47  149454
  149457      49  149454  149460      49  149469  149472      47  149466  149469
      49  149466  149472      49  149481  149484      47  149478  149481      49
  149478  149484      49  149493  149496      47  149490  149493      49  149490
  149496      49  149505  149508      47  149502  149505      49  149502  149508
      49  149517  149520      47  149514  149517      49  149514  149520      49
  149529  149532      47  149526  149529      49  149526  149532      49  149541
  149544      47  149538  149541      49  149538  149544      49  149553  149556
      47  149550  149553      49  149550  149556      49  149565  149568      47
  149562  149565      49  149562  149568      49  149577  149580      47  149574
  149577      49  149574  149580      49  149589  149592      47  149586  149589
      49  149586  149592      49  149601  149604      47  149598  149601      49
  149598  149604      49  149613  149616      47  149610  149613      49  149610
  149616      49  149625  149628      47  149622  149625      49  149622  149628
      49  149637  149640      47  149634  149637      49  149634  149640      49
  149649  149652      47  149646  149649      49  149646  149652      49  149661
  149664      47  149658  149661      49  149658  149664      49  149673  149676
      47  149670  149673      49  149670  149676      49  149685  149688      47
  149682  149685      49  149682  149688      49  149697  149700      47  149694
  149697      49  149694  149700      49  149709  149712      47  149706  149709
      49  149706  149712      49  149721  149724      47  149718  149721      49
  149718  149724      49  149733  149736      47  149730  149733      49  149730
  149736      49  149745  149748      47  149742  149745      49  149742  149748
      49  149757  149760      47  149754  149757      49  149754  149760      49
  149769  149772      47  149766  149769      49  149766  149772      49  149781
  149784      47  149778  149781      49  149778  149784      49  149793  149796
      47  149790  149793      49  149790  149796      49  149805  149808      47
  149802  149805      49  149802  149808      49  149817  149820      47  149814
  149817      49  149814  149820      49  149829  149832      47  149826  149829
      49  149826  149832      49  149841  149844      47  149838  149841      49
  149838  149844      49  149853  149856      47  149850  149853      49  149850
  149856      49  149865  149868      47  149862  149865      49  149862  149868
      49  149877  149880      47  149874  149877      49  149874  149880      49
  149889  149892      47  149886  149889      49  149886  149892      49  149901
  149904      47  149898  149901      49  149898  149904      49  149913  149916
      47  149910  149913      49  149910  149916      49  149925  149928      47
  149922  149925      49  149922  149928      49  149937  149940      47  149934
  149937      49  149934  149940      49  149949  149952      47  149946  149949
      49  149946  149952      49  149961  149964      47  149958  149961      49
  149958  149964      49  149973  149976      47  149970  149973      49  149970
  149976      49  149985  149988      47  149982  149985      49  149982  149988
      49  149997  150000      47  149994  149997      49  149994  150000      49
  150009  150012      47  150006  150009      49  150006  150012      49  150021
  150024      47  150018  150021      49  150018  150024      49  150033  150036
      47  150030  150033      49  150030  150036      49  150045  150048      47
  150042  150045      49  150042  150048      49  150057  150060      47  150054
  150057      49  150054  150060      49  150069  150072      47  150066  150069
      49  150066  150072      49  150081  150084      47  150078  150081      49
  150078  150084      49  150093  150096      47  150090  150093      49  150090
  150096      49  150105  150108      47  150102  150105      49  150102  150108
      49  150117  150120      47  150114  150117      49  150114  150120      49
  150129  150132      47  150126  150129      49  150126  150132      49  150141
  150144      47  150138  150141      49  150138  150144      49  150153  150156
      47  150150  150153      49  150150  150156      49  150165  150168      47
  150162  150165      49  150162  150168      49  150177  150180      47  150174
  150177      49  150174  150180      49  150189  150192      47  150186  150189
      49  150186  150192      49  150201  150204      47  150198  150201      49
  150198  150204      49  150213  150216      47  150210  150213      49  150210
  150216      49  150225  150228      47  150222  150225      49  150222  150228
      49  150237  150240      47  150234  150237      49  150234  150240      49
  150249  150252      47  150246  150249      49  150246  150252      49  150261
  150264      47  150258  150261      49  150258  150264      49  150273  150276
      47  150270  150273      49  150270  150276      49  150285  150288      47
  150282  150285      49  150282  150288      49  150297  150300      47  150294
  150297      49  150294  150300      49  150309  150312      47  150306  150309
      49  150306  150312      49  150321  150324      47  150318  150321      49
  150318  150324      49  150333  150336      47  150330  150333      49  150330
  150336      49  150345  150348      47  150342  150345      49  150342  150348
      49  150357  150360      47  150354  150357      49  150354  150360      49
  150369  150372      47  150366  150369      49  150366  150372      49  150381
  150384      47  150378  150381      49  150378  150384      49  150393  150396
      47  150390  150393      49  150390  150396      49  150405  150408      47
  150402  150405      49  150402  150408      49  150417  150420      47  150414
  150417      49  150414  150420      49  150429  150432      47  150426  150429
      49  150426  150432      49  150441  150444      47  150438  150441      49
  150438  150444      49  150453  150456      47  150450  150453      49  150450
  150456      49  150465  150468      47  150462  150465      49  150462  150468
      49  150477  150480      47  150474  150477      49  150474  150480      49
  150489  150492      47  150486  150489      49  150486  150492      49  150501
  150504      47  150498  150501      49  150498  150504      49  150513  150516
      47  150510  150513      49  150510  150516      49  150525  150528      47
  150522  150525      49  150522  150528      49  150537  150540      47  150534
  150537      49  150534  150540      49  150549  150552      47  150546  150549
      49  150546  150552      49  150561  150564      47  150558  150561      49
  150558  150564      49  150573  150576      47  150570  150573      49  150570
  150576      49  150585  150588      47  150582  150585      49  150582  150588
      49  150597  150600      47  150594  150597      49  150594  150600      49
  150609  150612      47  150606  150609      49  150606  150612      49  150621
  150624      47  150618  150621      49  150618  150624      49  150633  150636
      47  150630  150633      49  150630  150636      49  150645  150648      47
  150642  150645      49  150642  150648      49  150657  150660      47  150654
  150657      49  150654  150660      49  150669  150672      47  150666  150669
      49  150666  150672      49  150681  150684      47  150678  150681      49
  150678  150684      49  150693  150696      47  150690  150693      49  150690
  150696      49  150705  150708      47  150702  150705      49  150702  150708
      49  150717  150720      47  150714  150717      49  150714  150720      49
  150729  150732      47  150726  150729      49  150726  150732      49  150741
  150744      47  150738  150741      49  150738  150744      49  150753  150756
      47  150750  150753      49  150750  150756      49  150765  150768      47
  150762  150765      49  150762  150768      49  150777  150780      47  150774
  150777      49  150774  150780      49  150789  150792      47  150786  150789
      49  150786  150792      49  150801  150804      47  150798  150801      49
  150798  150804      49  150813  150816      47  150810  150813      49  150810
  150816      49  150825  150828      47  150822  150825      49  150822  150828
      49  150837  150840      47  150834  150837      49  150834  150840      49
  150849  150852      47  150846  150849      49  150846  150852      49  150861
  150864      47  150858  150861      49  150858  150864      49  150873  150876
      47  150870  150873      49  150870  150876      49  150885  150888      47
  150882  150885      49  150882  150888      49  150897  150900      47  150894
  150897      49  150894  150900      49  150909  150912      47  150906  150909
      49  150906  150912      49  150921  150924      47  150918  150921      49
  150918  150924      49  150933  150936      47  150930  150933      49  150930
  150936      49  150945  150948      47  150942  150945      49  150942  150948
      49  150957  150960      47  150954  150957      49  150954  150960      49
  150969  150972      47  150966  150969      49  150966  150972      49  150981
  150984      47  150978  150981      49  150978  150984      49  150993  150996
      47  150990  150993      49  150990  150996      49  151005  151008      47
  151002  151005      49  151002  151008      49  151017  151020      47  151014
  151017      49  151014  151020      49  151029  151032      47  151026  151029
      49  151026  151032      49  151041  151044      47  151038  151041      49
  151038  151044      49  151053  151056      47  151050  151053      49  151050
  151056      49  151065  151068      47  151062  151065      49  151062  151068
      49  151077  151080      47  151074  151077      49  151074  151080      49
  151089  151092      47  151086  151089      49  151086  151092      49  151101
  151104      47  151098  151101      49  151098  151104      49  151113  151116
      47  151110  151113      49  151110  151116      49  151125  151128      47
  151122  151125      49  151122  151128      49  151137  151140      47  151134
  151137      49  151134  151140      49  151149  151152      47  151146  151149
      49  151146  151152      49  151161  151164      47  151158  151161      49
  151158  151164      49  151173  151176      47  151170  151173      49  151170
  151176      49  151185  151188      47  151182  151185      49  151182  151188
      49  151197  151200      47  151194  151197      49  151194  151200      49
  151209  151212      47  151206  151209      49  151206  151212      49  151221
  151224      47  151218  151221      49  151218  151224      49  151233  151236
      47  151230  151233      49  151230  151236      49  151245  151248      47
  151242  151245      49  151242  151248      49  151257  151260      47  151254
  151257      49  151254  151260      49  151269  151272      47  151266  151269
      49  151266  151272      49  151281  151284      47  151278  151281      49
  151278  151284      49  151293  151296      47  151290  151293      49  151290
  151296      49  151305  151308      47  151302  151305      49  151302  151308
      49  151317  151320      47  151314  151317      49  151314  151320      49
  151329  151332      47  151326  151329      49  151326  151332      49  151341
  151344      47  151338  151341      49  151338  151344      49  151353  151356
      47  151350  151353      49  151350  151356      49  151365  151368      47
  151362  151365      49  151362  151368      49  151377  151380      47  151374
  151377      49  151374  151380      49  151389  151392      47  151386  151389
      49  151386  151392      49  151401  151404      47  151398  151401      49
  151398  151404      49  151413  151416      47  151410  151413      49  151410
  151416      49  151425  151428      47  151422  151425      49  151422  151428
      49  151437  151440      47  151434  151437      49  151434  151440      49
  151449  151452      47  151446  151449      49  151446  151452      49  151461
  151464      47  151458  151461      49  151458  151464      49  151473  151476
      47  151470  151473      49  151470  151476      49  151485  151488      47
  151482  151485      49  151482  151488      49  151497  151500      47  151494
  151497      49  151494  151500      49  151509  151512      47  151506  151509
      49  151506  151512      49  151521  151524      47  151518  151521      49
  151518  151524      49  151533  151536      47  151530  151533      49  151530
  151536      49  151545  151548      47  151542  151545      49  151542  151548
      49  151557  151560      47  151554  151557      49  151554  151560      49
  151569  151572      47  151566  151569      49  151566  151572      49  151581
  151584      47  151578  151581      49  151578  151584      49  151593  151596
      47  151590  151593      49  151590  151596      49  151605  151608      47
  151602  151605      49  151602  151608      49  151617  151620      47  151614
  151617      49  151614  151620      49  151629  151632      47  151626  151629
      49  151626  151632      49  151641  151644      47  151638  151641      49
  151638  151644      49  151653  151656      47  151650  151653      49  151650
  151656      49  151665  151668      47  151662  151665      49  151662  151668
      49  151677  151680      47  151674  151677      49  151674  151680      49
  151689  151692      47  151686  151689      49  151686  151692      49  151701
  151704      47  151698  151701      49  151698  151704      49  151713  151716
      47  151710  151713      49  151710  151716      49  151725  151728      47
  151722  151725      49  151722  151728      49  151737  151740      47  151734
  151737      49  151734  151740      49  151749  151752      47  151746  151749
      49  151746  151752      49  151761  151764      47  151758  151761      49
  151758  151764      49  151773  151776      47  151770  151773      49  151770
  151776      49  151785  151788      47  151782  151785      49  151782  151788
      49  151797  151800      47  151794  151797      49  151794  151800      49
  151809  151812      47  151806  151809      49  151806  151812      49  151821
  151824      47  151818  151821      49  151818  151824      49  151833  151836
      47  151830  151833      49  151830  151836      49  151845  151848      47
  151842  151845      49  151842  151848      49  151857  151860      47  151854
  151857      49  151854  151860      49  151869  151872      47  151866  151869
      49  151866  151872      49  151881  151884      47  151878  151881      49
  151878  151884      49  151893  151896      47  151890  151893      49  151890
  151896      49  151905  151908      47  151902  151905      49  151902  151908
      49  151917  151920      47  151914  151917      49  151914  151920      49
  151929  151932      47  151926  151929      49  151926  151932      49  151941
  151944      47  151938  151941      49  151938  151944      49  151953  151956
      47  151950  151953      49  151950  151956      49  151965  151968      47
  151962  151965      49  151962  151968      49  151977  151980      47  151974
  151977      49  151974  151980      49  151989  151992      47  151986  151989
      49  151986  151992      49  152001  152004      47  151998  152001      49
  151998  152004      49  152013  152016      47  152010  152013      49  152010
  152016      49  152025  152028      47  152022  152025      49  152022  152028
      49  152037  152040      47  152034  152037      49  152034  152040      49
  152049  152052      47  152046  152049      49  152046  152052      49  152061
  152064      47  152058  152061      49  152058  152064      49  152073  152076
      47  152070  152073      49  152070  152076      49  152085  152088      47
  152082  152085      49  152082  152088      49  152097  152100      47  152094
  152097      49  152094  152100      49  152109  152112      47  152106  152109
      49  152106  152112      49  152121  152124      47  152118  152121      49
  152118  152124      49  152133  152136      47  152130  152133      49  152130
  152136      49  152145  152148      47  152142  152145      49  152142  152148
      49  152157  152160      47  152154  152157      49  152154  152160      49
  152169  152172      47  152166  152169      49  152166  152172      49  152181
  152184      47  152178  152181      49  152178  152184      49  152193  152196
      47  152190  152193      49  152190  152196      49  152205  152208      47
  152202  152205      49  152202  152208      49  152217  152220      47  152214
  152217      49  152214  152220      49  152229  152232      47  152226  152229
      49  152226  152232      49  152241  152244      47  152238  152241      49
  152238  152244      49  152253  152256      47  152250  152253      49  152250
  152256      49  152265  152268      47  152262  152265      49  152262  152268
      49  152277  152280      47  152274  152277      49  152274  152280      49
  152289  152292      47  152286  152289      49  152286  152292      49  152301
  152304      47  152298  152301      49  152298  152304      49  152313  152316
      47  152310  152313      49  152310  152316      49  152325  152328      47
  152322  152325      49  152322  152328      49  152337  152340      47  152334
  152337      49  152334  152340      49  152349  152352      47  152346  152349
      49  152346  152352      49  152361  152364      47  152358  152361      49
  152358  152364      49  152373  152376      47  152370  152373      49  152370
  152376      49  152385  152388      47  152382  152385      49  152382  152388
      49  152397  152400      47  152394  152397      49  152394  152400      49
  152409  152412      47  152406  152409      49  152406  152412      49  152421
  152424      47  152418  152421      49  152418  152424      49  152433  152436
      47  152430  152433      49  152430  152436      49  152445  152448      47
  152442  152445      49  152442  152448      49  152457  152460      47  152454
  152457      49  152454  152460      49  152469  152472      47  152466  152469
      49  152466  152472      49  152481  152484      47  152478  152481      49
  152478  152484      49  152493  152496      47  152490  152493      49  152490
  152496      49  152505  152508      47  152502  152505      49  152502  152508
      49  152517  152520      47  152514  152517      49  152514  152520      49
  152529  152532      47  152526  152529      49  152526  152532      49  152541
  152544      47  152538  152541      49  152538  152544      49  152553  152556
      47  152550  152553      49  152550  152556      49  152565  152568      47
  152562  152565      49  152562  152568      49  152577  152580      47  152574
  152577      49  152574  152580      49  152589  152592      47  152586  152589
      49  152586  152592      49  152601  152604      47  152598  152601      49
  152598  152604      49  152613  152616      47  152610  152613      49  152610
  152616      49  152625  152628      47  152622  152625      49  152622  152628
      49  152637  152640      47  152634  152637      49  152634  152640      49
  152649  152652      47  152646  152649      49  152646  152652      49  152661
  152664      47  152658  152661      49  152658  152664      49  152673  152676
      47  152670  152673      49  152670  152676      49  152685  152688      47
  152682  152685      49  152682  152688      49  152697  152700      47  152694
  152697      49  152694  152700      49  152709  152712      47  152706  152709
      49  152706  152712      49  152721  152724      47  152718  152721      49
  152718  152724      49  152733  152736      47  152730  152733      49  152730
  152736      49  152745  152748      47  152742  152745      49  152742  152748
      49  152757  152760      47  152754  152757      49  152754  152760      49
  152769  152772      47  152766  152769      49  152766  152772      49  152781
  152784      47  152778  152781      49  152778  152784      49  152793  152796
      47  152790  152793      49  152790  152796      49  152805  152808      47
  152802  152805      49  152802  152808      49  152817  152820      47  152814
  152817      49  152814  152820      49  152829  152832      47  152826  152829
      49  152826  152832      49  152841  152844      47  152838  152841      49
  152838  152844      49  152853  152856      47  152850  152853      49  152850
  152856      49  152865  152868      47  152862  152865      49  152862  152868
      49  152877  152880      47  152874  152877      49  152874  152880      49
  152889  152892      47  152886  152889      49  152886  152892      49  152901
  152904      47  152898  152901      49  152898  152904      49  152913  152916
      47  152910  152913      49  152910  152916      49  152925  152928      47
  152922  152925      49  152922  152928      49  152937  152940      47  152934
  152937      49  152934  152940      49  152949  152952      47  152946  152949
      49  152946  152952      49  152961  152964      47  152958  152961      49
  152958  152964      49  152973  152976      47  152970  152973      49  152970
  152976      49  152985  152988      47  152982  152985      49  152982  152988
      49  152997  153000      47  152994  152997      49  152994  153000      49
  153009  153012      47  153006  153009      49  153006  153012      49  153021
  153024      47  153018  153021      49  153018  153024      49  153033  153036
      47  153030  153033      49  153030  153036      49  153045  153048      47
  153042  153045      49  153042  153048      49  153057  153060      47  153054
  153057      49  153054  153060      49  153069  153072      47  153066  153069
      49  153066  153072      49  153081  153084      47  153078  153081      49
  153078  153084      49  153093  153096      47  153090  153093      49  153090
  153096      49  153105  153108      47  153102  153105      49  153102  153108
      49  153117  153120      47  153114  153117      49  153114  153120      49
  153129  153132      47  153126  153129      49  153126  153132      49  153141
  153144      47  153138  153141      49  153138  153144      49  153153  153156
      47  153150  153153      49  153150  153156      49  153165  153168      47
  153162  153165      49  153162  153168      49  153177  153180      47  153174
  153177      49  153174  153180      49  153189  153192      47  153186  153189
      49  153186  153192      49  153201  153204      47  153198  153201      49
  153198  153204      49  153213  153216      47  153210  153213      49  153210
  153216      49  153225  153228      47  153222  153225      49  153222  153228
      49  153237  153240      47  153234  153237      49  153234  153240      49
  153249  153252      47  153246  153249      49  153246  153252      49  153261
  153264      47  153258  153261      49  153258  153264      49  153273  153276
      47  153270  153273      49  153270  153276      49  153285  153288      47
  153282  153285      49  153282  153288      49  153297  153300      47  153294
  153297      49  153294  153300      49  153309  153312      47  153306  153309
      49  153306  153312      49  153321  153324      47  153318  153321      49
  153318  153324      49  153333  153336      47  153330  153333      49  153330
  153336      49  153345  153348      47  153342  153345      49  153342  153348
      49  153357  153360      47  153354  153357      49  153354  153360      49
  153369  153372      47  153366  153369      49  153366  153372      49  153381
  153384      47  153378  153381      49  153378  153384      49  153393  153396
      47  153390  153393      49  153390  153396      49  153405  153408      47
  153402  153405      49  153402  153408      49  153417  153420      47  153414
  153417      49  153414  153420      49  153429  153432      47  153426  153429
      49  153426  153432      49  153441  153444      47  153438  153441      49
  153438  153444      49  153453  153456      47  153450  153453      49  153450
  153456      49  153465  153468      47  153462  153465      49  153462  153468
      49  153477  153480      47  153474  153477      49  153474  153480      49
  153489  153492      47  153486  153489      49  153486  153492      49  153501
  153504      47  153498  153501      49  153498  153504      49  153513  153516
      47  153510  153513      49  153510  153516      49  153525  153528      47
  153522  153525      49  153522  153528      49  153537  153540      47  153534
  153537      49  153534  153540      49  153549  153552      47  153546  153549
      49  153546  153552      49  153561  153564      47  153558  153561      49
  153558  153564      49  153573  153576      47  153570  153573      49  153570
  153576      49  153585  153588      47  153582  153585      49  153582  153588
      49  153597  153600      47  153594  153597      49  153594  153600      49
  153609  153612      47  153606  153609      49  153606  153612      49  153621
  153624      47  153618  153621      49  153618  153624      49  153633  153636
      47  153630  153633      49  153630  153636      49  153645  153648      47
  153642  153645      49  153642  153648      49  153657  153660      47  153654
  153657      49  153654  153660      49  153669  153672      47  153666  153669
      49  153666  153672      49  153681  153684      47  153678  153681      49
  153678  153684      49  153693  153696      47  153690  153693      49  153690
  153696      49  153705  153708      47  153702  153705      49  153702  153708
      49  153717  153720      47  153714  153717      49  153714  153720      49
  153729  153732      47  153726  153729      49  153726  153732      49  153741
  153744      47  153738  153741      49  153738  153744      49  153753  153756
      47  153750  153753      49  153750  153756      49  153765  153768      47
  153762  153765      49  153762  153768      49  153777  153780      47  153774
  153777      49  153774  153780      49  153789  153792      47  153786  153789
      49  153786  153792      49  153801  153804      47  153798  153801      49
  153798  153804      49  153813  153816      47  153810  153813      49  153810
  153816      49  153825  153828      47  153822  153825      49  153822  153828
      49  153837  153840      47  153834  153837      49  153834  153840      49
  153849  153852      47  153846  153849      49  153846  153852      49  153861
  153864      47  153858  153861      49  153858  153864      49  153873  153876
      47  153870  153873      49  153870  153876      49  153885  153888      47
  153882  153885      49  153882  153888      49  153897  153900      47  153894
  153897      49  153894  153900      49  153909  153912      47  153906  153909
      49  153906  153912      49  153921  153924      47  153918  153921      49
  153918  153924      49  153933  153936      47  153930  153933      49  153930
  153936      49  153945  153948      47  153942  153945      49  153942  153948
      49  153957  153960      47  153954  153957      49  153954  153960      49
  153969  153972      47  153966  153969      49  153966  153972      49  153981
  153984      47  153978  153981      49  153978  153984      49  153993  153996
      47  153990  153993      49  153990  153996      49  154005  154008      47
  154002  154005      49  154002  154008      49  154017  154020      47  154014
  154017      49  154014  154020      49  154029  154032      47  154026  154029
      49  154026  154032      49  154041  154044      47  154038  154041      49
  154038  154044      49  154053  154056      47  154050  154053      49  154050
  154056      49  154065  154068      47  154062  154065      49  154062  154068
      49  154077  154080      47  154074  154077      49  154074  154080      49
  154089  154092      47  154086  154089      49  154086  154092      49  154101
  154104      47  154098  154101      49  154098  154104      49  154113  154116
      47  154110  154113      49  154110  154116      49  154125  154128      47
  154122  154125      49  154122  154128      49  154137  154140      47  154134
  154137      49  154134  154140      49  154149  154152      47  154146  154149
      49  154146  154152      49  154161  154164      47  154158  154161      49
  154158  154164      49  154173  154176      47  154170  154173      49  154170
  154176      49  154185  154188      47  154182  154185      49  154182  154188
      49  154197  154200      47  154194  154197      49  154194  154200      49
  154209  154212      47  154206  154209      49  154206  154212      49  154221
  154224      47  154218  154221      49  154218  154224      49  154233  154236
      47  154230  154233      49  154230  154236      49  154245  154248      47
  154242  154245      49  154242  154248      49  154257  154260      47  154254
  154257      49  154254  154260      49  154269  154272      47  154266  154269
      49  154266  154272      49  154281  154284      47  154278  154281      49
  154278  154284      49  154293  154296      47  154290  154293      49  154290
  154296      49  154305  154308      47  154302  154305      49  154302  154308
      49  154317  154320      47  154314  154317      49  154314  154320      49
  154329  154332      47  154326  154329      49  154326  154332      49  154341
  154344      47  154338  154341      49  154338  154344      49  154353  154356
      47  154350  154353      49  154350  154356      49  154365  154368      47
  154362  154365      49  154362  154368      49  154377  154380      47  154374
  154377      49  154374  154380      49  154389  154392      47  154386  154389
      49  154386  154392      49  154401  154404      47  154398  154401      49
  154398  154404      49  154413  154416      47  154410  154413      49  154410
  154416      49  154425  154428      47  154422  154425      49  154422  154428
      49  154437  154440      47  154434  154437      49  154434  154440      49
  154449  154452      47  154446  154449      49  154446  154452      49  154461
  154464      47  154458  154461      49  154458  154464      49  154473  154476
      47  154470  154473      49  154470  154476      49  154485  154488      47
  154482  154485      49  154482  154488      49  154497  154500      47  154494
  154497      49  154494  154500      49  154509  154512      47  154506  154509
      49  154506  154512      49  154521  154524      47  154518  154521      49
  154518  154524      49  154533  154536      47  154530  154533      49  154530
  154536      49  154545  154548      47  154542  154545      49  154542  154548
      49  154557  154560      47  154554  154557      49  154554  154560      49
  154569  154572      47  154566  154569      49  154566  154572      49  154581
  154584      47  154578  154581      49  154578  154584      49  154593  154596
      47  154590  154593      49  154590  154596      49  154605  154608      47
  154602  154605      49  154602  154608      49  154617  154620      47  154614
  154617      49  154614  154620      49  154629  154632      47  154626  154629
      49  154626  154632      49  154641  154644      47  154638  154641      49
  154638  154644      49  154653  154656      47  154650  154653      49  154650
  154656      49  154665  154668      47  154662  154665      49  154662  154668
      49  154677  154680      47  154674  154677      49  154674  154680      49
  154689  154692      47  154686  154689      49  154686  154692      49  154701
  154704      47  154698  154701      49  154698  154704      49  154713  154716
      47  154710  154713      49  154710  154716      49  154725  154728      47
  154722  154725      49  154722  154728      49  154737  154740      47  154734
  154737      49  154734  154740      49  154749  154752      47  154746  154749
      49  154746  154752      49  154761  154764      47  154758  154761      49
  154758  154764      49  154773  154776      47  154770  154773      49  154770
  154776      49  154785  154788      47  154782  154785      49  154782  154788
      49  154797  154800      47  154794  154797      49  154794  154800      49
  154809  154812      47  154806  154809      49  154806  154812      49  154821
  154824      47  154818  154821      49  154818  154824      49  154833  154836
      47  154830  154833      49  154830  154836      49  154845  154848      47
  154842  154845      49  154842  154848      49  154857  154860      47  154854
  154857      49  154854  154860      49  154869  154872      47  154866  154869
      49  154866  154872      49  154881  154884      47  154878  154881      49
  154878  154884      49  154893  154896      47  154890  154893      49  154890
  154896      49  154905  154908      47  154902  154905      49  154902  154908
      49  154917  154920      47  154914  154917      49  154914  154920      49
  154929  154932      47  154926  154929      49  154926  154932      49  154941
  154944      47  154938  154941      49  154938  154944      49  154953  154956
      47  154950  154953      49  154950  154956      49  154965  154968      47
  154962  154965      49  154962  154968      49  154977  154980      47  154974
  154977      49  154974  154980      49  154989  154992      47  154986  154989
      49  154986  154992      49  155001  155004      47  154998  155001      49
  154998  155004      49  155013  155016      47  155010  155013      49  155010
  155016      49  155025  155028      47  155022  155025      49  155022  155028
      49  155037  155040      47  155034  155037      49  155034  155040      49
  155049  155052      47  155046  155049      49  155046  155052      49  155061
  155064      47  155058  155061      49  155058  155064      49  155073  155076
      47  155070  155073      49  155070  155076      49  155085  155088      47
  155082  155085      49  155082  155088      49  155097  155100      47  155094
  155097      49  155094  155100      49  155109  155112      47  155106  155109
      49  155106  155112      49  155121  155124      47  155118  155121      49
  155118  155124      49  155133  155136      47  155130  155133      49  155130
  155136      49  155145  155148      47  155142  155145      49  155142  155148
      49  155157  155160      47  155154  155157      49  155154  155160      49
  155169  155172      47  155166  155169      49  155166  155172      49  155181
  155184      47  155178  155181      49  155178  155184      49  155193  155196
      47  155190  155193      49  155190  155196      49  155205  155208      47
  155202  155205      49  155202  155208      49  155217  155220      47  155214
  155217      49  155214  155220      49  155229  155232      47  155226  155229
      49  155226  155232      49  155241  155244      47  155238  155241      49
  155238  155244      49  155253  155256      47  155250  155253      49  155250
  155256      49  155265  155268      47  155262  155265      49  155262  155268
      49  155277  155280      47  155274  155277      49  155274  155280      49
  155289  155292      47  155286  155289      49  155286  155292      49  155301
  155304      47  155298  155301      49  155298  155304      49  155313  155316
      47  155310  155313      49  155310  155316      49  155325  155328      47
  155322  155325      49  155322  155328      49  155337  155340      47  155334
  155337      49  155334  155340      49  155349  155352      47  155346  155349
      49  155346  155352      49  155361  155364      47  155358  155361      49
  155358  155364      49  155373  155376      47  155370  155373      49  155370
  155376      49  155385  155388      47  155382  155385      49  155382  155388
      49  155397  155400      47  155394  155397      49  155394  155400      49
  155409  155412      47  155406  155409      49  155406  155412      49  155421
  155424      47  155418  155421      49  155418  155424      49  155433  155436
      47  155430  155433      49  155430  155436      49  155445  155448      47
  155442  155445      49  155442  155448      49  155457  155460      47  155454
  155457      49  155454  155460      49  155469  155472      47  155466  155469
      49  155466  155472      49  155481  155484      47  155478  155481      49
  155478  155484      49  155493  155496      47  155490  155493      49  155490
  155496      49  155505  155508      47  155502  155505      49  155502  155508
      49  155517  155520      47  155514  155517      49  155514  155520      49
  155529  155532      47  155526  155529      49  155526  155532      49  155541
  155544      47  155538  155541      49  155538  155544      49  155553  155556
      47  155550  155553      49  155550  155556      49  155565  155568      47
  155562  155565      49  155562  155568      49  155577  155580      47  155574
  155577      49  155574  155580      49  155589  155592      47  155586  155589
      49  155586  155592      49  155601  155604      47  155598  155601      49
  155598  155604      49  155613  155616      47  155610  155613      49  155610
  155616      49  155625  155628      47  155622  155625      49  155622  155628
      49  155637  155640      47  155634  155637      49  155634  155640      49
  155649  155652      47  155646  155649      49  155646  155652      49  155661
  155664      47  155658  155661      49  155658  155664      49  155673  155676
      47  155670  155673      49  155670  155676      49  155685  155688      47
  155682  155685      49  155682  155688      49  155697  155700      47  155694
  155697      49  155694  155700      49  155709  155712      47  155706  155709
      49  155706  155712      49  155721  155724      47  155718  155721      49
  155718  155724      49  155733  155736      47  155730  155733      49  155730
  155736      49  155745  155748      47  155742  155745      49  155742  155748
      49  155757  155760      47  155754  155757      49  155754  155760      49
  155769  155772      47  155766  155769      49  155766  155772      49  155781
  155784      47  155778  155781      49  155778  155784      49  155793  155796
      47  155790  155793      49  155790  155796      49  155805  155808      47
  155802  155805      49  155802  155808      49  155817  155820      47  155814
  155817      49  155814  155820      49  155829  155832      47  155826  155829
      49  155826  155832      49  155841  155844      47  155838  155841      49
  155838  155844      49  155853  155856      47  155850  155853      49  155850
  155856      49  155865  155868      47  155862  155865      49  155862  155868
      49  155877  155880      47  155874  155877      49  155874  155880      49
  155889  155892      47  155886  155889      49  155886  155892      49  155901
  155904      47  155898  155901      49  155898  155904      49  155913  155916
      47  155910  155913      49  155910  155916      49  155925  155928      47
  155922  155925      49  155922  155928      49  155937  155940      47  155934
  155937      49  155934  155940      49  155949  155952      47  155946  155949
      49  155946  155952      49  155961  155964      47  155958  155961      49
  155958  155964      49  155973  155976      47  155970  155973      49  155970
  155976      49  155985  155988      47  155982  155985      49  155982  155988
      49  155997  156000      47  155994  155997      49  155994  156000      49
  156009  156012      47  156006  156009      49  156006  156012      49  156021
  156024      47  156018  156021      49  156018  156024      49  156033  156036
      47  156030  156033      49  156030  156036      49  156045  156048      47
  156042  156045      49  156042  156048      49  156057  156060      47  156054
  156057      49  156054  156060      49  156069  156072      47  156066  156069
      49  156066  156072      49  156081  156084      47  156078  156081      49
  156078  156084      49  156093  156096      47  156090  156093      49  156090
  156096      49  156105  156108      47  156102  156105      49  156102  156108
      49  156117  156120      47  156114  156117      49  156114  156120      49
  156129  156132      47  156126  156129      49  156126  156132      49  156141
  156144      47  156138  156141      49  156138  156144      49  156153  156156
      47  156150  156153      49  156150  156156      49  156165  156168      47
  156162  156165      49  156162  156168      49  156177  156180      47  156174
  156177      49  156174  156180      49  156189  156192      47  156186  156189
      49  156186  156192      49  156201  156204      47  156198  156201      49
  156198  156204      49  156213  156216      47  156210  156213      49  156210
  156216      49  156225  156228      47  156222  156225      49  156222  156228
      49  156237  156240      47  156234  156237      49  156234  156240      49
  156249  156252      47  156246  156249      49  156246  156252      49  156261
  156264      47  156258  156261      49  156258  156264      49  156273  156276
      47  156270  156273      49  156270  156276      49  156285  156288      47
  156282  156285      49  156282  156288      49  156297  156300      47  156294
  156297      49  156294  156300      49  156309  156312      47  156306  156309
      49  156306  156312      49  156321  156324      47  156318  156321      49
  156318  156324      49  156333  156336      47  156330  156333      49  156330
  156336      49  156345  156348      47  156342  156345      49  156342  156348
      49  156357  156360      47  156354  156357      49  156354  156360      49
  156369  156372      47  156366  156369      49  156366  156372      49  156381
  156384      47  156378  156381      49  156378  156384      49  156393  156396
      47  156390  156393      49  156390  156396      49  156405  156408      47
  156402  156405      49  156402  156408      49  156417  156420      47  156414
  156417      49  156414  156420      49  156429  156432      47  156426  156429
      49  156426  156432      49  156441  156444      47  156438  156441      49
  156438  156444      49  156453  156456      47  156450  156453      49  156450
  156456      49  156465  156468      47  156462  156465      49  156462  156468
      49  156477  156480      47  156474  156477      49  156474  156480      49
  156489  156492      47  156486  156489      49  156486  156492      49  156501
  156504      47  156498  156501      49  156498  156504      49  156513  156516
      47  156510  156513      49  156510  156516      49  156525  156528      47
  156522  156525      49  156522  156528      49  156537  156540      47  156534
  156537      49  156534  156540      49  156549  156552      47  156546  156549
      49  156546  156552      49  156561  156564      47  156558  156561      49
  156558  156564      49  156573  156576      47  156570  156573      49  156570
  156576      49  156585  156588      47  156582  156585      49  156582  156588
      49  156597  156600      47  156594  156597      49  156594  156600      49
  156609  156612      47  156606  156609      49  156606  156612      49  156621
  156624      47  156618  156621      49  156618  156624      49  156633  156636
      47  156630  156633      49  156630  156636      49  156645  156648      47
  156642  156645      49  156642  156648      49  156657  156660      47  156654
  156657      49  156654  156660      49  156669  156672      47  156666  156669
      49  156666  156672      49  156681  156684      47  156678  156681      49
  156678  156684      49  156693  156696      47  156690  156693      49  156690
  156696      49  156705  156708      47  156702  156705      49  156702  156708
      49  156717  156720      47  156714  156717      49  156714  156720      49
  156729  156732      47  156726  156729      49  156726  156732      49  156741
  156744      47  156738  156741      49  156738  156744      49  156753  156756
      47  156750  156753      49  156750  156756      49  156765  156768      47
  156762  156765      49  156762  156768      49  156777  156780      47  156774
  156777      49  156774  156780      49  156789  156792      47  156786  156789
      49  156786  156792      49  156801  156804      47  156798  156801      49
  156798  156804      49  156813  156816      47  156810  156813      49  156810
  156816      49  156825  156828      47  156822  156825      49  156822  156828
      49  156837  156840      47  156834  156837      49  156834  156840      49
  156849  156852      47  156846  156849      49  156846  156852      49  156861
  156864      47  156858  156861      49  156858  156864      49  156873  156876
      47  156870  156873      49  156870  156876      49  156885  156888      47
  156882  156885      49  156882  156888      49  156897  156900      47  156894
  156897      49  156894  156900      49  156909  156912      47  156906  156909
      49  156906  156912      49  156921  156924      47  156918  156921      49
  156918  156924      49  156933  156936      47  156930  156933      49  156930
  156936      49  156945  156948      47  156942  156945      49  156942  156948
      49  156957  156960      47  156954  156957      49  156954  156960      49
  156969  156972      47  156966  156969      49  156966  156972      49  156981
  156984      47  156978  156981      49  156978  156984      49  156993  156996
      47  156990  156993      49  156990  156996      49  157005  157008      47
  157002  157005      49  157002  157008      49  157017  157020      47  157014
  157017      49  157014  157020      49  157029  157032      47  157026  157029
      49  157026  157032      49  157041  157044      47  157038  157041      49
  157038  157044      49  157053  157056      47  157050  157053      49  157050
  157056      49  157065  157068      47  157062  157065      49  157062  157068
      49  157077  157080      47  157074  157077      49  157074  157080      49
  157089  157092      47  157086  157089      49  157086  157092      49  157101
  157104      47  157098  157101      49  157098  157104      49  157113  157116
      47  157110  157113      49  157110  157116      49  157125  157128      47
  157122  157125      49  157122  157128      49  157137  157140      47  157134
  157137      49  157134  157140      49  157149  157152      47  157146  157149
      49  157146  157152      49  157161  157164      47  157158  157161      49
  157158  157164      49  157173  157176      47  157170  157173      49  157170
  157176      49  157185  157188      47  157182  157185      49  157182  157188
      49  157197  157200      47  157194  157197      49  157194  157200      49
  157209  157212      47  157206  157209      49  157206  157212      49  157221
  157224      47  157218  157221      49  157218  157224      49  157233  157236
      47  157230  157233      49  157230  157236      49  157245  157248      47
  157242  157245      49  157242  157248      49  157257  157260      47  157254
  157257      49  157254  157260      49  157269  157272      47  157266  157269
      49  157266  157272      49  157281  157284      47  157278  157281      49
  157278  157284      49  157293  157296      47  157290  157293      49  157290
  157296      49  157305  157308      47  157302  157305      49  157302  157308
      49  157317  157320      47  157314  157317      49  157314  157320      49
  157329  157332      47  157326  157329      49  157326  157332      49  157341
  157344      47  157338  157341      49  157338  157344      49  157353  157356
      47  157350  157353      49  157350  157356      49  157365  157368      47
  157362  157365      49  157362  157368      49  157377  157380      47  157374
  157377      49  157374  157380      49  157389  157392      47  157386  157389
      49  157386  157392      49  157401  157404      47  157398  157401      49
  157398  157404      49  157413  157416      47  157410  157413      49  157410
  157416      49  157425  157428      47  157422  157425      49  157422  157428
      49  157437  157440      47  157434  157437      49  157434  157440      49
  157449  157452      47  157446  157449      49  157446  157452      49  157461
  157464      47  157458  157461      49  157458  157464      49  157473  157476
      47  157470  157473      49  157470  157476      49  157485  157488      47
  157482  157485      49  157482  157488      49  157497  157500      47  157494
  157497      49  157494  157500      49  157509  157512      47  157506  157509
      49  157506  157512      49  157521  157524      47  157518  157521      49
  157518  157524      49  157533  157536      47  157530  157533      49  157530
  157536      49  157545  157548      47  157542  157545      49  157542  157548
      49  157557  157560      47  157554  157557      49  157554  157560      49
  157569  157572      47  157566  157569      49  157566  157572      49  157581
  157584      47  157578  157581      49  157578  157584      49  157593  157596
      47  157590  157593      49  157590  157596      49  157605  157608      47
  157602  157605      49  157602  157608      49  157617  157620      47  157614
  157617      49  157614  157620      49  157629  157632      47  157626  157629
      49  157626  157632      49  157641  157644      47  157638  157641      49
  157638  157644      49  157653  157656      47  157650  157653      49  157650
  157656      49  157665  157668      47  157662  157665      49  157662  157668
      49  157677  157680      47  157674  157677      49  157674  157680      49
  157689  157692      47  157686  157689      49  157686  157692      49  157701
  157704      47  157698  157701      49  157698  157704      49  157713  157716
      47  157710  157713      49  157710  157716      49  157725  157728      47
  157722  157725      49  157722  157728      49  157737  157740      47  157734
  157737      49  157734  157740      49  157749  157752      47  157746  157749
      49  157746  157752      49  157761  157764      47  157758  157761      49
  157758  157764      49  157773  157776      47  157770  157773      49  157770
  157776      49  157785  157788      47  157782  157785      49  157782  157788
      49  157797  157800      47  157794  157797      49  157794  157800      49
  157809  157812      47  157806  157809      49  157806  157812      49  157821
  157824      47  157818  157821      49  157818  157824      49  157833  157836
      47  157830  157833      49  157830  157836      49  157845  157848      47
  157842  157845      49  157842  157848      49  157857  157860      47  157854
  157857      49  157854  157860      49  157869  157872      47  157866  157869
      49  157866  157872      49  157881  157884      47  157878  157881      49
  157878  157884      49  157893  157896      47  157890  157893      49  157890
  157896      49  157905  157908      47  157902  157905      49  157902  157908
      49  157917  157920      47  157914  157917      49  157914  157920      49
  157929  157932      47  157926  157929      49  157926  157932      49  157941
  157944      47  157938  157941      49  157938  157944      49  157953  157956
      47  157950  157953      49  157950  157956      49  157965  157968      47
  157962  157965      49  157962  157968      49  157977  157980      47  157974
  157977      49  157974  157980      49  157989  157992      47  157986  157989
      49  157986  157992      49  158001  158004      47  157998  158001      49
  157998  158004      49  158013  158016      47  158010  158013      49  158010
  158016      49  158025  158028      47  158022  158025      49  158022  158028
      49  158037  158040      47  158034  158037      49  158034  158040      49
  158049  158052      47  158046  158049      49  158046  158052      49  158061
  158064      47  158058  158061      49  158058  158064      49  158073  158076
      47  158070  158073      49  158070  158076      49  158085  158088      47
  158082  158085      49  158082  158088      49  158097  158100      47  158094
  158097      49  158094  158100      49  158109  158112      47  158106  158109
      49  158106  158112      49  158121  158124      47  158118  158121      49
  158118  158124      49  158133  158136      47  158130  158133      49  158130
  158136      49  158145  158148      47  158142  158145      49  158142  158148
      49  158157  158160      47  158154  158157      49  158154  158160      49
  158169  158172      47  158166  158169      49  158166  158172      49  158181
  158184      47  158178  158181      49  158178  158184      49  158193  158196
      47  158190  158193      49  158190  158196      49  158205  158208      47
  158202  158205      49  158202  158208      49  158217  158220      47  158214
  158217      49  158214  158220      49  158229  158232      47  158226  158229
      49  158226  158232      49  158241  158244      47  158238  158241      49
  158238  158244      49  158253  158256      47  158250  158253      49  158250
  158256      49  158265  158268      47  158262  158265      49  158262  158268
      49  158277  158280      47  158274  158277      49  158274  158280      49
  158289  158292      47  158286  158289      49  158286  158292      49  158301
  158304      47  158298  158301      49  158298  158304      49  158313  158316
      47  158310  158313      49  158310  158316      49  158325  158328      47
  158322  158325      49  158322  158328      49  158337  158340      47  158334
  158337      49  158334  158340      49  158349  158352      47  158346  158349
      49  158346  158352      49  158361  158364      47  158358  158361      49
  158358  158364      49  158373  158376      47  158370  158373      49  158370
  158376      49  158385  158388      47  158382  158385      49  158382  158388
      49  158397  158400      47  158394  158397      49  158394  158400      49
  158409  158412      47  158406  158409      49  158406  158412      49  158421
  158424      47  158418  158421      49  158418  158424      49  158433  158436
      47  158430  158433      49  158430  158436      49  158445  158448      47
  158442  158445      49  158442  158448      49  158457  158460      47  158454
  158457      49  158454  158460      49  158469  158472      47  158466  158469
      49  158466  158472      49  158481  158484      47  158478  158481      49
  158478  158484      49  158493  158496      47  158490  158493      49  158490
  158496      49  158505  158508      47  158502  158505      49  158502  158508
      49  158517  158520      47  158514  158517      49  158514  158520      49
  158529  158532      47  158526  158529      49  158526  158532      49  158541
  158544      47  158538  158541      49  158538  158544      49  158553  158556
      47  158550  158553      49  158550  158556      49  158565  158568      47
  158562  158565      49  158562  158568      49  158577  158580      47  158574
  158577      49  158574  158580      49  158589  158592      47  158586  158589
      49  158586  158592      49    6966    6975      50    6963    6972      52
    6933    6969      61
%FLAG BONDS_WITHOUT_HYDROGEN                                                    
%FORMAT(10I8)                                                                   
      93      96       1      81      87       4      75      81       5      75
      93       6      69      72       7      57      60       9      57      69
      10      51      57      12      45      48      13      45      51      14
      42      45      15      42      72      16      39      42      17      33
      39      19      30      33      20      30      72      21      24      30
      23      24      81       5      21      24       6      15      21       6
      15      75       5       6      15      25       3       6      26     195
     198       1     183     189       4     177     183       5     177     195
       6     171     174       7     159     162       9     159     171      10
     153     159      12     147     150      13     147     153      14     144
     147      15     144     174      16     141     144      17     135     141
      19     132     135      20     132     174      21     126     132      23
     126     183       5     123     126       6     117     123       6     117
     177       5     108     117      25     105     108      27      96      99
      28      96     102      28      96     105       1     294     297       1
     282     288       4     276     282       5     276     294       6     270
     273       7     264     270      30     261     264      30     249     252
       9     249     261      10     246     249      31     246     273      16
     243     246      17     237     243      33     234     237      34     234
     273      21     228     234      23     228     282       5     225     228
       6     219     225       6     219     276       5     210     219      25
     207     210      27     198     201      28     198     204      28     198
     207       1     384     387       1     372     378       4     366     372
       5     366     384       6     360     363      13     354     360      14
     348     351      13     348     354      14     342     348      36     336
     342      38     333     336      39     333     360      40     327     333
      23     327     372       5     324     327       6     318     324       6
     318     366       5     309     318      25     306     309      27     297
     300      28     297     303      28     297     306       1     477     480
       1     465     471       4     459     465       5     459     477       6
     453     456      13     450     453      41     438     441       9     438
     450      10     432     438      43     426     432      45     423     426
      46     423     453      40     417     423      23     417     465       5
     414     417       6     408     414       6     408     459       5     399
     408      25     396     399      27     387     390      28     387     393
      28     387     396       1     576     579       1     564     570       4
     558     564       5     558     576       6     552     555       7     546
     552      30     543     546      30     531     534       9     531     543
      10     528     531      31     528     555      16     525     528      17
     519     525      33     516     519      34     516     555      21     510
     516      23     510     564       5     507     510       6     501     507
       6     501     558       5     492     501      25     489     492      27
     480     483      28     480     486      28     480     489       1     666
     669       1     654     660       4     648     654       5     648     666
       6     642     645      13     636     642      14     630     633      13
     630     636      14     624     630      36     618     624      38     615
     618      39     615     642      40     609     615      23     609     654
       5     606     609       6     600     606       6     600     648       5
     591     600      25     588     591      27     579     582      28     579
     585      28     579     588       1     765     768       1     753     759
       4     747     753       5     747     765       6     741     744       7
     735     741      30     732     735      30     720     723       9     720
     732      10     717     720      31     717     744      16     714     717
      17     708     714      33     705     708      34     705     744      21
     699     705      23     699     753       5     696     699       6     690
     696       6     690     747       5     681     690      25     678     681
      27     669     672      28     669     675      28     669     678       1
     855     858       1     843     849       4     837     843       5     837
     855       6     831     834      13     825     831      14     819     822
      13     819     825      14     813     819      36     807     813      38
     804     807      39     804     831      40     798     804      23     798
     843       5     795     798       6     789     795       6     789     837
       5     780     789      25     777     780      27     768     771      28
     768     774      28     768     777       1     954     957       1     942
     948       4     936     942       5     936     954       6     930     933
       7     924     930      30     921     924      30     909     912       9
     909     921      10     906     909      31     906     933      16     903
     906      17     897     903      33     894     897      34     894     933
      21     888     894      23     888     942       5     885     888       6
     879     885       6     879     936       5     870     879      25     867
     870      27     858     861      28     858     864      28     858     867
       1    1053    1056       1    1041    1047       4    1035    1041       5
    1035    1053       6    1029    1032       7    1023    1029      30    1020
    1023      30    1008    1011       9    1008    1020      10    1005    1008
      31    1005    1032      16    1002    1005      17     996    1002      33
     993     996      34     993    1032      21     987     993      23     987
    1041       5     984     987       6     978     984       6     978    1035
       5     969     978      25     966     969      27     957     960      28
     957     963      28     957     966       1    1143    1146       1    1131
    1137       4    1125    1131       5    1125    1143       6    1119    1122
      13    1113    1119      14    1107    1110      13    1107    1113      14
    1101    1107      36    1095    1101      38    1092    1095      39    1092
    1119      40    1086    1092      23    1086    1131       5    1083    1086
       6    1077    1083       6    1077    1125       5    1068    1077      25
    1065    1068      27    1056    1059      28    1056    1062      28    1056
    1065       1    1236    1239       1    1224    1230       4    1218    1224
       5    1218    1236       6    1212    1215      13    1209    1212      41
    1197    1200       9    1197    1209      10    1191    1197      43    1185
    1191      45    1182    1185      46    1182    1212      40    1176    1182
      23    1176    1224       5    1173    1176       6    1167    1173       6
    1167    1218       5    1158    1167      25    1155    1158      27    1146
    1149      28    1146    1152      28    1146    1155       1    1338    1341
       1    1326    1332       4    1320    1326       5    1320    1338       6
    1314    1317       7    1302    1305       9    1302    1314      10    1296
    1302      12    1290    1293      13    1290    1296      14    1287    1290
      15    1287    1317      16    1284    1287      17    1278    1284      19
    1275    1278      20    1275    1317      21    1269    1275      23    1269
    1326       5    1266    1269       6    1260    1266       6    1260    1320
       5    1251    1260      25    1248    1251      27    1239    1242      28
    1239    1245      28    1239    1248       1    1431    1434       1    1419
    1425       4    1413    1419       5    1413    1431       6    1407    1410
      13    1404    1407      41    1392    1395       9    1392    1404      10
    1386    1392      43    1380    1386      45    1377    1380      46    1377
    1407      40    1371    1377      23    1371    1419       5    1368    1371
       6    1362    1368       6    1362    1413       5    1353    1362      25
    1350    1353      27    1341    1344      28    1341    1347      28    1341
    1350       1    1533    1536       1    1521    1527       4    1515    1521
       5    1515    1533       6    1509    1512       7    1497    1500       9
    1497    1509      10    1491    1497      12    1485    1488      13    1485
    1491      14    1482    1485      15    1482    1512      16    1479    1482
      17    1473    1479      19    1470    1473      20    1470    1512      21
    1464    1470      23    1464    1521       5    1461    1464       6    1455
    1461       6    1455    1515       5    1446    1455      25    1443    1446
      27    1434    1437      28    1434    1440      28    1434    1443       1
    1623    1626       1    1611    1617       4    1605    1611       5    1605
    1623       6    1599    1602      13    1593    1599      14    1587    1590
      13    1587    1593      14    1581    1587      36    1575    1581      38
    1572    1575      39    1572    1599      40    1566    1572      23    1566
    1611       5    1563    1566       6    1557    1563       6    1557    1605
       5    1548    1557      25    1545    1548      27    1536    1539      28
    1536    1542      28    1536    1545       1    1725    1728       1    1713
    1719       4    1707    1713       5    1707    1725       6    1701    1704
       7    1689    1692       9    1689    1701      10    1683    1689      12
    1677    1680      13    1677    1683      14    1674    1677      15    1674
    1704      16    1671    1674      17    1665    1671      19    1662    1665
      20    1662    1704      21    1656    1662      23    1656    1713       5
    1653    1656       6    1647    1653       6    1647    1707       5    1638
    1647      25    1635    1638      27    1626    1629      28    1626    1632
      28    1626    1635       1    1827    1830       1    1815    1821       4
    1809    1815       5    1809    1827       6    1803    1806       7    1791
    1794       9    1791    1803      10    1785    1791      12    1779    1782
      13    1779    1785      14    1776    1779      15    1776    1806      16
    1773    1776      17    1767    1773      19    1764    1767      20    1764
    1806      21    1758    1764      23    1758    1815       5    1755    1758
       6    1749    1755       6    1749    1809       5    1740    1749      25
    1737    1740      27    1728    1731      28    1728    1734      28    1728
    1737       1    1926    1929       1    1914    1920       4    1908    1914
       5    1908    1926       6    1902    1905       7    1896    1902      30
    1893    1896      30    1881    1884       9    1881    1893      10    1878
    1881      31    1878    1905      16    1875    1878      17    1869    1875
      33    1866    1869      34    1866    1905      21    1860    1866      23
    1860    1914       5    1857    1860       6    1851    1857       6    1851
    1908       5    1842    1851      25    1839    1842      27    1830    1833
      28    1830    1836      28    1830    1839       1    2016    2019       1
    2004    2010       4    1998    2004       5    1998    2016       6    1992
    1995      13    1986    1992      14    1980    1983      13    1980    1986
      14    1974    1980      36    1968    1974      38    1965    1968      39
    1965    1992      40    1959    1965      23    1959    2004       5    1956
    1959       6    1950    1956       6    1950    1998       5    1941    1950
      25    1938    1941      27    1929    1932      28    1929    1935      28
    1929    1938       1    2115    2118       1    2103    2109       4    2097
    2103       5    2097    2115       6    2091    2094       7    2085    2091
      30    2082    2085      30    2070    2073       9    2070    2082      10
    2067    2070      31    2067    2094      16    2064    2067      17    2058
    2064      33    2055    2058      34    2055    2094      21    2049    2055
      23    2049    2103       5    2046    2049       6    2040    2046       6
    2040    2097       5    2031    2040      25    2028    2031      27    2019
    2022      28    2019    2025      28    2019    2028       1    2205    2208
       1    2193    2199       4    2187    2193       5    2187    2205       6
    2181    2184      13    2175    2181      14    2169    2172      13    2169
    2175      14    2163    2169      36    2157    2163      38    2154    2157
      39    2154    2181      40    2148    2154      23    2148    2193       5
    2145    2148       6    2139    2145       6    2139    2187       5    2130
    2139      25    2127    2130      27    2118    2121      28    2118    2124
      28    2118    2127       1    2307    2310       1    2295    2301       4
    2289    2295       5    2289    2307       6    2283    2286       7    2271
    2274       9    2271    2283      10    2265    2271      12    2259    2262
      13    2259    2265      14    2256    2259      15    2256    2286      16
    2253    2256      17    2247    2253      19    2244    2247      20    2244
    2286      21    2238    2244      23    2238    2295       5    2235    2238
       6    2229    2235       6    2229    2289       5    2220    2229      25
    2217    2220      27    2208    2211      28    2208    2214      28    2208
    2217       1    2409    2412       1    2397    2403       4    2391    2397
       5    2391    2409       6    2385    2388       7    2373    2376       9
    2373    2385      10    2367    2373      12    2361    2364      13    2361
    2367      14    2358    2361      15    2358    2388      16    2355    2358
      17    2349    2355      19    2346    2349      20    2346    2388      21
    2340    2346      23    2340    2397       5    2337    2340       6    2331
    2337       6    2331    2391       5    2322    2331      25    2319    2322
      27    2310    2313      28    2310    2316      28    2310    2319       1
    2502    2505       1    2490    2496       4    2484    2490       5    2484
    2502       6    2478    2481      13    2475    2478      41    2463    2466
       9    2463    2475      10    2457    2463      43    2451    2457      45
    2448    2451      46    2448    2478      40    2442    2448      23    2442
    2490       5    2439    2442       6    2433    2439       6    2433    2484
       5    2424    2433      25    2421    2424      27    2412    2415      28
    2412    2418      28    2412    2421       1    2601    2604       1    2589
    2595       4    2583    2589       5    2583    2601       6    2577    2580
       7    2571    2577      30    2568    2571      30    2556    2559       9
    2556    2568      10    2553    2556      31    2553    2580      16    2550
    2553      17    2544    2550      33    2541    2544      34    2541    2580
      21    2535    2541      23    2535    2589       5    2532    2535       6
    2526    2532       6    2526    2583       5    2517    2526      25    2514
    2517      27    2505    2508      28    2505    2511      28    2505    2514
       1    2694    2697       1    2682    2688       4    2676    2682       5
    2676    2694       6    2670    2673      13    2667    2670      41    2655
    2658       9    2655    2667      10    2649    2655      43    2643    2649
      45    2640    2643      46    2640    2670      40    2634    2640      23
    2634    2682       5    2631    2634       6    2625    2631       6    2625
    2676       5    2616    2625      25    2613    2616      27    2604    2607
      28    2604    2610      28    2604    2613       1    2796    2799       1
    2784    2790       4    2778    2784       5    2778    2796       6    2772
    2775       7    2760    2763       9    2760    2772      10    2754    2760
      12    2748    2751      13    2748    2754      14    2745    2748      15
    2745    2775      16    2742    2745      17    2736    2742      19    2733
    2736      20    2733    2775      21    2727    2733      23    2727    2784
       5    2724    2727       6    2718    2724       6    2718    2778       5
    2709    2718      25    2706    2709      27    2697    2700      28    2697
    2703      28    2697    2706       1    2889    2892       1    2877    2883
       4    2871    2877       5    2871    2889       6    2865    2868      13
    2862    2865      41    2850    2853       9    2850    2862      10    2844
    2850      43    2838    2844      45    2835    2838      46    2835    2865
      40    2829    2835      23    2829    2877       5    2826    2829       6
    2820    2826       6    2820    2871       5    2811    2820      25    2808
    2811      27    2799    2802      28    2799    2805      28    2799    2808
       1    2988    2991       1    2976    2982       4    2970    2976       5
    2970    2988       6    2964    2967       7    2958    2964      30    2955
    2958      30    2943    2946       9    2943    2955      10    2940    2943
      31    2940    2967      16    2937    2940      17    2931    2937      33
    2928    2931      34    2928    2967      21    2922    2928      23    2922
    2976       5    2919    2922       6    2913    2919       6    2913    2970
       5    2904    2913      25    2901    2904      27    2892    2895      28
    2892    2898      28    2892    2901       1    3087    3090       1    3075
    3081       4    3069    3075       5    3069    3087       6    3063    3066
       7    3057    3063      30    3054    3057      30    3042    3045       9
    3042    3054      10    3039    3042      31    3039    3066      16    3036
    3039      17    3030    3036      33    3027    3030      34    3027    3066
      21    3021    3027      23    3021    3075       5    3018    3021       6
    3012    3018       6    3012    3069       5    3003    3012      25    3000
    3003      27    2991    2994      28    2991    2997      28    2991    3000
       1    3189    3192       1    3177    3183       4    3171    3177       5
    3171    3189       6    3165    3168       7    3153    3156       9    3153
    3165      10    3147    3153      12    3141    3144      13    3141    3147
      14    3138    3141      15    3138    3168      16    3135    3138      17
    3129    3135      19    3126    3129      20    3126    3168      21    3120
    3126      23    3120    3177       5    3117    3120       6    3111    3117
       6    3111    3171       5    3102    3111      25    3099    3102      27
    3090    3093      28    3090    3096      28    3090    3099       1    3279
    3282       1    3267    3273       4    3261    3267       5    3261    3279
       6    3255    3258      13    3249    3255      14    3243    3246      13
    3243    3249      14    3237    3243      36    3231    3237      38    3228
    3231      39    3228    3255      40    3222    3228      23    3222    3267
       5    3219    3222       6    3213    3219       6    3213    3261       5
    3204    3213      25    3201    3204      27    3192    3195      28    3192
    3198      28    3192    3201       1    3369    3372       1    3357    3363
       4    3351    3357       5    3351    3369       6    3345    3348      13
    3339    3345      14    3333    3336      13    3333    3339      14    3327
    3333      36    3321    3327      38    3318    3321      39    3318    3345
      40    3312    3318      23    3312    3357       5    3309    3312       6
    3303    3309       6    3303    3351       5    3294    3303      25    3291
    3294      27    3282    3285      28    3282    3288      28    3282    3291
       1    3459    3462       1    3447    3453       4    3441    3447       5
    3441    3459       6    3435    3438      13    3429    3435      14    3423
    3426      13    3423    3429      14    3417    3423      36    3411    3417
      38    3408    3411      39    3408    3435      40    3402    3408      23
    3402    3447       5    3399    3402       6    3393    3399       6    3393
    3441       5    3384    3393      25    3381    3384      27    3372    3375
      28    3372    3378      28    3372    3381       1    3552    3555       1
    3540    3546       4    3534    3540       5    3534    3552       6    3528
    3531      13    3525    3528      41    3513    3516       9    3513    3525
      10    3507    3513      43    3501    3507      45    3498    3501      46
    3498    3528      40    3492    3498      23    3492    3540       5    3489
    3492       6    3483    3489       6    3483    3534       5    3474    3483
      25    3471    3474      27    3462    3465      28    3462    3468      28
    3462    3471       1    3642    3645       1    3630    3636       4    3624
    3630       5    3624    3642       6    3618    3621      13    3612    3618
      14    3606    3609      13    3606    3612      14    3600    3606      36
    3594    3600      38    3591    3594      39    3591    3618      40    3585
    3591      23    3585    3630       5    3582    3585       6    3576    3582
       6    3576    3624       5    3567    3576      25    3564    3567      27
    3555    3558      28    3555    3561      28    3555    3564       1    3741
    3744       1    3729    3735       4    3723    3729       5    3723    3741
       6    3717    3720       7    3711    3717      30    3708    3711      30
    3696    3699       9    3696    3708      10    3693    3696      31    3693
    3720      16    3690    3693      17    3684    3690      33    3681    3684
      34    3681    3720      21    3675    3681      23    3675    3729       5
    3672    3675       6    3666    3672       6    3666    3723       5    3657
    3666      25    3654    3657      27    3645    3648      28    3645    3651
      28    3645    3654       1    3834    3837       1    3822    3828       4
    3816    3822       5    3816    3834       6    3810    3813      13    3807
    3810      41    3795    3798       9    3795    3807      10    3789    3795
      43    3783    3789      45    3780    3783      46    3780    3810      40
    3774    3780      23    3774    3822       5    3771    3774       6    3765
    3771       6    3765    3816       5    3756    3765      25    3753    3756
      27    3744    3747      28    3744    3750      28    3744    3753       1
    3927    3930       1    3915    3921       4    3909    3915       5    3909
    3927       6    3903    3906      13    3900    3903      41    3888    3891
       9    3888    3900      10    3882    3888      43    3876    3882      45
    3873    3876      46    3873    3903      40    3867    3873      23    3867
    3915       5    3864    3867       6    3858    3864       6    3858    3909
       5    3849    3858      25    3846    3849      27    3837    3840      28
    3837    3843      28    3837    3846       1    4029    4032       1    4017
    4023       4    4011    4017       5    4011    4029       6    4005    4008
       7    3993    3996       9    3993    4005      10    3987    3993      12
    3981    3984      13    3981    3987      14    3978    3981      15    3978
    4008      16    3975    3978      17    3969    3975      19    3966    3969
      20    3966    4008      21    3960    3966      23    3960    4017       5
    3957    3960       6    3951    3957       6    3951    4011       5    3942
    3951      25    3939    3942      27    3930    3933      28    3930    3936
      28    3930    3939       1    4131    4134       1    4119    4125       4
    4113    4119       5    4113    4131       6    4107    4110       7    4095
    4098       9    4095    4107      10    4089    4095      12    4083    4086
      13    4083    4089      14    4080    4083      15    4080    4110      16
    4077    4080      17    4071    4077      19    4068    4071      20    4068
    4110      21    4062    4068      23    4062    4119       5    4059    4062
       6    4053    4059       6    4053    4113       5    4044    4053      25
    4041    4044      27    4032    4035      28    4032    4038      28    4032
    4041       1    4233    4236       1    4221    4227       4    4215    4221
       5    4215    4233       6    4209    4212       7    4197    4200       9
    4197    4209      10    4191    4197      12    4185    4188      13    4185
    4191      14    4182    4185      15    4182    4212      16    4179    4182
      17    4173    4179      19    4170    4173      20    4170    4212      21
    4164    4170      23    4164    4221       5    4161    4164       6    4155
    4161       6    4155    4215       5    4146    4155      25    4143    4146
      27    4134    4137      28    4134    4140      28    4134    4143       1
    4326    4329       1    4314    4320       4    4308    4314       5    4308
    4326       6    4302    4305      13    4299    4302      41    4287    4290
       9    4287    4299      10    4281    4287      43    4275    4281      45
    4272    4275      46    4272    4302      40    4266    4272      23    4266
    4314       5    4263    4266       6    4257    4263       6    4257    4308
       5    4248    4257      25    4245    4248      27    4236    4239      28
    4236    4242      28    4236    4245       1    4425    4428       1    4413
    4419       4    4407    4413       5    4407    4425       6    4401    4404
       7    4395    4401      30    4392    4395      30    4380    4383       9
    4380    4392      10    4377    4380      31    4377    4404      16    4374
    4377      17    4368    4374      33    4365    4368      34    4365    4404
      21    4359    4365      23    4359    4413       5    4356    4359       6
    4350    4356       6    4350    4407       5    4341    4350      25    4338
    4341      27    4329    4332      28    4329    4335      28    4329    4338
       1    4518    4521       1    4506    4512       4    4500    4506       5
    4500    4518       6    4494    4497      13    4491    4494      41    4479
    4482       9    4479    4491      10    4473    4479      43    4467    4473
      45    4464    4467      46    4464    4494      40    4458    4464      23
    4458    4506       5    4455    4458       6    4449    4455       6    4449
    4500       5    4440    4449      25    4437    4440      27    4428    4431
      28    4428    4434      28    4428    4437       1    4611    4614       1
    4599    4605       4    4593    4599       5    4593    4611       6    4587
    4590      13    4584    4587      41    4572    4575       9    4572    4584
      10    4566    4572      43    4560    4566      45    4557    4560      46
    4557    4587      40    4551    4557      23    4551    4599       5    4548
    4551       6    4542    4548       6    4542    4593       5    4533    4542
      25    4530    4533      27    4521    4524      28    4521    4527      28
    4521    4530       1    4713    4716       1    4701    4707       4    4695
    4701       5    4695    4713       6    4689    4692       7    4677    4680
       9    4677    4689      10    4671    4677      12    4665    4668      13
    4665    4671      14    4662    4665      15    4662    4692      16    4659
    4662      17    4653    4659      19    4650    4653      20    4650    4692
      21    4644    4650      23    4644    4701       5    4641    4644       6
    4635    4641       6    4635    4695       5    4626    4635      25    4623
    4626      27    4614    4617      28    4614    4620      28    4614    4623
       1    4803    4806       1    4791    4797       4    4785    4791       5
    4785    4803       6    4779    4782      13    4773    4779      14    4767
    4770      13    4767    4773      14    4761    4767      36    4755    4761
      38    4752    4755      39    4752    4779      40    4746    4752      23
    4746    4791       5    4743    4746       6    4737    4743       6    4737
    4785       5    4728    4737      25    4725    4728      27    4716    4719
      28    4716    4722      28    4716    4725       1    4902    4905       1
    4890    4896       4    4884    4890       5    4884    4902       6    4878
    4881       7    4872    4878      30    4869    4872      30    4857    4860
       9    4857    4869      10    4854    4857      31    4854    4881      16
    4851    4854      17    4845    4851      33    4842    4845      34    4842
    4881      21    4836    4842      23    4836    4890       5    4833    4836
       6    4827    4833       6    4827    4884       5    4818    4827      25
    4815    4818      27    4806    4809      28    4806    4812      28    4806
    4815       1    5001    5004       1    4989    4995       4    4983    4989
       5    4983    5001       6    4977    4980       7    4971    4977      30
    4968    4971      30    4956    4959       9    4956    4968      10    4953
    4956      31    4953    4980      16    4950    4953      17    4944    4950
      33    4941    4944      34    4941    4980      21    4935    4941      23
    4935    4989       5    4932    4935       6    4926    4932       6    4926
    4983       5    4917    4926      25    4914    4917      27    4905    4908
      28    4905    4911      28    4905    4914       1    5100    5103       1
    5088    5094       4    5082    5088       5    5082    5100       6    5076
    5079       7    5070    5076      30    5067    5070      30    5055    5058
       9    5055    5067      10    5052    5055      31    5052    5079      16
    5049    5052      17    5043    5049      33    5040    5043      34    5040
    5079      21    5034    5040      23    5034    5088       5    5031    5034
       6    5025    5031       6    5025    5082       5    5016    5025      25
    5013    5016      27    5004    5007      28    5004    5010      28    5004
    5013       1    5190    5193       1    5178    5184       4    5172    5178
       5    5172    5190       6    5166    5169      13    5160    5166      14
    5154    5157      13    5154    5160      14    5148    5154      36    5142
    5148      38    5139    5142      39    5139    5166      40    5133    5139
      23    5133    5178       5    5130    5133       6    5124    5130       6
    5124    5172       5    5115    5124      25    5112    5115      27    5103
    5106      28    5103    5109      28    5103    5112       1    5292    5295
       1    5280    5286       4    5274    5280       5    5274    5292       6
    5268    5271       7    5256    5259       9    5256    5268      10    5250
    5256      12    5244    5247      13    5244    5250      14    5241    5244
      15    5241    5271      16    5238    5241      17    5232    5238      19
    5229    5232      20    5229    5271      21    5223    5229      23    5223
    5280       5    5220    5223       6    5214    5220       6    5214    5274
       5    5205    5214      25    5202    5205      27    5193    5196      28
    5193    5199      28    5193    5202       1    5382    5385       1    5370
    5376       4    5364    5370       5    5364    5382       6    5358    5361
      13    5352    5358      14    5346    5349      13    5346    5352      14
    5340    5346      36    5334    5340      38    5331    5334      39    5331
    5358      40    5325    5331      23    5325    5370       5    5322    5325
       6    5316    5322       6    5316    5364       5    5307    5316      25
    5304    5307      27    5295    5298      28    5295    5301      28    5295
    5304       1    5475    5478       1    5463    5469       4    5457    5463
       5    5457    5475       6    5451    5454      13    5448    5451      41
    5436    5439       9    5436    5448      10    5430    5436      43    5424
    5430      45    5421    5424      46    5421    5451      40    5415    5421
      23    5415    5463       5    5412    5415       6    5406    5412       6
    5406    5457       5    5397    5406      25    5394    5397      27    5385
    5388      28    5385    5391      28    5385    5394       1    5568    5571
       1    5556    5562       4    5550    5556       5    5550    5568       6
    5544    5547      13    5541    5544      41    5529    5532       9    5529
    5541      10    5523    5529      43    5517    5523      45    5514    5517
      46    5514    5544      40    5508    5514      23    5508    5556       5
    5505    5508       6    5499    5505       6    5499    5550       5    5490
    5499      25    5487    5490      27    5478    5481      28    5478    5484
      28    5478    5487       1    5670    5673       1    5658    5664       4
    5652    5658       5    5652    5670       6    5646    5649       7    5634
    5637       9    5634    5646      10    5628    5634      12    5622    5625
      13    5622    5628      14    5619    5622      15    5619    5649      16
    5616    5619      17    5610    5616      19    5607    5610      20    5607
    5649      21    5601    5607      23    5601    5658       5    5598    5601
       6    5592    5598       6    5592    5652       5    5583    5592      25
    5580    5583      27    5571    5574      28    5571    5577      28    5571
    5580       1    5769    5772       1    5757    5763       4    5751    5757
       5    5751    5769       6    5745    5748       7    5739    5745      30
    5736    5739      30    5724    5727       9    5724    5736      10    5721
    5724      31    5721    5748      16    5718    5721      17    5712    5718
      33    5709    5712      34    5709    5748      21    5703    5709      23
    5703    5757       5    5700    5703       6    5694    5700       6    5694
    5751       5    5685    5694      25    5682    5685      27    5673    5676
      28    5673    5679      28    5673    5682       1    5862    5865       1
    5850    5856       4    5844    5850       5    5844    5862       6    5838
    5841      13    5835    5838      41    5823    5826       9    5823    5835
      10    5817    5823      43    5811    5817      45    5808    5811      46
    5808    5838      40    5802    5808      23    5802    5850       5    5799
    5802       6    5793    5799       6    5793    5844       5    5784    5793
      25    5781    5784      27    5772    5775      28    5772    5778      28
    5772    5781       1    5952    5955       1    5940    5946       4    5934
    5940       5    5934    5952       6    5928    5931      13    5922    5928
      14    5916    5919      13    5916    5922      14    5910    5916      36
    5904    5910      38    5901    5904      39    5901    5928      40    5895
    5901      23    5895    5940       5    5892    5895       6    5886    5892
       6    5886    5934       5    5877    5886      25    5874    5877      27
    5865    5868      28    5865    5871      28    5865    5874       1    6051
    6054       1    6039    6045       4    6033    6039       5    6033    6051
       6    6027    6030       7    6021    6027      30    6018    6021      30
    6006    6009       9    6006    6018      10    6003    6006      31    6003
    6030      16    6000    6003      17    5994    6000      33    5991    5994
      34    5991    6030      21    5985    5991      23    5985    6039       5
    5982    5985       6    5976    5982       6    5976    6033       5    5967
    5976      25    5964    5967      27    5955    5958      28    5955    5961
      28    5955    5964       1    6141    6144       1    6129    6135       4
    6123    6129       5    6123    6141       6    6117    6120      13    6111
    6117      14    6105    6108      13    6105    6111      14    6099    6105
      36    6093    6099      38    6090    6093      39    6090    6117      40
    6084    6090      23    6084    6129       5    6081    6084       6    6075
    6081       6    6075    6123       5    6066    6075      25    6063    6066
      27    6054    6057      28    6054    6060      28    6054    6063       1
    6243    6246       1    6231    6237       4    6225    6231       5    6225
    6243       6    6219    6222       7    6207    6210       9    6207    6219
      10    6201    6207      12    6195    6198      13    6195    6201      14
    6192    6195      15    6192    6222      16    6189    6192      17    6183
    6189      19    6180    6183      20    6180    6222      21    6174    6180
      23    6174    6231       5    6171    6174       6    6165    6171       6
    6165    6225       5    6156    6165      25    6153    6156      27    6144
    6147      28    6144    6150      28    6144    6153       1    6345    6348
       1    6333    6339       4    6327    6333       5    6327    6345       6
    6321    6324       7    6309    6312       9    6309    6321      10    6303
    6309      12    6297    6300      13    6297    6303      14    6294    6297
      15    6294    6324      16    6291    6294      17    6285    6291      19
    6282    6285      20    6282    6324      21    6276    6282      23    6276
    6333       5    6273    6276       6    6267    6273       6    6267    6327
       5    6258    6267      25    6255    6258      27    6246    6249      28
    6246    6252      28    6246    6255       1    6435    6438       1    6423
    6429       4    6417    6423       5    6417    6435       6    6411    6414
      13    6405    6411      14    6399    6402      13    6399    6405      14
    6393    6399      36    6387    6393      38    6384    6387      39    6384
    6411      40    6378    6384      23    6378    6423       5    6375    6378
       6    6369    6375       6    6369    6417       5    6360    6369      25
    6357    6360      27    6348    6351      28    6348    6354      28    6348
    6357       1    6516    6522       4    6510    6516       5    6510    6528
       4    6504    6507      13    6501    6504      41    6489    6492       9
    6489    6501      10    6483    6489      43    6477    6483      45    6474
    6477      46    6474    6504      40    6468    6474      23    6468    6516
       5    6465    6468       6    6459    6465       6    6459    6510       5
    6450    6459      25    6447    6450      27    6438    6441      28    6438
    6444      28    6438    6447       1    6978    6987      48    6990    6999
      48    7002    7011      48    7014    7023      48    7026    7035      48
    7038    7047      48    7050    7059      48    7062    7071      48    7074
    7083      48    7086    7095      48    7098    7107      48    7110    7119
      48    7122    7131      48    7134    7143      48    7146    7155      48
    7158    7167      48    7170    7179      48    7182    7191      48    7194
    7203      48    7206    7215      48    7218    7227      48    7230    7239
      48    7242    7251      48    7254    7263      48    7266    7275      48
    7278    7287      48    7290    7299      48    7302    7311      48    7314
    7323      48    7326    7335      48    7338    7347      48    7350    7359
      48    7362    7371      48    7374    7383      48    7386    7395      48
    7398    7407      48    7410    7419      48    7422    7431      48    7434
    7443      48    7446    7455      48    7458    7467      48    7470    7479
      48    7482    7491      48    7494    7503      48    7506    7515      48
    7518    7527      48    7530    7539      48    7542    7551      48    7554
    7563      48    7566    7575      48    7578    7587      48    7590    7599
      48    7602    7611      48    7614    7623      48    7626    7635      48
    7638    7647      48    7650    7659      48    7662    7671      48    7674
    7683      48    7686    7695      48    7698    7707      48    7710    7719
      48    7722    7731      48    7734    7743      48    7746    7755      48
    7758    7767      48    7770    7779      48    7782    7791      48    7794
    7803      48    7806    7815      48    7818    7827      48    7830    7839
      48    7842    7851      48    7854    7863      48    7866    7875      48
    7878    7887      48    7890    7899      48    7902    7911      48    7914
    7923      48    7926    7935      48    7938    7947      48    7950    7959
      48    7962    7971      48    7974    7983      48    7986    7995      48
    7998    8007      48    8010    8019      48    8022    8031      48    8034
    8043      48    8046    8055      48    8058    8067      48    8070    8079
      48    8082    8091      48    8094    8103      48    8106    8115      48
    8118    8127      48    8130    8139      48    8142    8151      48    8154
    8163      48    8166    8175      48    8178    8187      48    8190    8199
      48    8202    8211      48    8214    8223      48    8226    8235      48
    8238    8247      48    8250    8259      48    8262    8271      48    8274
    8283      48    8286    8295      48    8298    8307      48    8310    8319
      48    8322    8331      48    8334    8343      48    8346    8355      48
    8358    8367      48    8370    8379      48    8382    8391      48    8394
    8403      48    8406    8415      48    8418    8427      48    8430    8439
      48    8442    8451      48    8454    8463      48    8466    8475      48
    8478    8487      48    8490    8499      48    8502    8511      48    8514
    8523      48    8526    8535      48    8538    8547      48    8550    8559
      48    8562    8571      48    8574    8583      48    8586    8595      48
    8598    8607      48    8610    8619      48    8622    8631      48    8634
    8643      48    8646    8655      48    8658    8667      48    8670    8679
      48    8682    8691      48    8694    8703      48    8706    8715      48
    8718    8727      48    8730    8739      48    8742    8751      48    8754
    8763      48    8766    8775      48    8778    8787      48    8790    8799
      48    8802    8811      48    8814    8823      48    8826    8835      48
    8838    8847      48    8850    8859      48    8862    8871      48    8874
    8883      48    8886    8895      48    8898    8907      48    8910    8919
      48    8922    8931      48    8934    8943      48    8946    8955      48
    8958    8967      48    8970    8979      48    8982    8991      48    8994
    9003      48    9006    9015      48    9018    9027      48    9030    9039
      48    9042    9051      48    9054    9063      48    9066    9075      48
    9078    9087      48    9090    9099      48    9102    9111      48    9114
    9123      48    9126    9135      48    9138    9147      48    9150    9159
      48    9162    9171      48    9174    9183      48    9186    9195      48
    9198    9207      48    9210    9219      48    9222    9231      48    9234
    9243      48    9246    9255      48    9258    9267      48    9270    9279
      48    9282    9291      48    9294    9303      48    9306    9315      48
    9318    9327      48    9330    9339      48    9342    9351      48    9354
    9363      48    9366    9375      48    9378    9387      48    9390    9399
      48    9402    9411      48    9414    9423      48    9426    9435      48
    9438    9447      48    9450    9459      48    9462    9471      48    9474
    9483      48    9486    9495      48    9498    9507      48    9510    9519
      48    9522    9531      48    9534    9543      48    9546    9555      48
    9558    9567      48    9570    9579      48    9582    9591      48    9594
    9603      48    9606    9615      48    9618    9627      48    9630    9639
      48    9642    9651      48    9654    9663      48    9666    9675      48
    9678    9687      48    9690    9699      48    9702    9711      48    9714
    9723      48    9726    9735      48    9738    9747      48    9750    9759
      48    9762    9771      48    9774    9783      48    9786    9795      48
    9798    9807      48    9810    9819      48    9822    9831      48    9834
    9843      48    9846    9855      48    9858    9867      48    9870    9879
      48    9882    9891      48    9894    9903      48    9906    9915      48
    9918    9927      48    9930    9939      48    9942    9951      48    9954
    9963      48    9966    9975      48    9978    9987      48    9990    9999
      48   10002   10011      48   10014   10023      48   10026   10035      48
   10038   10047      48   10050   10059      48   10062   10071      48   10074
   10083      48   10086   10095      48   10098   10107      48   10110   10119
      48   10122   10131      48   10134   10143      48   10146   10155      48
   10158   10167      48   10170   10179      48   10182   10191      48   10194
   10203      48   10206   10215      48   10218   10227      48   10230   10239
      48   10242   10251      48   10254   10263      48   10266   10275      48
   10278   10287      48   10290   10299      48   10302   10311      48   10314
   10323      48   10326   10335      48   10338   10347      48   10350   10359
      48   10362   10371      48   10374   10383      48   10386   10395      48
   10398   10407      48   10410   10419      48   10422   10431      48   10434
   10443      48   10446   10455      48   10458   10467      48   10470   10479
      48   10482   10491      48   10494   10503      48   10506   10515      48
   10518   10527      48   10530   10539      48   10542   10551      48   10554
   10563      48   10566   10575      48   10578   10587      48   10590   10599
      48   10602   10611      48   10614   10623      48   10626   10635      48
   10638   10647      48   10650   10659      48   10662   10671      48   10674
   10683      48   10686   10695      48   10698   10707      48   10710   10719
      48   10722   10731      48   10734   10743      48   10746   10755      48
   10758   10767      48   10770   10779      48   10782   10791      48   10794
   10803      48   10806   10815      48   10818   10827      48   10830   10839
      48   10842   10851      48   10854   10863      48   10866   10875      48
   10878   10887      48   10890   10899      48   10902   10911      48   10914
   10923      48   10926   10935      48   10938   10947      48   10950   10959
      48   10962   10971      48   10974   10983      48   10986   10995      48
   10998   11007      48   11010   11019      48   11022   11031      48   11034
   11043      48   11046   11055      48   11058   11067      48   11070   11079
      48   11082   11091      48   11094   11103      48   11106   11115      48
   11118   11127      48   11130   11139      48   11142   11151      48   11154
   11163      48   11166   11175      48   11178   11187      48   11190   11199
      48   11202   11211      48   11214   11223      48   11226   11235      48
   11238   11247      48   11250   11259      48   11262   11271      48   11274
   11283      48   11286   11295      48   11298   11307      48   11310   11319
      48   11322   11331      48   11334   11343      48   11346   11355      48
   11358   11367      48   11370   11379      48   11382   11391      48   11394
   11403      48   11406   11415      48   11418   11427      48   11430   11439
      48   11442   11451      48   11454   11463      48   11466   11475      48
   11478   11487      48   11490   11499      48   11502   11511      48   11514
   11523      48   11526   11535      48   11538   11547      48   11550   11559
      48   11562   11571      48   11574   11583      48   11586   11595      48
   11598   11607      48   11610   11619      48   11622   11631      48   11634
   11643      48   11646   11655      48   11658   11667      48   11670   11679
      48   11682   11691      48   11694   11703      48   11706   11715      48
   11718   11727      48   11730   11739      48   11742   11751      48   11754
   11763      48   11766   11775      48   11778   11787      48   11790   11799
      48   11802   11811      48   11814   11823      48   11826   11835      48
   11838   11847      48   11850   11859      48   11862   11871      48   11874
   11883      48   11886   11895      48   11898   11907      48   11910   11919
      48   11922   11931      48   11934   11943      48   11946   11955      48
   11958   11967      48   11970   11979      48   11982   11991      48   11994
   12003      48   12006   12015      48   12018   12027      48   12030   12039
      48   12042   12051      48   12054   12063      48   12066   12075      48
   12078   12087      48   12090   12099      48   12102   12111      48   12114
   12123      48   12126   12135      48   12138   12147      48   12150   12159
      48   12162   12171      48   12174   12183      48   12186   12195      48
   12198   12207      48   12210   12219      48   12222   12231      48   12234
   12243      48   12246   12255      48   12258   12267      48   12270   12279
      48   12282   12291      48   12294   12303      48   12306   12315      48
   12318   12327      48   12330   12339      48   12342   12351      48   12354
   12363      48   12366   12375      48   12378   12387      48   12390   12399
      48   12402   12411      48   12414   12423      48   12426   12435      48
   12438   12447      48   12450   12459      48   12462   12471      48   12474
   12483      48   12486   12495      48   12498   12507      48   12510   12519
      48   12522   12531      48   12534   12543      48   12546   12555      48
   12558   12567      48   12570   12579      48   12582   12591      48   12594
   12603      48   12606   12615      48   12618   12627      48   12630   12639
      48   12642   12651      48   12654   12663      48   12666   12675      48
   12678   12687      48   12690   12699      48   12702   12711      48   12714
   12723      48   12726   12735      48   12738   12747      48   12750   12759
      48   12762   12771      48   12774   12783      48   12786   12795      48
   12798   12807      48   12810   12819      48   12822   12831      48   12834
   12843      48   12846   12855      48   12858   12867      48   12870   12879
      48   12882   12891      48   12894   12903      48   12906   12915      48
   12918   12927      48   12930   12939      48   12942   12951      48   12954
   12963      48   12966   12975      48   12978   12987      48   12990   12999
      48   13002   13011      48   13014   13023      48   13026   13035      48
   13038   13047      48   13050   13059      48   13062   13071      48   13074
   13083      48   13086   13095      48   13098   13107      48   13110   13119
      48   13122   13131      48   13134   13143      48   13146   13155      48
   13158   13167      48   13170   13179      48   13182   13191      48   13194
   13203      48   13206   13215      48   13218   13227      48   13230   13239
      48   13242   13251      48   13254   13263      48   13266   13275      48
   13278   13287      48   13290   13299      48   13302   13311      48   13314
   13323      48   13326   13335      48   13338   13347      48   13350   13359
      48   13362   13371      48   13374   13383      48   13386   13395      48
   13398   13407      48   13410   13419      48   13422   13431      48   13434
   13443      48   13446   13455      48   13458   13467      48   13470   13479
      48   13482   13491      48   13494   13503      48   13506   13515      48
   13518   13527      48   13530   13539      48   13542   13551      48   13554
   13563      48   13566   13575      48   13578   13587      48   13590   13599
      48   13602   13611      48   13614   13623      48   13626   13635      48
   13638   13647      48   13650   13659      48   13662   13671      48   13674
   13683      48   13686   13695      48   13698   13707      48   13710   13719
      48   13722   13731      48   13734   13743      48   13746   13755      48
   13758   13767      48   13770   13779      48   13782   13791      48   13794
   13803      48   13806   13815      48   13818   13827      48   13830   13839
      48   13842   13851      48   13854   13863      48   13866   13875      48
   13878   13887      48   13890   13899      48   13902   13911      48   13914
   13923      48   13926   13935      48   13938   13947      48   13950   13959
      48   13962   13971      48   13974   13983      48   13986   13995      48
   13998   14007      48   14010   14019      48   14022   14031      48   14034
   14043      48   14046   14055      48   14058   14067      48   14070   14079
      48   14082   14091      48   14094   14103      48   14106   14115      48
   14118   14127      48   14130   14139      48   14142   14151      48   14154
   14163      48   14166   14175      48   14178   14187      48   14190   14199
      48   14202   14211      48   14214   14223      48   14226   14235      48
   14238   14247      48   14250   14259      48   14262   14271      48   14274
   14283      48   14286   14295      48   14298   14307      48   14310   14319
      48   14322   14331      48   14334   14343      48   14346   14355      48
   14358   14367      48   14370   14379      48   14382   14391      48   14394
   14403      48   14406   14415      48   14418   14427      48   14430   14439
      48   14442   14451      48   14454   14463      48   14466   14475      48
   14478   14487      48   14490   14499      48   14502   14511      48   14514
   14523      48   14526   14535      48   14538   14547      48   14550   14559
      48   14562   14571      48   14574   14583      48   14586   14595      48
   14598   14607      48   14610   14619      48   14622   14631      48   14634
   14643      48   14646   14655      48   14658   14667      48   14670   14679
      48   14682   14691      48   14694   14703      48   14706   14715      48
   14718   14727      48   14730   14739      48   14742   14751      48   14754
   14763      48   14766   14775      48   14778   14787      48   14790   14799
      48   14802   14811      48   14814   14823      48   14826   14835      48
   14838   14847      48   14850   14859      48   14862   14871      48   14874
   14883      48   14886   14895      48   14898   14907      48   14910   14919
      48   14922   14931      48   14934   14943      48   14946   14955      48
   14958   14967      48   14970   14979      48   14982   14991      48   14994
   15003      48   15006   15015      48   15018   15027      48   15030   15039
      48   15042   15051      48   15054   15063      48   15066   15075      48
   15078   15087      48   15090   15099      48   15102   15111      48   15114
   15123      48   15126   15135      48   15138   15147      48   15150   15159
      48   15162   15171      48   15174   15183      48   15186   15195      48
   15198   15207      48   15210   15219      48   15222   15231      48   15234
   15243      48   15246   15255      48   15258   15267      48   15270   15279
      48   15282   15291      48   15294   15303      48   15306   15315      48
   15318   15327      48   15330   15339      48   15342   15351      48   15354
   15363      48   15366   15375      48   15378   15387      48   15390   15399
      48   15402   15411      48   15414   15423      48   15426   15435      48
   15438   15447      48   15450   15459      48   15462   15471      48   15474
   15483      48   15486   15495      48   15498   15507      48   15510   15519
      48   15522   15531      48   15534   15543      48   15546   15555      48
   15558   15567      48   15570   15579      48   15582   15591      48   15594
   15603      48   15606   15615      48   15618   15627      48   15630   15639
      48   15642   15651      48   15654   15663      48   15666   15675      48
   15678   15687      48   15690   15699      48   15702   15711      48   15714
   15723      48   15726   15735      48   15738   15747      48   15750   15759
      48   15762   15771      48   15774   15783      48   15786   15795      48
   15798   15807      48   15810   15819      48   15822   15831      48   15834
   15843      48   15846   15855      48   15858   15867      48   15870   15879
      48   15882   15891      48   15894   15903      48   15906   15915      48
   15918   15927      48   15930   15939      48   15942   15951      48   15954
   15963      48   15966   15975      48   15978   15987      48   15990   15999
      48   16002   16011      48   16014   16023      48   16026   16035      48
   16038   16047      48   16050   16059      48   16062   16071      48   16074
   16083      48   16086   16095      48   16098   16107      48   16110   16119
      48   16122   16131      48   16134   16143      48   16146   16155      48
   16158   16167      48   16170   16179      48   16182   16191      48   16194
   16203      48   16206   16215      48   16218   16227      48   16230   16239
      48   16242   16251      48   16254   16263      48   16266   16275      48
   16278   16287      48   16290   16299      48   16302   16311      48   16314
   16323      48   16326   16335      48   16338   16347      48   16350   16359
      48   16362   16371      48   16374   16383      48   16386   16395      48
   16398   16407      48   16410   16419      48   16422   16431      48   16434
   16443      48   16446   16455      48   16458   16467      48   16470   16479
      48   16482   16491      48   16494   16503      48   16506   16515      48
   16518   16527      48   16530   16539      48   16542   16551      48   16554
   16563      48   16566   16575      48   16578   16587      48   16590   16599
      48   16602   16611      48   16614   16623      48   16626   16635      48
   16638   16647      48   16650   16659      48   16662   16671      48   16674
   16683      48   16686   16695      48   16698   16707      48   16710   16719
      48   16722   16731      48   16734   16743      48   16746   16755      48
   16758   16767      48   16770   16779      48   16782   16791      48   16794
   16803      48   16806   16815      48   16818   16827      48   16830   16839
      48   16842   16851      48   16854   16863      48   16866   16875      48
   16878   16887      48   16890   16899      48   16902   16911      48   16914
   16923      48   16926   16935      48   16938   16947      48   16950   16959
      48   16962   16971      48   16974   16983      48   16986   16995      48
   16998   17007      48   17010   17019      48   17022   17031      48   17034
   17043      48   17046   17055      48   17058   17067      48   17070   17079
      48   17082   17091      48   17094   17103      48   17106   17115      48
   17118   17127      48   17130   17139      48   17142   17151      48   17154
   17163      48   17166   17175      48   17178   17187      48   17190   17199
      48   17202   17211      48   17214   17223      48   17226   17235      48
   17238   17247      48   17250   17259      48   17262   17271      48   17274
   17283      48   17286   17295      48   17298   17307      48   17310   17319
      48   17322   17331      48   17334   17343      48   17346   17355      48
   17358   17367      48   17370   17379      48   17382   17391      48   17394
   17403      48   17406   17415      48   17418   17427      48   17430   17439
      48   17442   17451      48   17454   17463      48   17466   17475      48
   17478   17487      48   17490   17499      48   17502   17511      48   17514
   17523      48   17526   17535      48   17538   17547      48   17550   17559
      48   17562   17571      48   17574   17583      48   17586   17595      48
   17598   17607      48   17610   17619      48   17622   17631      48   17634
   17643      48   17646   17655      48   17658   17667      48   17670   17679
      48   17682   17691      48   17694   17703      48   17706   17715      48
   17718   17727      48   17730   17739      48   17742   17751      48   17754
   17763      48   17766   17775      48   17778   17787      48   17790   17799
      48   17802   17811      48   17814   17823      48   17826   17835      48
   17838   17847      48   17850   17859      48   17862   17871      48   17874
   17883      48   17886   17895      48   17898   17907      48   17910   17919
      48   17922   17931      48   17934   17943      48   17946   17955      48
   17958   17967      48   17970   17979      48   17982   17991      48   17994
   18003      48   18006   18015      48   18018   18027      48   18030   18039
      48   18042   18051      48   18054   18063      48   18066   18075      48
   18078   18087      48   18090   18099      48   18102   18111      48   18114
   18123      48   18126   18135      48   18138   18147      48   18150   18159
      48   18162   18171      48   18174   18183      48   18186   18195      48
   18198   18207      48   18210   18219      48   18222   18231      48   18234
   18243      48   18246   18255      48   18258   18267      48   18270   18279
      48   18282   18291      48   18294   18303      48   18306   18315      48
   18318   18327      48   18330   18339      48   18342   18351      48   18354
   18363      48   18366   18375      48   18378   18387      48   18390   18399
      48   18402   18411      48   18414   18423      48   18426   18435      48
   18438   18447      48   18450   18459      48   18462   18471      48   18474
   18483      48   18486   18495      48   18498   18507      48   18510   18519
      48   18522   18531      48   18534   18543      48   18546   18555      48
   18558   18567      48   18570   18579      48   18582   18591      48   18594
   18603      48   18606   18615      48   18618   18627      48   18630   18639
      48   18642   18651      48   18654   18663      48   18666   18675      48
   18678   18687      48   18690   18699      48   18702   18711      48   18714
   18723      48   18726   18735      48   18738   18747      48   18750   18759
      48   18762   18771      48   18774   18783      48   18786   18795      48
   18798   18807      48   18810   18819      48   18822   18831      48   18834
   18843      48   18846   18855      48   18858   18867      48   18870   18879
      48   18882   18891      48   18894   18903      48   18906   18915      48
   18918   18927      48   18930   18939      48   18942   18951      48   18954
   18963      48   18966   18975      48   18978   18987      48   18990   18999
      48   19002   19011      48   19014   19023      48   19026   19035      48
   19038   19047      48   19050   19059      48   19062   19071      48   19074
   19083      48   19086   19095      48   19098   19107      48   19110   19119
      48   19122   19131      48   19134   19143      48   19146   19155      48
   19158   19167      48   19170   19179      48   19182   19191      48   19194
   19203      48   19206   19215      48   19218   19227      48   19230   19239
      48   19242   19251      48   19254   19263      48   19266   19275      48
   19278   19287      48   19290   19299      48   19302   19311      48   19314
   19323      48   19326   19335      48   19338   19347      48   19350   19359
      48   19362   19371      48   19374   19383      48   19386   19395      48
   19398   19407      48   19410   19419      48   19422   19431      48   19434
   19443      48   19446   19455      48   19458   19467      48   19470   19479
      48   19482   19491      48   19494   19503      48   19506   19515      48
   19518   19527      48   19530   19539      48   19542   19551      48   19554
   19563      48   19566   19575      48   19578   19587      48   19590   19599
      48   19602   19611      48   19614   19623      48   19626   19635      48
   19638   19647      48   19650   19659      48   19662   19671      48   19674
   19683      48   19686   19695      48   19698   19707      48   19710   19719
      48   19722   19731      48   19734   19743      48   19746   19755      48
   19758   19767      48   19770   19779      48   19782   19791      48   19794
   19803      48   19806   19815      48   19818   19827      48   19830   19839
      48   19842   19851      48   19854   19863      48   19866   19875      48
   19878   19887      48   19890   19899      48   19902   19911      48   19914
   19923      48   19926   19935      48   19938   19947      48   19950   19959
      48   19962   19971      48   19974   19983      48   19986   19995      48
   19998   20007      48   20010   20019      48   20022   20031      48   20034
   20043      48   20046   20055      48   20058   20067      48   20070   20079
      48   20082   20091      48   20094   20103      48   20106   20115      48
   20118   20127      48   20130   20139      48   20142   20151      48   20154
   20163      48   20166   20175      48   20178   20187      48   20190   20199
      48   20202   20211      48   20214   20223      48   20226   20235      48
   20238   20247      48   20250   20259      48   20262   20271      48   20274
   20283      48   20286   20295      48   20298   20307      48   20310   20319
      48   20322   20331      48   20334   20343      48   20346   20355      48
   20358   20367      48   20370   20379      48   20382   20391      48   20394
   20403      48   20406   20415      48   20418   20427      48   20430   20439
      48   20442   20451      48   20454   20463      48   20466   20475      48
   20478   20487      48   20490   20499      48   20502   20511      48   20514
   20523      48   20526   20535      48   20538   20547      48   20550   20559
      48   20562   20571      48   20574   20583      48   20586   20595      48
   20598   20607      48   20610   20619      48   20622   20631      48   20634
   20643      48   20646   20655      48   20658   20667      48   20670   20679
      48   20682   20691      48   20694   20703      48   20706   20715      48
   20718   20727      48   20730   20739      48   20742   20751      48   20754
   20763      48   20766   20775      48   20778   20787      48   20790   20799
      48   20802   20811      48   20814   20823      48   20826   20835      48
   20838   20847      48   20850   20859      48   20862   20871      48   20874
   20883      48   20886   20895      48   20898   20907      48   20910   20919
      48   20922   20931      48   20934   20943      48   20946   20955      48
   20958   20967      48   20970   20979      48   20982   20991      48   20994
   21003      48   21006   21015      48   21018   21027      48   21030   21039
      48   21042   21051      48   21054   21063      48   21066   21075      48
   21078   21087      48   21090   21099      48   21102   21111      48   21114
   21123      48   21126   21135      48   21138   21147      48   21150   21159
      48   21162   21171      48   21174   21183      48   21186   21195      48
   21198   21207      48   21210   21219      48   21222   21231      48   21234
   21243      48   21246   21255      48   21258   21267      48   21270   21279
      48   21282   21291      48   21294   21303      48   21306   21315      48
   21318   21327      48   21330   21339      48   21342   21351      48   21354
   21363      48   21366   21375      48   21378   21387      48   21390   21399
      48   21402   21411      48   21414   21423      48   21426   21435      48
   21438   21447      48   21450   21459      48   21462   21471      48   21474
   21483      48   21486   21495      48   21498   21507      48   21510   21519
      48   21522   21531      48   21534   21543      48   21546   21555      48
   21558   21567      48   21570   21579      48   21582   21591      48   21594
   21603      48   21606   21615      48   21618   21627      48   21630   21639
      48   21642   21651      48   21654   21663      48   21666   21675      48
   21678   21687      48   21690   21699      48   21702   21711      48   21714
   21723      48   21726   21735      48   21738   21747      48   21750   21759
      48   21762   21771      48   21774   21783      48   21786   21795      48
   21798   21807      48   21810   21819      48   21822   21831      48   21834
   21843      48   21846   21855      48   21858   21867      48   21870   21879
      48   21882   21891      48   21894   21903      48   21906   21915      48
   21918   21927      48   21930   21939      48   21942   21951      48   21954
   21963      48   21966   21975      48   21978   21987      48   21990   21999
      48   22002   22011      48   22014   22023      48   22026   22035      48
   22038   22047      48   22050   22059      48   22062   22071      48   22074
   22083      48   22086   22095      48   22098   22107      48   22110   22119
      48   22122   22131      48   22134   22143      48   22146   22155      48
   22158   22167      48   22170   22179      48   22182   22191      48   22194
   22203      48   22206   22215      48   22218   22227      48   22230   22239
      48   22242   22251      48   22254   22263      48   22266   22275      48
   22278   22287      48   22290   22299      48   22302   22311      48   22314
   22323      48   22326   22335      48   22338   22347      48   22350   22359
      48   22362   22371      48   22374   22383      48   22386   22395      48
   22398   22407      48   22410   22419      48   22422   22431      48   22434
   22443      48   22446   22455      48   22458   22467      48   22470   22479
      48   22482   22491      48   22494   22503      48   22506   22515      48
   22518   22527      48   22530   22539      48   22542   22551      48   22554
   22563      48   22566   22575      48   22578   22587      48   22590   22599
      48   22602   22611      48   22614   22623      48   22626   22635      48
   22638   22647      48   22650   22659      48   22662   22671      48   22674
   22683      48   22686   22695      48   22698   22707      48   22710   22719
      48   22722   22731      48   22734   22743      48   22746   22755      48
   22758   22767      48   22770   22779      48   22782   22791      48   22794
   22803      48   22806   22815      48   22818   22827      48   22830   22839
      48   22842   22851      48   22854   22863      48   22866   22875      48
   22878   22887      48   22890   22899      48   22902   22911      48   22914
   22923      48   22926   22935      48   22938   22947      48   22950   22959
      48   22962   22971      48   22974   22983      48   22986   22995      48
   22998   23007      48   23010   23019      48   23022   23031      48   23034
   23043      48   23046   23055      48   23058   23067      48   23070   23079
      48   23082   23091      48   23094   23103      48   23106   23115      48
   23118   23127      48   23130   23139      48   23142   23151      48   23154
   23163      48   23166   23175      48   23178   23187      48   23190   23199
      48   23202   23211      48   23214   23223      48   23226   23235      48
   23238   23247      48   23250   23259      48   23262   23271      48   23274
   23283      48   23286   23295      48   23298   23307      48   23310   23319
      48   23322   23331      48   23334   23343      48   23346   23355      48
   23358   23367      48   23370   23379      48   23382   23391      48   23394
   23403      48   23406   23415      48   23418   23427      48   23430   23439
      48   23442   23451      48   23454   23463      48   23466   23475      48
   23478   23487      48   23490   23499      48   23502   23511      48   23514
   23523      48   23526   23535      48   23538   23547      48   23550   23559
      48   23562   23571      48   23574   23583      48   23586   23595      48
   23598   23607      48   23610   23619      48   23622   23631      48   23634
   23643      48   23646   23655      48   23658   23667      48   23670   23679
      48   23682   23691      48   23694   23703      48   23706   23715      48
   23718   23727      48   23730   23739      48   23742   23751      48   23754
   23763      48   23766   23775      48   23778   23787      48   23790   23799
      48   23802   23811      48   23814   23823      48   23826   23835      48
   23838   23847      48   23850   23859      48   23862   23871      48   23874
   23883      48   23886   23895      48   23898   23907      48   23910   23919
      48   23922   23931      48   23934   23943      48   23946   23955      48
   23958   23967      48   23970   23979      48   23982   23991      48   23994
   24003      48   24006   24015      48   24018   24027      48   24030   24039
      48   24042   24051      48   24054   24063      48   24066   24075      48
   24078   24087      48   24090   24099      48   24102   24111      48   24114
   24123      48   24126   24135      48   24138   24147      48   24150   24159
      48   24162   24171      48   24174   24183      48   24186   24195      48
   24198   24207      48   24210   24219      48   24222   24231      48   24234
   24243      48   24246   24255      48   24258   24267      48   24270   24279
      48   24282   24291      48   24294   24303      48   24306   24315      48
   24318   24327      48   24330   24339      48   24342   24351      48   24354
   24363      48   24366   24375      48   24378   24387      48   24390   24399
      48   24402   24411      48   24414   24423      48   24426   24435      48
   24438   24447      48   24450   24459      48   24462   24471      48   24474
   24483      48   24486   24495      48   24498   24507      48   24510   24519
      48   24522   24531      48   24534   24543      48   24546   24555      48
   24558   24567      48   24570   24579      48   24582   24591      48   24594
   24603      48   24606   24615      48   24618   24627      48   24630   24639
      48   24642   24651      48   24654   24663      48   24666   24675      48
   24678   24687      48   24690   24699      48   24702   24711      48   24714
   24723      48   24726   24735      48   24738   24747      48   24750   24759
      48   24762   24771      48   24774   24783      48   24786   24795      48
   24798   24807      48   24810   24819      48   24822   24831      48   24834
   24843      48   24846   24855      48   24858   24867      48   24870   24879
      48   24882   24891      48   24894   24903      48   24906   24915      48
   24918   24927      48   24930   24939      48   24942   24951      48   24954
   24963      48   24966   24975      48   24978   24987      48   24990   24999
      48   25002   25011      48   25014   25023      48   25026   25035      48
   25038   25047      48   25050   25059      48   25062   25071      48   25074
   25083      48   25086   25095      48   25098   25107      48   25110   25119
      48   25122   25131      48   25134   25143      48   25146   25155      48
   25158   25167      48   25170   25179      48   25182   25191      48   25194
   25203      48   25206   25215      48   25218   25227      48   25230   25239
      48   25242   25251      48   25254   25263      48   25266   25275      48
   25278   25287      48   25290   25299      48   25302   25311      48   25314
   25323      48   25326   25335      48   25338   25347      48   25350   25359
      48   25362   25371      48   25374   25383      48   25386   25395      48
   25398   25407      48   25410   25419      48   25422   25431      48   25434
   25443      48   25446   25455      48   25458   25467      48   25470   25479
      48   25482   25491      48   25494   25503      48   25506   25515      48
   25518   25527      48   25530   25539      48   25542   25551      48   25554
   25563      48   25566   25575      48   25578   25587      48   25590   25599
      48   25602   25611      48   25614   25623      48   25626   25635      48
   25638   25647      48   25650   25659      48   25662   25671      48   25674
   25683      48   25686   25695      48   25698   25707      48   25710   25719
      48   25722   25731      48   25734   25743      48   25746   25755      48
   25758   25767      48   25770   25779      48   25782   25791      48   25794
   25803      48   25806   25815      48   25818   25827      48   25830   25839
      48   25842   25851      48   25854   25863      48   25866   25875      48
   25878   25887      48   25890   25899      48   25902   25911      48   25914
   25923      48   25926   25935      48   25938   25947      48   25950   25959
      48   25962   25971      48   25974   25983      48   25986   25995      48
   25998   26007      48   26010   26019      48   26022   26031      48   26034
   26043      48   26046   26055      48   26058   26067      48   26070   26079
      48   26082   26091      48   26094   26103      48   26106   26115      48
   26118   26127      48   26130   26139      48   26142   26151      48   26154
   26163      48   26166   26175      48   26178   26187      48   26190   26199
      48   26202   26211      48   26214   26223      48   26226   26235      48
   26238   26247      48   26250   26259      48   26262   26271      48   26274
   26283      48   26286   26295      48   26298   26307      48   26310   26319
      48   26322   26331      48   26334   26343      48   26346   26355      48
   26358   26367      48   26370   26379      48   26382   26391      48   26394
   26403      48   26406   26415      48   26418   26427      48   26430   26439
      48   26442   26451      48   26454   26463      48   26466   26475      48
   26478   26487      48   26490   26499      48   26502   26511      48   26514
   26523      48   26526   26535      48   26538   26547      48   26550   26559
      48   26562   26571      48   26574   26583      48   26586   26595      48
   26598   26607      48   26610   26619      48   26622   26631      48   26634
   26643      48   26646   26655      48   26658   26667      48   26670   26679
      48   26682   26691      48   26694   26703      48   26706   26715      48
   26718   26727      48   26730   26739      48   26742   26751      48   26754
   26763      48   26766   26775      48   26778   26787      48   26790   26799
      48   26802   26811      48   26814   26823      48   26826   26835      48
   26838   26847      48   26850   26859      48   26862   26871      48   26874
   26883      48   26886   26895      48   26898   26907      48   26910   26919
      48   26922   26931      48   26934   26943      48   26946   26955      48
   26958   26967      48   26970   26979      48   26982   26991      48   26994
   27003      48   27006   27015      48   27018   27027      48   27030   27039
      48   27042   27051      48   27054   27063      48   27066   27075      48
   27078   27087      48   27090   27099      48   27102   27111      48   27114
   27123      48   27126   27135      48   27138   27147      48   27150   27159
      48   27162   27171      48   27174   27183      48   27186   27195      48
   27198   27207      48   27210   27219      48   27222   27231      48   27234
   27243      48   27246   27255      48   27258   27267      48   27270   27279
      48   27282   27291      48   27294   27303      48   27306   27315      48
   27318   27327      48   27330   27339      48   27342   27351      48   27354
   27363      48   27366   27375      48   27378   27387      48   27390   27399
      48   27402   27411      48   27414   27423      48   27426   27435      48
   27438   27447      48   27450   27459      48   27462   27471      48   27474
   27483      48   27486   27495      48   27498   27507      48   27510   27519
      48   27522   27531      48   27534   27543      48   27546   27555      48
   27558   27567      48   27570   27579      48   27582   27591      48   27594
   27603      48   27606   27615      48   27618   27627      48   27630   27639
      48   27642   27651      48   27654   27663      48   27666   27675      48
   27678   27687      48   27690   27699      48   27702   27711      48   27714
   27723      48   27726   27735      48   27738   27747      48   27750   27759
      48   27762   27771      48   27774   27783      48   27786   27795      48
   27798   27807      48   27810   27819      48   27822   27831      48   27834
   27843      48   27846   27855      48   27858   27867      48   27870   27879
      48   27882   27891      48   27894   27903      48   27906   27915      48
   27918   27927      48   27930   27939      48   27942   27951      48   27954
   27963      48   27966   27975      48   27978   27987      48   27990   27999
      48   28002   28011      48   28014   28023      48   28026   28035      48
   28038   28047      48   28050   28059      48   28062   28071      48   28074
   28083      48   28086   28095      48   28098   28107      48   28110   28119
      48   28122   28131      48   28134   28143      48   28146   28155      48
   28158   28167      48   28170   28179      48   28182   28191      48   28194
   28203      48   28206   28215      48   28218   28227      48   28230   28239
      48   28242   28251      48   28254   28263      48   28266   28275      48
   28278   28287      48   28290   28299      48   28302   28311      48   28314
   28323      48   28326   28335      48   28338   28347      48   28350   28359
      48   28362   28371      48   28374   28383      48   28386   28395      48
   28398   28407      48   28410   28419      48   28422   28431      48   28434
   28443      48   28446   28455      48   28458   28467      48   28470   28479
      48   28482   28491      48   28494   28503      48   28506   28515      48
   28518   28527      48   28530   28539      48   28542   28551      48   28554
   28563      48   28566   28575      48   28578   28587      48   28590   28599
      48   28602   28611      48   28614   28623      48   28626   28635      48
   28638   28647      48   28650   28659      48   28662   28671      48   28674
   28683      48   28686   28695      48   28698   28707      48   28710   28719
      48   28722   28731      48   28734   28743      48   28746   28755      48
   28758   28767      48   28770   28779      48   28782   28791      48   28794
   28803      48   28806   28815      48   28818   28827      48   28830   28839
      48   28842   28851      48   28854   28863      48   28866   28875      48
   28878   28887      48   28890   28899      48   28902   28911      48   28914
   28923      48   28926   28935      48   28938   28947      48   28950   28959
      48   28962   28971      48   28974   28983      48   28986   28995      48
   28998   29007      48   29010   29019      48   29022   29031      48   29034
   29043      48   29046   29055      48   29058   29067      48   29070   29079
      48   29082   29091      48   29094   29103      48   29106   29115      48
   29118   29127      48   29130   29139      48   29142   29151      48   29154
   29163      48   29166   29175      48   29178   29187      48   29190   29199
      48   29202   29211      48   29214   29223      48   29226   29235      48
   29238   29247      48   29250   29259      48   29262   29271      48   29274
   29283      48   29286   29295      48   29298   29307      48   29310   29319
      48   29322   29331      48   29334   29343      48   29346   29355      48
   29358   29367      48   29370   29379      48   29382   29391      48   29394
   29403      48   29406   29415      48   29418   29427      48   29430   29439
      48   29442   29451      48   29454   29463      48   29466   29475      48
   29478   29487      48   29490   29499      48   29502   29511      48   29514
   29523      48   29526   29535      48   29538   29547      48   29550   29559
      48   29562   29571      48   29574   29583      48   29586   29595      48
   29598   29607      48   29610   29619      48   29622   29631      48   29634
   29643      48   29646   29655      48   29658   29667      48   29670   29679
      48   29682   29691      48   29694   29703      48   29706   29715      48
   29718   29727      48   29730   29739      48   29742   29751      48   29754
   29763      48   29766   29775      48   29778   29787      48   29790   29799
      48   29802   29811      48   29814   29823      48   29826   29835      48
   29838   29847      48   29850   29859      48   29862   29871      48   29874
   29883      48   29886   29895      48   29898   29907      48   29910   29919
      48   29922   29931      48   29934   29943      48   29946   29955      48
   29958   29967      48   29970   29979      48   29982   29991      48   29994
   30003      48   30006   30015      48   30018   30027      48   30030   30039
      48   30042   30051      48   30054   30063      48   30066   30075      48
   30078   30087      48   30090   30099      48   30102   30111      48   30114
   30123      48   30126   30135      48   30138   30147      48   30150   30159
      48   30162   30171      48   30174   30183      48   30186   30195      48
   30198   30207      48   30210   30219      48   30222   30231      48   30234
   30243      48   30246   30255      48   30258   30267      48   30270   30279
      48   30282   30291      48   30294   30303      48   30306   30315      48
   30318   30327      48   30330   30339      48   30342   30351      48   30354
   30363      48   30366   30375      48   30378   30387      48   30390   30399
      48   30402   30411      48   30414   30423      48   30426   30435      48
   30438   30447      48   30450   30459      48   30462   30471      48   30474
   30483      48   30486   30495      48   30498   30507      48   30510   30519
      48   30522   30531      48   30534   30543      48   30546   30555      48
   30558   30567      48   30570   30579      48   30582   30591      48   30594
   30603      48   30606   30615      48   30618   30627      48   30630   30639
      48   30642   30651      48   30654   30663      48   30666   30675      48
   30678   30687      48   30690   30699      48   30702   30711      48   30714
   30723      48   30726   30735      48   30738   30747      48   30750   30759
      48   30762   30771      48   30774   30783      48   30786   30795      48
   30798   30807      48   30810   30819      48   30822   30831      48   30834
   30843      48   30846   30855      48   30858   30867      48   30870   30879
      48   30882   30891      48   30894   30903      48   30906   30915      48
   30918   30927      48   30930   30939      48   30942   30951      48   30954
   30963      48   30966   30975      48   30978   30987      48   30990   30999
      48   31002   31011      48   31014   31023      48   31026   31035      48
   31038   31047      48   31050   31059      48   31062   31071      48   31074
   31083      48   31086   31095      48   31098   31107      48   31110   31119
      48   31122   31131      48   31134   31143      48   31146   31155      48
   31158   31167      48   31170   31179      48   31182   31191      48   31194
   31203      48   31206   31215      48   31218   31227      48   31230   31239
      48   31242   31251      48   31254   31263      48   31266   31275      48
   31278   31287      48   31290   31299      48   31302   31311      48   31314
   31323      48   31326   31335      48   31338   31347      48   31350   31359
      48   31362   31371      48   31374   31383      48   31386   31395      48
   31398   31407      48   31410   31419      48   31422   31431      48   31434
   31443      48   31446   31455      48   31458   31467      48   31470   31479
      48   31482   31491      48   31494   31503      48   31506   31515      48
   31518   31527      48   31530   31539      48   31542   31551      48   31554
   31563      48   31566   31575      48   31578   31587      48   31590   31599
      48   31602   31611      48   31614   31623      48   31626   31635      48
   31638   31647      48   31650   31659      48   31662   31671      48   31674
   31683      48   31686   31695      48   31698   31707      48   31710   31719
      48   31722   31731      48   31734   31743      48   31746   31755      48
   31758   31767      48   31770   31779      48   31782   31791      48   31794
   31803      48   31806   31815      48   31818   31827      48   31830   31839
      48   31842   31851      48   31854   31863      48   31866   31875      48
   31878   31887      48   31890   31899      48   31902   31911      48   31914
   31923      48   31926   31935      48   31938   31947      48   31950   31959
      48   31962   31971      48   31974   31983      48   31986   31995      48
   31998   32007      48   32010   32019      48   32022   32031      48   32034
   32043      48   32046   32055      48   32058   32067      48   32070   32079
      48   32082   32091      48   32094   32103      48   32106   32115      48
   32118   32127      48   32130   32139      48   32142   32151      48   32154
   32163      48   32166   32175      48   32178   32187      48   32190   32199
      48   32202   32211      48   32214   32223      48   32226   32235      48
   32238   32247      48   32250   32259      48   32262   32271      48   32274
   32283      48   32286   32295      48   32298   32307      48   32310   32319
      48   32322   32331      48   32334   32343      48   32346   32355      48
   32358   32367      48   32370   32379      48   32382   32391      48   32394
   32403      48   32406   32415      48   32418   32427      48   32430   32439
      48   32442   32451      48   32454   32463      48   32466   32475      48
   32478   32487      48   32490   32499      48   32502   32511      48   32514
   32523      48   32526   32535      48   32538   32547      48   32550   32559
      48   32562   32571      48   32574   32583      48   32586   32595      48
   32598   32607      48   32610   32619      48   32622   32631      48   32634
   32643      48   32646   32655      48   32658   32667      48   32670   32679
      48   32682   32691      48   32694   32703      48   32706   32715      48
   32718   32727      48   32730   32739      48   32742   32751      48   32754
   32763      48   32766   32775      48   32778   32787      48   32790   32799
      48   32802   32811      48   32814   32823      48   32826   32835      48
   32838   32847      48   32850   32859      48   32862   32871      48   32874
   32883      48   32886   32895      48   32898   32907      48   32910   32919
      48   32922   32931      48   32934   32943      48   32946   32955      48
   32958   32967      48   32970   32979      48   32982   32991      48   32994
   33003      48   33006   33015      48   33018   33027      48   33030   33039
      48   33042   33051      48   33054   33063      48   33066   33075      48
   33078   33087      48   33090   33099      48   33102   33111      48   33114
   33123      48   33126   33135      48   33138   33147      48   33150   33159
      48   33162   33171      48   33174   33183      48   33186   33195      48
   33198   33207      48   33210   33219      48   33222   33231      48   33234
   33243      48   33246   33255      48   33258   33267      48   33270   33279
      48   33282   33291      48   33294   33303      48   33306   33315      48
   33318   33327      48   33330   33339      48   33342   33351      48   33354
   33363      48   33366   33375      48   33378   33387      48   33390   33399
      48   33402   33411      48   33414   33423      48   33426   33435      48
   33438   33447      48   33450   33459      48   33462   33471      48   33474
   33483      48   33486   33495      48   33498   33507      48   33510   33519
      48   33522   33531      48   33534   33543      48   33546   33555      48
   33558   33567      48   33570   33579      48   33582   33591      48   33594
   33603      48   33606   33615      48   33618   33627      48   33630   33639
      48   33642   33651      48   33654   33663      48   33666   33675      48
   33678   33687      48   33690   33699      48   33702   33711      48   33714
   33723      48   33726   33735      48   33738   33747      48   33750   33759
      48   33762   33771      48   33774   33783      48   33786   33795      48
   33798   33807      48   33810   33819      48   33822   33831      48   33834
   33843      48   33846   33855      48   33858   33867      48   33870   33879
      48   33882   33891      48   33894   33903      48   33906   33915      48
   33918   33927      48   33930   33939      48   33942   33951      48   33954
   33963      48   33966   33975      48   33978   33987      48   33990   33999
      48   34002   34011      48   34014   34023      48   34026   34035      48
   34038   34047      48   34050   34059      48   34062   34071      48   34074
   34083      48   34086   34095      48   34098   34107      48   34110   34119
      48   34122   34131      48   34134   34143      48   34146   34155      48
   34158   34167      48   34170   34179      48   34182   34191      48   34194
   34203      48   34206   34215      48   34218   34227      48   34230   34239
      48   34242   34251      48   34254   34263      48   34266   34275      48
   34278   34287      48   34290   34299      48   34302   34311      48   34314
   34323      48   34326   34335      48   34338   34347      48   34350   34359
      48   34362   34371      48   34374   34383      48   34386   34395      48
   34398   34407      48   34410   34419      48   34422   34431      48   34434
   34443      48   34446   34455      48   34458   34467      48   34470   34479
      48   34482   34491      48   34494   34503      48   34506   34515      48
   34518   34527      48   34530   34539      48   34542   34551      48   34554
   34563      48   34566   34575      48   34578   34587      48   34590   34599
      48   34602   34611      48   34614   34623      48   34626   34635      48
   34638   34647      48   34650   34659      48   34662   34671      48   34674
   34683      48   34686   34695      48   34698   34707      48   34710   34719
      48   34722   34731      48   34734   34743      48   34746   34755      48
   34758   34767      48   34770   34779      48   34782   34791      48   34794
   34803      48   34806   34815      48   34818   34827      48   34830   34839
      48   34842   34851      48   34854   34863      48   34866   34875      48
   34878   34887      48   34890   34899      48   34902   34911      48   34914
   34923      48   34926   34935      48   34938   34947      48   34950   34959
      48   34962   34971      48   34974   34983      48   34986   34995      48
   34998   35007      48   35010   35019      48   35022   35031      48   35034
   35043      48   35046   35055      48   35058   35067      48   35070   35079
      48   35082   35091      48   35094   35103      48   35106   35115      48
   35118   35127      48   35130   35139      48   35142   35151      48   35154
   35163      48   35166   35175      48   35178   35187      48   35190   35199
      48   35202   35211      48   35214   35223      48   35226   35235      48
   35238   35247      48   35250   35259      48   35262   35271      48   35274
   35283      48   35286   35295      48   35298   35307      48   35310   35319
      48   35322   35331      48   35334   35343      48   35346   35355      48
   35358   35367      48   35370   35379      48   35382   35391      48   35394
   35403      48   35406   35415      48   35418   35427      48   35430   35439
      48   35442   35451      48   35454   35463      48   35466   35475      48
   35478   35487      48   35490   35499      48   35502   35511      48   35514
   35523      48   35526   35535      48   35538   35547      48   35550   35559
      48   35562   35571      48   35574   35583      48   35586   35595      48
   35598   35607      48   35610   35619      48   35622   35631      48   35634
   35643      48   35646   35655      48   35658   35667      48   35670   35679
      48   35682   35691      48   35694   35703      48   35706   35715      48
   35718   35727      48   35730   35739      48   35742   35751      48   35754
   35763      48   35766   35775      48   35778   35787      48   35790   35799
      48   35802   35811      48   35814   35823      48   35826   35835      48
   35838   35847      48   35850   35859      48   35862   35871      48   35874
   35883      48   35886   35895      48   35898   35907      48   35910   35919
      48   35922   35931      48   35934   35943      48   35946   35955      48
   35958   35967      48   35970   35979      48   35982   35991      48   35994
   36003      48   36006   36015      48   36018   36027      48   36030   36039
      48   36042   36051      48   36054   36063      48   36066   36075      48
   36078   36087      48   36090   36099      48   36102   36111      48   36114
   36123      48   36126   36135      48   36138   36147      48   36150   36159
      48   36162   36171      48   36174   36183      48   36186   36195      48
   36198   36207      48   36210   36219      48   36222   36231      48   36234
   36243      48   36246   36255      48   36258   36267      48   36270   36279
      48   36282   36291      48   36294   36303      48   36306   36315      48
   36318   36327      48   36330   36339      48   36342   36351      48   36354
   36363      48   36366   36375      48   36378   36387      48   36390   36399
      48   36402   36411      48   36414   36423      48   36426   36435      48
   36438   36447      48   36450   36459      48   36462   36471      48   36474
   36483      48   36486   36495      48   36498   36507      48   36510   36519
      48   36522   36531      48   36534   36543      48   36546   36555      48
   36558   36567      48   36570   36579      48   36582   36591      48   36594
   36603      48   36606   36615      48   36618   36627      48   36630   36639
      48   36642   36651      48   36654   36663      48   36666   36675      48
   36678   36687      48   36690   36699      48   36702   36711      48   36714
   36723      48   36726   36735      48   36738   36747      48   36750   36759
      48   36762   36771      48   36774   36783      48   36786   36795      48
   36798   36807      48   36810   36819      48   36822   36831      48   36834
   36843      48   36846   36855      48   36858   36867      48   36870   36879
      48   36882   36891      48   36894   36903      48   36906   36915      48
   36918   36927      48   36930   36939      48   36942   36951      48   36954
   36963      48   36966   36975      48   36978   36987      48   36990   36999
      48   37002   37011      48   37014   37023      48   37026   37035      48
   37038   37047      48   37050   37059      48   37062   37071      48   37074
   37083      48   37086   37095      48   37098   37107      48   37110   37119
      48   37122   37131      48   37134   37143      48   37146   37155      48
   37158   37167      48   37170   37179      48   37182   37191      48   37194
   37203      48   37206   37215      48   37218   37227      48   37230   37239
      48   37242   37251      48   37254   37263      48   37266   37275      48
   37278   37287      48   37290   37299      48   37302   37311      48   37314
   37323      48   37326   37335      48   37338   37347      48   37350   37359
      48   37362   37371      48   37374   37383      48   37386   37395      48
   37398   37407      48   37410   37419      48   37422   37431      48   37434
   37443      48   37446   37455      48   37458   37467      48   37470   37479
      48   37482   37491      48   37494   37503      48   37506   37515      48
   37518   37527      48   37530   37539      48   37542   37551      48   37554
   37563      48   37566   37575      48   37578   37587      48   37590   37599
      48   37602   37611      48   37614   37623      48   37626   37635      48
   37638   37647      48   37650   37659      48   37662   37671      48   37674
   37683      48   37686   37695      48   37698   37707      48   37710   37719
      48   37722   37731      48   37734   37743      48   37746   37755      48
   37758   37767      48   37770   37779      48   37782   37791      48   37794
   37803      48   37806   37815      48   37818   37827      48   37830   37839
      48   37842   37851      48   37854   37863      48   37866   37875      48
   37878   37887      48   37890   37899      48   37902   37911      48   37914
   37923      48   37926   37935      48   37938   37947      48   37950   37959
      48   37962   37971      48   37974   37983      48   37986   37995      48
   37998   38007      48   38010   38019      48   38022   38031      48   38034
   38043      48   38046   38055      48   38058   38067      48   38070   38079
      48   38082   38091      48   38094   38103      48   38106   38115      48
   38118   38127      48   38130   38139      48   38142   38151      48   38154
   38163      48   38166   38175      48   38178   38187      48   38190   38199
      48   38202   38211      48   38214   38223      48   38226   38235      48
   38238   38247      48   38250   38259      48   38262   38271      48   38274
   38283      48   38286   38295      48   38298   38307      48   38310   38319
      48   38322   38331      48   38334   38343      48   38346   38355      48
   38358   38367      48   38370   38379      48   38382   38391      48   38394
   38403      48   38406   38415      48   38418   38427      48   38430   38439
      48   38442   38451      48   38454   38463      48   38466   38475      48
   38478   38487      48   38490   38499      48   38502   38511      48   38514
   38523      48   38526   38535      48   38538   38547      48   38550   38559
      48   38562   38571      48   38574   38583      48   38586   38595      48
   38598   38607      48   38610   38619      48   38622   38631      48   38634
   38643      48   38646   38655      48   38658   38667      48   38670   38679
      48   38682   38691      48   38694   38703      48   38706   38715      48
   38718   38727      48   38730   38739      48   38742   38751      48   38754
   38763      48   38766   38775      48   38778   38787      48   38790   38799
      48   38802   38811      48   38814   38823      48   38826   38835      48
   38838   38847      48   38850   38859      48   38862   38871      48   38874
   38883      48   38886   38895      48   38898   38907      48   38910   38919
      48   38922   38931      48   38934   38943      48   38946   38955      48
   38958   38967      48   38970   38979      48   38982   38991      48   38994
   39003      48   39006   39015      48   39018   39027      48   39030   39039
      48   39042   39051      48   39054   39063      48   39066   39075      48
   39078   39087      48   39090   39099      48   39102   39111      48   39114
   39123      48   39126   39135      48   39138   39147      48   39150   39159
      48   39162   39171      48   39174   39183      48   39186   39195      48
   39198   39207      48   39210   39219      48   39222   39231      48   39234
   39243      48   39246   39255      48   39258   39267      48   39270   39279
      48   39282   39291      48   39294   39303      48   39306   39315      48
   39318   39327      48   39330   39339      48   39342   39351      48   39354
   39363      48   39366   39375      48   39378   39387      48   39390   39399
      48   39402   39411      48   39414   39423      48   39426   39435      48
   39438   39447      48   39450   39459      48   39462   39471      48   39474
   39483      48   39486   39495      48   39498   39507      48   39510   39519
      48   39522   39531      48   39534   39543      48   39546   39555      48
   39558   39567      48   39570   39579      48   39582   39591      48   39594
   39603      48   39606   39615      48   39618   39627      48   39630   39639
      48   39642   39651      48   39654   39663      48   39666   39675      48
   39678   39687      48   39690   39699      48   39702   39711      48   39714
   39723      48   39726   39735      48   39738   39747      48   39750   39759
      48   39762   39771      48   39774   39783      48   39786   39795      48
   39798   39807      48   39810   39819      48   39822   39831      48   39834
   39843      48   39846   39855      48   39858   39867      48   39870   39879
      48   39882   39891      48   39894   39903      48   39906   39915      48
   39918   39927      48   39930   39939      48   39942   39951      48   39954
   39963      48   39966   39975      48   39978   39987      48   39990   39999
      48   40002   40011      48   40014   40023      48   40026   40035      48
   40038   40047      48   40050   40059      48   40062   40071      48   40074
   40083      48   40086   40095      48   40098   40107      48   40110   40119
      48   40122   40131      48   40134   40143      48   40146   40155      48
   40158   40167      48   40170   40179      48   40182   40191      48   40194
   40203      48   40206   40215      48   40218   40227      48   40230   40239
      48   40242   40251      48   40254   40263      48   40266   40275      48
   40278   40287      48   40290   40299      48   40302   40311      48   40314
   40323      48   40326   40335      48   40338   40347      48   40350   40359
      48   40362   40371      48   40374   40383      48   40386   40395      48
   40398   40407      48   40410   40419      48   40422   40431      48   40434
   40443      48   40446   40455      48   40458   40467      48   40470   40479
      48   40482   40491      48   40494   40503      48   40506   40515      48
   40518   40527      48   40530   40539      48   40542   40551      48   40554
   40563      48   40566   40575      48   40578   40587      48   40590   40599
      48   40602   40611      48   40614   40623      48   40626   40635      48
   40638   40647      48   40650   40659      48   40662   40671      48   40674
   40683      48   40686   40695      48   40698   40707      48   40710   40719
      48   40722   40731      48   40734   40743      48   40746   40755      48
   40758   40767      48   40770   40779      48   40782   40791      48   40794
   40803      48   40806   40815      48   40818   40827      48   40830   40839
      48   40842   40851      48   40854   40863      48   40866   40875      48
   40878   40887      48   40890   40899      48   40902   40911      48   40914
   40923      48   40926   40935      48   40938   40947      48   40950   40959
      48   40962   40971      48   40974   40983      48   40986   40995      48
   40998   41007      48   41010   41019      48   41022   41031      48   41034
   41043      48   41046   41055      48   41058   41067      48   41070   41079
      48   41082   41091      48   41094   41103      48   41106   41115      48
   41118   41127      48   41130   41139      48   41142   41151      48   41154
   41163      48   41166   41175      48   41178   41187      48   41190   41199
      48   41202   41211      48   41214   41223      48   41226   41235      48
   41238   41247      48   41250   41259      48   41262   41271      48   41274
   41283      48   41286   41295      48   41298   41307      48   41310   41319
      48   41322   41331      48   41334   41343      48   41346   41355      48
   41358   41367      48   41370   41379      48   41382   41391      48   41394
   41403      48   41406   41415      48   41418   41427      48   41430   41439
      48   41442   41451      48   41454   41463      48   41466   41475      48
   41478   41487      48   41490   41499      48   41502   41511      48   41514
   41523      48   41526   41535      48   41538   41547      48   41550   41559
      48   41562   41571      48   41574   41583      48   41586   41595      48
   41598   41607      48   41610   41619      48   41622   41631      48   41634
   41643      48   41646   41655      48   41658   41667      48   41670   41679
      48   41682   41691      48   41694   41703      48   41706   41715      48
   41718   41727      48   41730   41739      48   41742   41751      48   41754
   41763      48   41766   41775      48   41778   41787      48   41790   41799
      48   41802   41811      48   41814   41823      48   41826   41835      48
   41838   41847      48   41850   41859      48   41862   41871      48   41874
   41883      48   41886   41895      48   41898   41907      48   41910   41919
      48   41922   41931      48   41934   41943      48   41946   41955      48
   41958   41967      48   41970   41979      48   41982   41991      48   41994
   42003      48   42006   42015      48   42018   42027      48   42030   42039
      48   42042   42051      48   42054   42063      48   42066   42075      48
   42078   42087      48   42090   42099      48   42102   42111      48   42114
   42123      48   42126   42135      48   42138   42147      48   42150   42159
      48   42162   42171      48   42174   42183      48   42186   42195      48
   42198   42207      48   42210   42219      48   42222   42231      48   42234
   42243      48   42246   42255      48   42258   42267      48   42270   42279
      48   42282   42291      48   42294   42303      48   42306   42315      48
   42318   42327      48   42330   42339      48   42342   42351      48   42354
   42363      48   42366   42375      48   42378   42387      48   42390   42399
      48   42402   42411      48   42414   42423      48   42426   42435      48
   42438   42447      48   42450   42459      48   42462   42471      48   42474
   42483      48   42486   42495      48   42498   42507      48   42510   42519
      48   42522   42531      48   42534   42543      48   42546   42555      48
   42558   42567      48   42570   42579      48   42582   42591      48   42594
   42603      48   42606   42615      48   42618   42627      48   42630   42639
      48   42642   42651      48   42654   42663      48   42666   42675      48
   42678   42687      48   42690   42699      48   42702   42711      48   42714
   42723      48   42726   42735      48   42738   42747      48   42750   42759
      48   42762   42771      48   42774   42783      48   42786   42795      48
   42798   42807      48   42810   42819      48   42822   42831      48   42834
   42843      48   42846   42855      48   42858   42867      48   42870   42879
      48   42882   42891      48   42894   42903      48   42906   42915      48
   42918   42927      48   42930   42939      48   42942   42951      48   42954
   42963      48   42966   42975      48   42978   42987      48   42990   42999
      48   43002   43011      48   43014   43023      48   43026   43035      48
   43038   43047      48   43050   43059      48   43062   43071      48   43074
   43083      48   43086   43095      48   43098   43107      48   43110   43119
      48   43122   43131      48   43134   43143      48   43146   43155      48
   43158   43167      48   43170   43179      48   43182   43191      48   43194
   43203      48   43206   43215      48   43218   43227      48   43230   43239
      48   43242   43251      48   43254   43263      48   43266   43275      48
   43278   43287      48   43290   43299      48   43302   43311      48   43314
   43323      48   43326   43335      48   43338   43347      48   43350   43359
      48   43362   43371      48   43374   43383      48   43386   43395      48
   43398   43407      48   43410   43419      48   43422   43431      48   43434
   43443      48   43446   43455      48   43458   43467      48   43470   43479
      48   43482   43491      48   43494   43503      48   43506   43515      48
   43518   43527      48   43530   43539      48   43542   43551      48   43554
   43563      48   43566   43575      48   43578   43587      48   43590   43599
      48   43602   43611      48   43614   43623      48   43626   43635      48
   43638   43647      48   43650   43659      48   43662   43671      48   43674
   43683      48   43686   43695      48   43698   43707      48   43710   43719
      48   43722   43731      48   43734   43743      48   43746   43755      48
   43758   43767      48   43770   43779      48   43782   43791      48   43794
   43803      48   43806   43815      48   43818   43827      48   43830   43839
      48   43842   43851      48   43854   43863      48   43866   43875      48
   43878   43887      48   43890   43899      48   43902   43911      48   43914
   43923      48   43926   43935      48   43938   43947      48   43950   43959
      48   43962   43971      48   43974   43983      48   43986   43995      48
   43998   44007      48   44010   44019      48   44022   44031      48   44034
   44043      48   44046   44055      48   44058   44067      48   44070   44079
      48   44082   44091      48   44094   44103      48   44106   44115      48
   44118   44127      48   44130   44139      48   44142   44151      48   44154
   44163      48   44166   44175      48   44178   44187      48   44190   44199
      48   44202   44211      48   44214   44223      48   44226   44235      48
   44238   44247      48   44250   44259      48   44262   44271      48   44274
   44283      48   44286   44295      48   44298   44307      48   44310   44319
      48   44322   44331      48   44334   44343      48   44346   44355      48
   44358   44367      48   44370   44379      48   44382   44391      48   44394
   44403      48   44406   44415      48   44418   44427      48   44430   44439
      48   44442   44451      48   44454   44463      48   44466   44475      48
   44478   44487      48   44490   44499      48   44502   44511      48   44514
   44523      48   44526   44535      48   44538   44547      48   44550   44559
      48   44562   44571      48   44574   44583      48   44586   44595      48
   44598   44607      48   44610   44619      48   44622   44631      48   44634
   44643      48   44646   44655      48   44658   44667      48   44670   44679
      48   44682   44691      48   44694   44703      48   44706   44715      48
   44718   44727      48   44730   44739      48   44742   44751      48   44754
   44763      48   44766   44775      48   44778   44787      48   44790   44799
      48   44802   44811      48   44814   44823      48   44826   44835      48
   44838   44847      48   44850   44859      48   44862   44871      48   44874
   44883      48   44886   44895      48   44898   44907      48   44910   44919
      48   44922   44931      48   44934   44943      48   44946   44955      48
   44958   44967      48   44970   44979      48   44982   44991      48   44994
   45003      48   45006   45015      48   45018   45027      48   45030   45039
      48   45042   45051      48   45054   45063      48   45066   45075      48
   45078   45087      48   45090   45099      48   45102   45111      48   45114
   45123      48   45126   45135      48   45138   45147      48   45150   45159
      48   45162   45171      48   45174   45183      48   45186   45195      48
   45198   45207      48   45210   45219      48   45222   45231      48   45234
   45243      48   45246   45255      48   45258   45267      48   45270   45279
      48   45282   45291      48   45294   45303      48   45306   45315      48
   45318   45327      48   45330   45339      48   45342   45351      48   45354
   45363      48   45366   45375      48   45378   45387      48   45390   45399
      48   45402   45411      48   45414   45423      48   45426   45435      48
   45438   45447      48   45450   45459      48   45462   45471      48   45474
   45483      48   45486   45495      48   45498   45507      48   45510   45519
      48   45522   45531      48   45534   45543      48   45546   45555      48
   45558   45567      48   45570   45579      48   45582   45591      48   45594
   45603      48   45606   45615      48   45618   45627      48   45630   45639
      48   45642   45651      48   45654   45663      48   45666   45675      48
   45678   45687      48   45690   45699      48   45702   45711      48   45714
   45723      48   45726   45735      48   45738   45747      48   45750   45759
      48   45762   45771      48   45774   45783      48   45786   45795      48
   45798   45807      48   45810   45819      48   45822   45831      48   45834
   45843      48   45846   45855      48   45858   45867      48   45870   45879
      48   45882   45891      48   45894   45903      48   45906   45915      48
   45918   45927      48   45930   45939      48   45942   45951      48   45954
   45963      48   45966   45975      48   45978   45987      48   45990   45999
      48   46002   46011      48   46014   46023      48   46026   46035      48
   46038   46047      48   46050   46059      48   46062   46071      48   46074
   46083      48   46086   46095      48   46098   46107      48   46110   46119
      48   46122   46131      48   46134   46143      48   46146   46155      48
   46158   46167      48   46170   46179      48   46182   46191      48   46194
   46203      48   46206   46215      48   46218   46227      48   46230   46239
      48   46242   46251      48   46254   46263      48   46266   46275      48
   46278   46287      48   46290   46299      48   46302   46311      48   46314
   46323      48   46326   46335      48   46338   46347      48   46350   46359
      48   46362   46371      48   46374   46383      48   46386   46395      48
   46398   46407      48   46410   46419      48   46422   46431      48   46434
   46443      48   46446   46455      48   46458   46467      48   46470   46479
      48   46482   46491      48   46494   46503      48   46506   46515      48
   46518   46527      48   46530   46539      48   46542   46551      48   46554
   46563      48   46566   46575      48   46578   46587      48   46590   46599
      48   46602   46611      48   46614   46623      48   46626   46635      48
   46638   46647      48   46650   46659      48   46662   46671      48   46674
   46683      48   46686   46695      48   46698   46707      48   46710   46719
      48   46722   46731      48   46734   46743      48   46746   46755      48
   46758   46767      48   46770   46779      48   46782   46791      48   46794
   46803      48   46806   46815      48   46818   46827      48   46830   46839
      48   46842   46851      48   46854   46863      48   46866   46875      48
   46878   46887      48   46890   46899      48   46902   46911      48   46914
   46923      48   46926   46935      48   46938   46947      48   46950   46959
      48   46962   46971      48   46974   46983      48   46986   46995      48
   46998   47007      48   47010   47019      48   47022   47031      48   47034
   47043      48   47046   47055      48   47058   47067      48   47070   47079
      48   47082   47091      48   47094   47103      48   47106   47115      48
   47118   47127      48   47130   47139      48   47142   47151      48   47154
   47163      48   47166   47175      48   47178   47187      48   47190   47199
      48   47202   47211      48   47214   47223      48   47226   47235      48
   47238   47247      48   47250   47259      48   47262   47271      48   47274
   47283      48   47286   47295      48   47298   47307      48   47310   47319
      48   47322   47331      48   47334   47343      48   47346   47355      48
   47358   47367      48   47370   47379      48   47382   47391      48   47394
   47403      48   47406   47415      48   47418   47427      48   47430   47439
      48   47442   47451      48   47454   47463      48   47466   47475      48
   47478   47487      48   47490   47499      48   47502   47511      48   47514
   47523      48   47526   47535      48   47538   47547      48   47550   47559
      48   47562   47571      48   47574   47583      48   47586   47595      48
   47598   47607      48   47610   47619      48   47622   47631      48   47634
   47643      48   47646   47655      48   47658   47667      48   47670   47679
      48   47682   47691      48   47694   47703      48   47706   47715      48
   47718   47727      48   47730   47739      48   47742   47751      48   47754
   47763      48   47766   47775      48   47778   47787      48   47790   47799
      48   47802   47811      48   47814   47823      48   47826   47835      48
   47838   47847      48   47850   47859      48   47862   47871      48   47874
   47883      48   47886   47895      48   47898   47907      48   47910   47919
      48   47922   47931      48   47934   47943      48   47946   47955      48
   47958   47967      48   47970   47979      48   47982   47991      48   47994
   48003      48   48006   48015      48   48018   48027      48   48030   48039
      48   48042   48051      48   48054   48063      48   48066   48075      48
   48078   48087      48   48090   48099      48   48102   48111      48   48114
   48123      48   48126   48135      48   48138   48147      48   48150   48159
      48   48162   48171      48   48174   48183      48   48186   48195      48
   48198   48207      48   48210   48219      48   48222   48231      48   48234
   48243      48   48246   48255      48   48258   48267      48   48270   48279
      48   48282   48291      48   48294   48303      48   48306   48315      48
   48318   48327      48   48330   48339      48   48342   48351      48   48354
   48363      48   48366   48375      48   48378   48387      48   48390   48399
      48   48402   48411      48   48414   48423      48   48426   48435      48
   48438   48447      48   48450   48459      48   48462   48471      48   48474
   48483      48   48486   48495      48   48498   48507      48   48510   48519
      48   48522   48531      48   48534   48543      48   48546   48555      48
   48558   48567      48   48570   48579      48   48582   48591      48   48594
   48603      48   48606   48615      48   48618   48627      48   48630   48639
      48   48642   48651      48   48654   48663      48   48666   48675      48
   48678   48687      48   48690   48699      48   48702   48711      48   48714
   48723      48   48726   48735      48   48738   48747      48   48750   48759
      48   48762   48771      48   48774   48783      48   48786   48795      48
   48798   48807      48   48810   48819      48   48822   48831      48   48834
   48843      48   48846   48855      48   48858   48867      48   48870   48879
      48   48882   48891      48   48894   48903      48   48906   48915      48
   48918   48927      48   48930   48939      48   48942   48951      48   48954
   48963      48   48966   48975      48   48978   48987      48   48990   48999
      48   49002   49011      48   49014   49023      48   49026   49035      48
   49038   49047      48   49050   49059      48   49062   49071      48   49074
   49083      48   49086   49095      48   49098   49107      48   49110   49119
      48   49122   49131      48   49134   49143      48   49146   49155      48
   49158   49167      48   49170   49179      48   49182   49191      48   49194
   49203      48   49206   49215      48   49218   49227      48   49230   49239
      48   49242   49251      48   49254   49263      48   49266   49275      48
   49278   49287      48   49290   49299      48   49302   49311      48   49314
   49323      48   49326   49335      48   49338   49347      48   49350   49359
      48   49362   49371      48   49374   49383      48   49386   49395      48
   49398   49407      48   49410   49419      48   49422   49431      48   49434
   49443      48   49446   49455      48   49458   49467      48   49470   49479
      48   49482   49491      48   49494   49503      48   49506   49515      48
   49518   49527      48   49530   49539      48   49542   49551      48   49554
   49563      48   49566   49575      48   49578   49587      48   49590   49599
      48   49602   49611      48   49614   49623      48   49626   49635      48
   49638   49647      48   49650   49659      48   49662   49671      48   49674
   49683      48   49686   49695      48   49698   49707      48   49710   49719
      48   49722   49731      48   49734   49743      48   49746   49755      48
   49758   49767      48   49770   49779      48   49782   49791      48   49794
   49803      48   49806   49815      48   49818   49827      48   49830   49839
      48   49842   49851      48   49854   49863      48   49866   49875      48
   49878   49887      48   49890   49899      48   49902   49911      48   49914
   49923      48   49926   49935      48   49938   49947      48   49950   49959
      48   49962   49971      48   49974   49983      48   49986   49995      48
   49998   50007      48   50010   50019      48   50022   50031      48   50034
   50043      48   50046   50055      48   50058   50067      48   50070   50079
      48   50082   50091      48   50094   50103      48   50106   50115      48
   50118   50127      48   50130   50139      48   50142   50151      48   50154
   50163      48   50166   50175      48   50178   50187      48   50190   50199
      48   50202   50211      48   50214   50223      48   50226   50235      48
   50238   50247      48   50250   50259      48   50262   50271      48   50274
   50283      48   50286   50295      48   50298   50307      48   50310   50319
      48   50322   50331      48   50334   50343      48   50346   50355      48
   50358   50367      48   50370   50379      48   50382   50391      48   50394
   50403      48   50406   50415      48   50418   50427      48   50430   50439
      48   50442   50451      48   50454   50463      48   50466   50475      48
   50478   50487      48   50490   50499      48   50502   50511      48   50514
   50523      48   50526   50535      48   50538   50547      48   50550   50559
      48   50562   50571      48   50574   50583      48   50586   50595      48
   50598   50607      48   50610   50619      48   50622   50631      48   50634
   50643      48   50646   50655      48   50658   50667      48   50670   50679
      48   50682   50691      48   50694   50703      48   50706   50715      48
   50718   50727      48   50730   50739      48   50742   50751      48   50754
   50763      48   50766   50775      48   50778   50787      48   50790   50799
      48   50802   50811      48   50814   50823      48   50826   50835      48
   50838   50847      48   50850   50859      48   50862   50871      48   50874
   50883      48   50886   50895      48   50898   50907      48   50910   50919
      48   50922   50931      48   50934   50943      48   50946   50955      48
   50958   50967      48   50970   50979      48   50982   50991      48   50994
   51003      48   51006   51015      48   51018   51027      48   51030   51039
      48   51042   51051      48   51054   51063      48   51066   51075      48
   51078   51087      48   51090   51099      48   51102   51111      48   51114
   51123      48   51126   51135      48   51138   51147      48   51150   51159
      48   51162   51171      48   51174   51183      48   51186   51195      48
   51198   51207      48   51210   51219      48   51222   51231      48   51234
   51243      48   51246   51255      48   51258   51267      48   51270   51279
      48   51282   51291      48   51294   51303      48   51306   51315      48
   51318   51327      48   51330   51339      48   51342   51351      48   51354
   51363      48   51366   51375      48   51378   51387      48   51390   51399
      48   51402   51411      48   51414   51423      48   51426   51435      48
   51438   51447      48   51450   51459      48   51462   51471      48   51474
   51483      48   51486   51495      48   51498   51507      48   51510   51519
      48   51522   51531      48   51534   51543      48   51546   51555      48
   51558   51567      48   51570   51579      48   51582   51591      48   51594
   51603      48   51606   51615      48   51618   51627      48   51630   51639
      48   51642   51651      48   51654   51663      48   51666   51675      48
   51678   51687      48   51690   51699      48   51702   51711      48   51714
   51723      48   51726   51735      48   51738   51747      48   51750   51759
      48   51762   51771      48   51774   51783      48   51786   51795      48
   51798   51807      48   51810   51819      48   51822   51831      48   51834
   51843      48   51846   51855      48   51858   51867      48   51870   51879
      48   51882   51891      48   51894   51903      48   51906   51915      48
   51918   51927      48   51930   51939      48   51942   51951      48   51954
   51963      48   51966   51975      48   51978   51987      48   51990   51999
      48   52002   52011      48   52014   52023      48   52026   52035      48
   52038   52047      48   52050   52059      48   52062   52071      48   52074
   52083      48   52086   52095      48   52098   52107      48   52110   52119
      48   52122   52131      48   52134   52143      48   52146   52155      48
   52158   52167      48   52170   52179      48   52182   52191      48   52194
   52203      48   52206   52215      48   52218   52227      48   52230   52239
      48   52242   52251      48   52254   52263      48   52266   52275      48
   52278   52287      48   52290   52299      48   52302   52311      48   52314
   52323      48   52326   52335      48   52338   52347      48   52350   52359
      48   52362   52371      48   52374   52383      48   52386   52395      48
   52398   52407      48   52410   52419      48   52422   52431      48   52434
   52443      48   52446   52455      48   52458   52467      48   52470   52479
      48   52482   52491      48   52494   52503      48   52506   52515      48
   52518   52527      48   52530   52539      48   52542   52551      48   52554
   52563      48   52566   52575      48   52578   52587      48   52590   52599
      48   52602   52611      48   52614   52623      48   52626   52635      48
   52638   52647      48   52650   52659      48   52662   52671      48   52674
   52683      48   52686   52695      48   52698   52707      48   52710   52719
      48   52722   52731      48   52734   52743      48   52746   52755      48
   52758   52767      48   52770   52779      48   52782   52791      48   52794
   52803      48   52806   52815      48   52818   52827      48   52830   52839
      48   52842   52851      48   52854   52863      48   52866   52875      48
   52878   52887      48   52890   52899      48   52902   52911      48   52914
   52923      48   52926   52935      48   52938   52947      48   52950   52959
      48   52962   52971      48   52974   52983      48   52986   52995      48
   52998   53007      48   53010   53019      48   53022   53031      48   53034
   53043      48   53046   53055      48   53058   53067      48   53070   53079
      48   53082   53091      48   53094   53103      48   53106   53115      48
   53118   53127      48   53130   53139      48   53142   53151      48   53154
   53163      48   53166   53175      48   53178   53187      48   53190   53199
      48   53202   53211      48   53214   53223      48   53226   53235      48
   53238   53247      48   53250   53259      48   53262   53271      48   53274
   53283      48   53286   53295      48   53298   53307      48   53310   53319
      48   53322   53331      48   53334   53343      48   53346   53355      48
   53358   53367      48   53370   53379      48   53382   53391      48   53394
   53403      48   53406   53415      48   53418   53427      48   53430   53439
      48   53442   53451      48   53454   53463      48   53466   53475      48
   53478   53487      48   53490   53499      48   53502   53511      48   53514
   53523      48   53526   53535      48   53538   53547      48   53550   53559
      48   53562   53571      48   53574   53583      48   53586   53595      48
   53598   53607      48   53610   53619      48   53622   53631      48   53634
   53643      48   53646   53655      48   53658   53667      48   53670   53679
      48   53682   53691      48   53694   53703      48   53706   53715      48
   53718   53727      48   53730   53739      48   53742   53751      48   53754
   53763      48   53766   53775      48   53778   53787      48   53790   53799
      48   53802   53811      48   53814   53823      48   53826   53835      48
   53838   53847      48   53850   53859      48   53862   53871      48   53874
   53883      48   53886   53895      48   53898   53907      48   53910   53919
      48   53922   53931      48   53934   53943      48   53946   53955      48
   53958   53967      48   53970   53979      48   53982   53991      48   53994
   54003      48   54006   54015      48   54018   54027      48   54030   54039
      48   54042   54051      48   54054   54063      48   54066   54075      48
   54078   54087      48   54090   54099      48   54102   54111      48   54114
   54123      48   54126   54135      48   54138   54147      48   54150   54159
      48   54162   54171      48   54174   54183      48   54186   54195      48
   54198   54207      48   54210   54219      48   54222   54231      48   54234
   54243      48   54246   54255      48   54258   54267      48   54270   54279
      48   54282   54291      48   54294   54303      48   54306   54315      48
   54318   54327      48   54330   54339      48   54342   54351      48   54354
   54363      48   54366   54375      48   54378   54387      48   54390   54399
      48   54402   54411      48   54414   54423      48   54426   54435      48
   54438   54447      48   54450   54459      48   54462   54471      48   54474
   54483      48   54486   54495      48   54498   54507      48   54510   54519
      48   54522   54531      48   54534   54543      48   54546   54555      48
   54558   54567      48   54570   54579      48   54582   54591      48   54594
   54603      48   54606   54615      48   54618   54627      48   54630   54639
      48   54642   54651      48   54654   54663      48   54666   54675      48
   54678   54687      48   54690   54699      48   54702   54711      48   54714
   54723      48   54726   54735      48   54738   54747      48   54750   54759
      48   54762   54771      48   54774   54783      48   54786   54795      48
   54798   54807      48   54810   54819      48   54822   54831      48   54834
   54843      48   54846   54855      48   54858   54867      48   54870   54879
      48   54882   54891      48   54894   54903      48   54906   54915      48
   54918   54927      48   54930   54939      48   54942   54951      48   54954
   54963      48   54966   54975      48   54978   54987      48   54990   54999
      48   55002   55011      48   55014   55023      48   55026   55035      48
   55038   55047      48   55050   55059      48   55062   55071      48   55074
   55083      48   55086   55095      48   55098   55107      48   55110   55119
      48   55122   55131      48   55134   55143      48   55146   55155      48
   55158   55167      48   55170   55179      48   55182   55191      48   55194
   55203      48   55206   55215      48   55218   55227      48   55230   55239
      48   55242   55251      48   55254   55263      48   55266   55275      48
   55278   55287      48   55290   55299      48   55302   55311      48   55314
   55323      48   55326   55335      48   55338   55347      48   55350   55359
      48   55362   55371      48   55374   55383      48   55386   55395      48
   55398   55407      48   55410   55419      48   55422   55431      48   55434
   55443      48   55446   55455      48   55458   55467      48   55470   55479
      48   55482   55491      48   55494   55503      48   55506   55515      48
   55518   55527      48   55530   55539      48   55542   55551      48   55554
   55563      48   55566   55575      48   55578   55587      48   55590   55599
      48   55602   55611      48   55614   55623      48   55626   55635      48
   55638   55647      48   55650   55659      48   55662   55671      48   55674
   55683      48   55686   55695      48   55698   55707      48   55710   55719
      48   55722   55731      48   55734   55743      48   55746   55755      48
   55758   55767      48   55770   55779      48   55782   55791      48   55794
   55803      48   55806   55815      48   55818   55827      48   55830   55839
      48   55842   55851      48   55854   55863      48   55866   55875      48
   55878   55887      48   55890   55899      48   55902   55911      48   55914
   55923      48   55926   55935      48   55938   55947      48   55950   55959
      48   55962   55971      48   55974   55983      48   55986   55995      48
   55998   56007      48   56010   56019      48   56022   56031      48   56034
   56043      48   56046   56055      48   56058   56067      48   56070   56079
      48   56082   56091      48   56094   56103      48   56106   56115      48
   56118   56127      48   56130   56139      48   56142   56151      48   56154
   56163      48   56166   56175      48   56178   56187      48   56190   56199
      48   56202   56211      48   56214   56223      48   56226   56235      48
   56238   56247      48   56250   56259      48   56262   56271      48   56274
   56283      48   56286   56295      48   56298   56307      48   56310   56319
      48   56322   56331      48   56334   56343      48   56346   56355      48
   56358   56367      48   56370   56379      48   56382   56391      48   56394
   56403      48   56406   56415      48   56418   56427      48   56430   56439
      48   56442   56451      48   56454   56463      48   56466   56475      48
   56478   56487      48   56490   56499      48   56502   56511      48   56514
   56523      48   56526   56535      48   56538   56547      48   56550   56559
      48   56562   56571      48   56574   56583      48   56586   56595      48
   56598   56607      48   56610   56619      48   56622   56631      48   56634
   56643      48   56646   56655      48   56658   56667      48   56670   56679
      48   56682   56691      48   56694   56703      48   56706   56715      48
   56718   56727      48   56730   56739      48   56742   56751      48   56754
   56763      48   56766   56775      48   56778   56787      48   56790   56799
      48   56802   56811      48   56814   56823      48   56826   56835      48
   56838   56847      48   56850   56859      48   56862   56871      48   56874
   56883      48   56886   56895      48   56898   56907      48   56910   56919
      48   56922   56931      48   56934   56943      48   56946   56955      48
   56958   56967      48   56970   56979      48   56982   56991      48   56994
   57003      48   57006   57015      48   57018   57027      48   57030   57039
      48   57042   57051      48   57054   57063      48   57066   57075      48
   57078   57087      48   57090   57099      48   57102   57111      48   57114
   57123      48   57126   57135      48   57138   57147      48   57150   57159
      48   57162   57171      48   57174   57183      48   57186   57195      48
   57198   57207      48   57210   57219      48   57222   57231      48   57234
   57243      48   57246   57255      48   57258   57267      48   57270   57279
      48   57282   57291      48   57294   57303      48   57306   57315      48
   57318   57327      48   57330   57339      48   57342   57351      48   57354
   57363      48   57366   57375      48   57378   57387      48   57390   57399
      48   57402   57411      48   57414   57423      48   57426   57435      48
   57438   57447      48   57450   57459      48   57462   57471      48   57474
   57483      48   57486   57495      48   57498   57507      48   57510   57519
      48   57522   57531      48   57534   57543      48   57546   57555      48
   57558   57567      48   57570   57579      48   57582   57591      48   57594
   57603      48   57606   57615      48   57618   57627      48   57630   57639
      48   57642   57651      48   57654   57663      48   57666   57675      48
   57678   57687      48   57690   57699      48   57702   57711      48   57714
   57723      48   57726   57735      48   57738   57747      48   57750   57759
      48   57762   57771      48   57774   57783      48   57786   57795      48
   57798   57807      48   57810   57819      48   57822   57831      48   57834
   57843      48   57846   57855      48   57858   57867      48   57870   57879
      48   57882   57891      48   57894   57903      48   57906   57915      48
   57918   57927      48   57930   57939      48   57942   57951      48   57954
   57963      48   57966   57975      48   57978   57987      48   57990   57999
      48   58002   58011      48   58014   58023      48   58026   58035      48
   58038   58047      48   58050   58059      48   58062   58071      48   58074
   58083      48   58086   58095      48   58098   58107      48   58110   58119
      48   58122   58131      48   58134   58143      48   58146   58155      48
   58158   58167      48   58170   58179      48   58182   58191      48   58194
   58203      48   58206   58215      48   58218   58227      48   58230   58239
      48   58242   58251      48   58254   58263      48   58266   58275      48
   58278   58287      48   58290   58299      48   58302   58311      48   58314
   58323      48   58326   58335      48   58338   58347      48   58350   58359
      48   58362   58371      48   58374   58383      48   58386   58395      48
   58398   58407      48   58410   58419      48   58422   58431      48   58434
   58443      48   58446   58455      48   58458   58467      48   58470   58479
      48   58482   58491      48   58494   58503      48   58506   58515      48
   58518   58527      48   58530   58539      48   58542   58551      48   58554
   58563      48   58566   58575      48   58578   58587      48   58590   58599
      48   58602   58611      48   58614   58623      48   58626   58635      48
   58638   58647      48   58650   58659      48   58662   58671      48   58674
   58683      48   58686   58695      48   58698   58707      48   58710   58719
      48   58722   58731      48   58734   58743      48   58746   58755      48
   58758   58767      48   58770   58779      48   58782   58791      48   58794
   58803      48   58806   58815      48   58818   58827      48   58830   58839
      48   58842   58851      48   58854   58863      48   58866   58875      48
   58878   58887      48   58890   58899      48   58902   58911      48   58914
   58923      48   58926   58935      48   58938   58947      48   58950   58959
      48   58962   58971      48   58974   58983      48   58986   58995      48
   58998   59007      48   59010   59019      48   59022   59031      48   59034
   59043      48   59046   59055      48   59058   59067      48   59070   59079
      48   59082   59091      48   59094   59103      48   59106   59115      48
   59118   59127      48   59130   59139      48   59142   59151      48   59154
   59163      48   59166   59175      48   59178   59187      48   59190   59199
      48   59202   59211      48   59214   59223      48   59226   59235      48
   59238   59247      48   59250   59259      48   59262   59271      48   59274
   59283      48   59286   59295      48   59298   59307      48   59310   59319
      48   59322   59331      48   59334   59343      48   59346   59355      48
   59358   59367      48   59370   59379      48   59382   59391      48   59394
   59403      48   59406   59415      48   59418   59427      48   59430   59439
      48   59442   59451      48   59454   59463      48   59466   59475      48
   59478   59487      48   59490   59499      48   59502   59511      48   59514
   59523      48   59526   59535      48   59538   59547      48   59550   59559
      48   59562   59571      48   59574   59583      48   59586   59595      48
   59598   59607      48   59610   59619      48   59622   59631      48   59634
   59643      48   59646   59655      48   59658   59667      48   59670   59679
      48   59682   59691      48   59694   59703      48   59706   59715      48
   59718   59727      48   59730   59739      48   59742   59751      48   59754
   59763      48   59766   59775      48   59778   59787      48   59790   59799
      48   59802   59811      48   59814   59823      48   59826   59835      48
   59838   59847      48   59850   59859      48   59862   59871      48   59874
   59883      48   59886   59895      48   59898   59907      48   59910   59919
      48   59922   59931      48   59934   59943      48   59946   59955      48
   59958   59967      48   59970   59979      48   59982   59991      48   59994
   60003      48   60006   60015      48   60018   60027      48   60030   60039
      48   60042   60051      48   60054   60063      48   60066   60075      48
   60078   60087      48   60090   60099      48   60102   60111      48   60114
   60123      48   60126   60135      48   60138   60147      48   60150   60159
      48   60162   60171      48   60174   60183      48   60186   60195      48
   60198   60207      48   60210   60219      48   60222   60231      48   60234
   60243      48   60246   60255      48   60258   60267      48   60270   60279
      48   60282   60291      48   60294   60303      48   60306   60315      48
   60318   60327      48   60330   60339      48   60342   60351      48   60354
   60363      48   60366   60375      48   60378   60387      48   60390   60399
      48   60402   60411      48   60414   60423      48   60426   60435      48
   60438   60447      48   60450   60459      48   60462   60471      48   60474
   60483      48   60486   60495      48   60498   60507      48   60510   60519
      48   60522   60531      48   60534   60543      48   60546   60555      48
   60558   60567      48   60570   60579      48   60582   60591      48   60594
   60603      48   60606   60615      48   60618   60627      48   60630   60639
      48   60642   60651      48   60654   60663      48   60666   60675      48
   60678   60687      48   60690   60699      48   60702   60711      48   60714
   60723      48   60726   60735      48   60738   60747      48   60750   60759
      48   60762   60771      48   60774   60783      48   60786   60795      48
   60798   60807      48   60810   60819      48   60822   60831      48   60834
   60843      48   60846   60855      48   60858   60867      48   60870   60879
      48   60882   60891      48   60894   60903      48   60906   60915      48
   60918   60927      48   60930   60939      48   60942   60951      48   60954
   60963      48   60966   60975      48   60978   60987      48   60990   60999
      48   61002   61011      48   61014   61023      48   61026   61035      48
   61038   61047      48   61050   61059      48   61062   61071      48   61074
   61083      48   61086   61095      48   61098   61107      48   61110   61119
      48   61122   61131      48   61134   61143      48   61146   61155      48
   61158   61167      48   61170   61179      48   61182   61191      48   61194
   61203      48   61206   61215      48   61218   61227      48   61230   61239
      48   61242   61251      48   61254   61263      48   61266   61275      48
   61278   61287      48   61290   61299      48   61302   61311      48   61314
   61323      48   61326   61335      48   61338   61347      48   61350   61359
      48   61362   61371      48   61374   61383      48   61386   61395      48
   61398   61407      48   61410   61419      48   61422   61431      48   61434
   61443      48   61446   61455      48   61458   61467      48   61470   61479
      48   61482   61491      48   61494   61503      48   61506   61515      48
   61518   61527      48   61530   61539      48   61542   61551      48   61554
   61563      48   61566   61575      48   61578   61587      48   61590   61599
      48   61602   61611      48   61614   61623      48   61626   61635      48
   61638   61647      48   61650   61659      48   61662   61671      48   61674
   61683      48   61686   61695      48   61698   61707      48   61710   61719
      48   61722   61731      48   61734   61743      48   61746   61755      48
   61758   61767      48   61770   61779      48   61782   61791      48   61794
   61803      48   61806   61815      48   61818   61827      48   61830   61839
      48   61842   61851      48   61854   61863      48   61866   61875      48
   61878   61887      48   61890   61899      48   61902   61911      48   61914
   61923      48   61926   61935      48   61938   61947      48   61950   61959
      48   61962   61971      48   61974   61983      48   61986   61995      48
   61998   62007      48   62010   62019      48   62022   62031      48   62034
   62043      48   62046   62055      48   62058   62067      48   62070   62079
      48   62082   62091      48   62094   62103      48   62106   62115      48
   62118   62127      48   62130   62139      48   62142   62151      48   62154
   62163      48   62166   62175      48   62178   62187      48   62190   62199
      48   62202   62211      48   62214   62223      48   62226   62235      48
   62238   62247      48   62250   62259      48   62262   62271      48   62274
   62283      48   62286   62295      48   62298   62307      48   62310   62319
      48   62322   62331      48   62334   62343      48   62346   62355      48
   62358   62367      48   62370   62379      48   62382   62391      48   62394
   62403      48   62406   62415      48   62418   62427      48   62430   62439
      48   62442   62451      48   62454   62463      48   62466   62475      48
   62478   62487      48   62490   62499      48   62502   62511      48   62514
   62523      48   62526   62535      48   62538   62547      48   62550   62559
      48   62562   62571      48   62574   62583      48   62586   62595      48
   62598   62607      48   62610   62619      48   62622   62631      48   62634
   62643      48   62646   62655      48   62658   62667      48   62670   62679
      48   62682   62691      48   62694   62703      48   62706   62715      48
   62718   62727      48   62730   62739      48   62742   62751      48   62754
   62763      48   62766   62775      48   62778   62787      48   62790   62799
      48   62802   62811      48   62814   62823      48   62826   62835      48
   62838   62847      48   62850   62859      48   62862   62871      48   62874
   62883      48   62886   62895      48   62898   62907      48   62910   62919
      48   62922   62931      48   62934   62943      48   62946   62955      48
   62958   62967      48   62970   62979      48   62982   62991      48   62994
   63003      48   63006   63015      48   63018   63027      48   63030   63039
      48   63042   63051      48   63054   63063      48   63066   63075      48
   63078   63087      48   63090   63099      48   63102   63111      48   63114
   63123      48   63126   63135      48   63138   63147      48   63150   63159
      48   63162   63171      48   63174   63183      48   63186   63195      48
   63198   63207      48   63210   63219      48   63222   63231      48   63234
   63243      48   63246   63255      48   63258   63267      48   63270   63279
      48   63282   63291      48   63294   63303      48   63306   63315      48
   63318   63327      48   63330   63339      48   63342   63351      48   63354
   63363      48   63366   63375      48   63378   63387      48   63390   63399
      48   63402   63411      48   63414   63423      48   63426   63435      48
   63438   63447      48   63450   63459      48   63462   63471      48   63474
   63483      48   63486   63495      48   63498   63507      48   63510   63519
      48   63522   63531      48   63534   63543      48   63546   63555      48
   63558   63567      48   63570   63579      48   63582   63591      48   63594
   63603      48   63606   63615      48   63618   63627      48   63630   63639
      48   63642   63651      48   63654   63663      48   63666   63675      48
   63678   63687      48   63690   63699      48   63702   63711      48   63714
   63723      48   63726   63735      48   63738   63747      48   63750   63759
      48   63762   63771      48   63774   63783      48   63786   63795      48
   63798   63807      48   63810   63819      48   63822   63831      48   63834
   63843      48   63846   63855      48   63858   63867      48   63870   63879
      48   63882   63891      48   63894   63903      48   63906   63915      48
   63918   63927      48   63930   63939      48   63942   63951      48   63954
   63963      48   63966   63975      48   63978   63987      48   63990   63999
      48   64002   64011      48   64014   64023      48   64026   64035      48
   64038   64047      48   64050   64059      48   64062   64071      48   64074
   64083      48   64086   64095      48   64098   64107      48   64110   64119
      48   64122   64131      48   64134   64143      48   64146   64155      48
   64158   64167      48   64170   64179      48   64182   64191      48   64194
   64203      48   64206   64215      48   64218   64227      48   64230   64239
      48   64242   64251      48   64254   64263      48   64266   64275      48
   64278   64287      48   64290   64299      48   64302   64311      48   64314
   64323      48   64326   64335      48   64338   64347      48   64350   64359
      48   64362   64371      48   64374   64383      48   64386   64395      48
   64398   64407      48   64410   64419      48   64422   64431      48   64434
   64443      48   64446   64455      48   64458   64467      48   64470   64479
      48   64482   64491      48   64494   64503      48   64506   64515      48
   64518   64527      48   64530   64539      48   64542   64551      48   64554
   64563      48   64566   64575      48   64578   64587      48   64590   64599
      48   64602   64611      48   64614   64623      48   64626   64635      48
   64638   64647      48   64650   64659      48   64662   64671      48   64674
   64683      48   64686   64695      48   64698   64707      48   64710   64719
      48   64722   64731      48   64734   64743      48   64746   64755      48
   64758   64767      48   64770   64779      48   64782   64791      48   64794
   64803      48   64806   64815      48   64818   64827      48   64830   64839
      48   64842   64851      48   64854   64863      48   64866   64875      48
   64878   64887      48   64890   64899      48   64902   64911      48   64914
   64923      48   64926   64935      48   64938   64947      48   64950   64959
      48   64962   64971      48   64974   64983      48   64986   64995      48
   64998   65007      48   65010   65019      48   65022   65031      48   65034
   65043      48   65046   65055      48   65058   65067      48   65070   65079
      48   65082   65091      48   65094   65103      48   65106   65115      48
   65118   65127      48   65130   65139      48   65142   65151      48   65154
   65163      48   65166   65175      48   65178   65187      48   65190   65199
      48   65202   65211      48   65214   65223      48   65226   65235      48
   65238   65247      48   65250   65259      48   65262   65271      48   65274
   65283      48   65286   65295      48   65298   65307      48   65310   65319
      48   65322   65331      48   65334   65343      48   65346   65355      48
   65358   65367      48   65370   65379      48   65382   65391      48   65394
   65403      48   65406   65415      48   65418   65427      48   65430   65439
      48   65442   65451      48   65454   65463      48   65466   65475      48
   65478   65487      48   65490   65499      48   65502   65511      48   65514
   65523      48   65526   65535      48   65538   65547      48   65550   65559
      48   65562   65571      48   65574   65583      48   65586   65595      48
   65598   65607      48   65610   65619      48   65622   65631      48   65634
   65643      48   65646   65655      48   65658   65667      48   65670   65679
      48   65682   65691      48   65694   65703      48   65706   65715      48
   65718   65727      48   65730   65739      48   65742   65751      48   65754
   65763      48   65766   65775      48   65778   65787      48   65790   65799
      48   65802   65811      48   65814   65823      48   65826   65835      48
   65838   65847      48   65850   65859      48   65862   65871      48   65874
   65883      48   65886   65895      48   65898   65907      48   65910   65919
      48   65922   65931      48   65934   65943      48   65946   65955      48
   65958   65967      48   65970   65979      48   65982   65991      48   65994
   66003      48   66006   66015      48   66018   66027      48   66030   66039
      48   66042   66051      48   66054   66063      48   66066   66075      48
   66078   66087      48   66090   66099      48   66102   66111      48   66114
   66123      48   66126   66135      48   66138   66147      48   66150   66159
      48   66162   66171      48   66174   66183      48   66186   66195      48
   66198   66207      48   66210   66219      48   66222   66231      48   66234
   66243      48   66246   66255      48   66258   66267      48   66270   66279
      48   66282   66291      48   66294   66303      48   66306   66315      48
   66318   66327      48   66330   66339      48   66342   66351      48   66354
   66363      48   66366   66375      48   66378   66387      48   66390   66399
      48   66402   66411      48   66414   66423      48   66426   66435      48
   66438   66447      48   66450   66459      48   66462   66471      48   66474
   66483      48   66486   66495      48   66498   66507      48   66510   66519
      48   66522   66531      48   66534   66543      48   66546   66555      48
   66558   66567      48   66570   66579      48   66582   66591      48   66594
   66603      48   66606   66615      48   66618   66627      48   66630   66639
      48   66642   66651      48   66654   66663      48   66666   66675      48
   66678   66687      48   66690   66699      48   66702   66711      48   66714
   66723      48   66726   66735      48   66738   66747      48   66750   66759
      48   66762   66771      48   66774   66783      48   66786   66795      48
   66798   66807      48   66810   66819      48   66822   66831      48   66834
   66843      48   66846   66855      48   66858   66867      48   66870   66879
      48   66882   66891      48   66894   66903      48   66906   66915      48
   66918   66927      48   66930   66939      48   66942   66951      48   66954
   66963      48   66966   66975      48   66978   66987      48   66990   66999
      48   67002   67011      48   67014   67023      48   67026   67035      48
   67038   67047      48   67050   67059      48   67062   67071      48   67074
   67083      48   67086   67095      48   67098   67107      48   67110   67119
      48   67122   67131      48   67134   67143      48   67146   67155      48
   67158   67167      48   67170   67179      48   67182   67191      48   67194
   67203      48   67206   67215      48   67218   67227      48   67230   67239
      48   67242   67251      48   67254   67263      48   67266   67275      48
   67278   67287      48   67290   67299      48   67302   67311      48   67314
   67323      48   67326   67335      48   67338   67347      48   67350   67359
      48   67362   67371      48   67374   67383      48   67386   67395      48
   67398   67407      48   67410   67419      48   67422   67431      48   67434
   67443      48   67446   67455      48   67458   67467      48   67470   67479
      48   67482   67491      48   67494   67503      48   67506   67515      48
   67518   67527      48   67530   67539      48   67542   67551      48   67554
   67563      48   67566   67575      48   67578   67587      48   67590   67599
      48   67602   67611      48   67614   67623      48   67626   67635      48
   67638   67647      48   67650   67659      48   67662   67671      48   67674
   67683      48   67686   67695      48   67698   67707      48   67710   67719
      48   67722   67731      48   67734   67743      48   67746   67755      48
   67758   67767      48   67770   67779      48   67782   67791      48   67794
   67803      48   67806   67815      48   67818   67827      48   67830   67839
      48   67842   67851      48   67854   67863      48   67866   67875      48
   67878   67887      48   67890   67899      48   67902   67911      48   67914
   67923      48   67926   67935      48   67938   67947      48   67950   67959
      48   67962   67971      48   67974   67983      48   67986   67995      48
   67998   68007      48   68010   68019      48   68022   68031      48   68034
   68043      48   68046   68055      48   68058   68067      48   68070   68079
      48   68082   68091      48   68094   68103      48   68106   68115      48
   68118   68127      48   68130   68139      48   68142   68151      48   68154
   68163      48   68166   68175      48   68178   68187      48   68190   68199
      48   68202   68211      48   68214   68223      48   68226   68235      48
   68238   68247      48   68250   68259      48   68262   68271      48   68274
   68283      48   68286   68295      48   68298   68307      48   68310   68319
      48   68322   68331      48   68334   68343      48   68346   68355      48
   68358   68367      48   68370   68379      48   68382   68391      48   68394
   68403      48   68406   68415      48   68418   68427      48   68430   68439
      48   68442   68451      48   68454   68463      48   68466   68475      48
   68478   68487      48   68490   68499      48   68502   68511      48   68514
   68523      48   68526   68535      48   68538   68547      48   68550   68559
      48   68562   68571      48   68574   68583      48   68586   68595      48
   68598   68607      48   68610   68619      48   68622   68631      48   68634
   68643      48   68646   68655      48   68658   68667      48   68670   68679
      48   68682   68691      48   68694   68703      48   68706   68715      48
   68718   68727      48   68730   68739      48   68742   68751      48   68754
   68763      48   68766   68775      48   68778   68787      48   68790   68799
      48   68802   68811      48   68814   68823      48   68826   68835      48
   68838   68847      48   68850   68859      48   68862   68871      48   68874
   68883      48   68886   68895      48   68898   68907      48   68910   68919
      48   68922   68931      48   68934   68943      48   68946   68955      48
   68958   68967      48   68970   68979      48   68982   68991      48   68994
   69003      48   69006   69015      48   69018   69027      48   69030   69039
      48   69042   69051      48   69054   69063      48   69066   69075      48
   69078   69087      48   69090   69099      48   69102   69111      48   69114
   69123      48   69126   69135      48   69138   69147      48   69150   69159
      48   69162   69171      48   69174   69183      48   69186   69195      48
   69198   69207      48   69210   69219      48   69222   69231      48   69234
   69243      48   69246   69255      48   69258   69267      48   69270   69279
      48   69282   69291      48   69294   69303      48   69306   69315      48
   69318   69327      48   69330   69339      48   69342   69351      48   69354
   69363      48   69366   69375      48   69378   69387      48   69390   69399
      48   69402   69411      48   69414   69423      48   69426   69435      48
   69438   69447      48   69450   69459      48   69462   69471      48   69474
   69483      48   69486   69495      48   69498   69507      48   69510   69519
      48   69522   69531      48   69534   69543      48   69546   69555      48
   69558   69567      48   69570   69579      48   69582   69591      48   69594
   69603      48   69606   69615      48   69618   69627      48   69630   69639
      48   69642   69651      48   69654   69663      48   69666   69675      48
   69678   69687      48   69690   69699      48   69702   69711      48   69714
   69723      48   69726   69735      48   69738   69747      48   69750   69759
      48   69762   69771      48   69774   69783      48   69786   69795      48
   69798   69807      48   69810   69819      48   69822   69831      48   69834
   69843      48   69846   69855      48   69858   69867      48   69870   69879
      48   69882   69891      48   69894   69903      48   69906   69915      48
   69918   69927      48   69930   69939      48   69942   69951      48   69954
   69963      48   69966   69975      48   69978   69987      48   69990   69999
      48   70002   70011      48   70014   70023      48   70026   70035      48
   70038   70047      48   70050   70059      48   70062   70071      48   70074
   70083      48   70086   70095      48   70098   70107      48   70110   70119
      48   70122   70131      48   70134   70143      48   70146   70155      48
   70158   70167      48   70170   70179      48   70182   70191      48   70194
   70203      48   70206   70215      48   70218   70227      48   70230   70239
      48   70242   70251      48   70254   70263      48   70266   70275      48
   70278   70287      48   70290   70299      48   70302   70311      48   70314
   70323      48   70326   70335      48   70338   70347      48   70350   70359
      48   70362   70371      48   70374   70383      48   70386   70395      48
   70398   70407      48   70410   70419      48   70422   70431      48   70434
   70443      48   70446   70455      48   70458   70467      48   70470   70479
      48   70482   70491      48   70494   70503      48   70506   70515      48
   70518   70527      48   70530   70539      48   70542   70551      48   70554
   70563      48   70566   70575      48   70578   70587      48   70590   70599
      48   70602   70611      48   70614   70623      48   70626   70635      48
   70638   70647      48   70650   70659      48   70662   70671      48   70674
   70683      48   70686   70695      48   70698   70707      48   70710   70719
      48   70722   70731      48   70734   70743      48   70746   70755      48
   70758   70767      48   70770   70779      48   70782   70791      48   70794
   70803      48   70806   70815      48   70818   70827      48   70830   70839
      48   70842   70851      48   70854   70863      48   70866   70875      48
   70878   70887      48   70890   70899      48   70902   70911      48   70914
   70923      48   70926   70935      48   70938   70947      48   70950   70959
      48   70962   70971      48   70974   70983      48   70986   70995      48
   70998   71007      48   71010   71019      48   71022   71031      48   71034
   71043      48   71046   71055      48   71058   71067      48   71070   71079
      48   71082   71091      48   71094   71103      48   71106   71115      48
   71118   71127      48   71130   71139      48   71142   71151      48   71154
   71163      48   71166   71175      48   71178   71187      48   71190   71199
      48   71202   71211      48   71214   71223      48   71226   71235      48
   71238   71247      48   71250   71259      48   71262   71271      48   71274
   71283      48   71286   71295      48   71298   71307      48   71310   71319
      48   71322   71331      48   71334   71343      48   71346   71355      48
   71358   71367      48   71370   71379      48   71382   71391      48   71394
   71403      48   71406   71415      48   71418   71427      48   71430   71439
      48   71442   71451      48   71454   71463      48   71466   71475      48
   71478   71487      48   71490   71499      48   71502   71511      48   71514
   71523      48   71526   71535      48   71538   71547      48   71550   71559
      48   71562   71571      48   71574   71583      48   71586   71595      48
   71598   71607      48   71610   71619      48   71622   71631      48   71634
   71643      48   71646   71655      48   71658   71667      48   71670   71679
      48   71682   71691      48   71694   71703      48   71706   71715      48
   71718   71727      48   71730   71739      48   71742   71751      48   71754
   71763      48   71766   71775      48   71778   71787      48   71790   71799
      48   71802   71811      48   71814   71823      48   71826   71835      48
   71838   71847      48   71850   71859      48   71862   71871      48   71874
   71883      48   71886   71895      48   71898   71907      48   71910   71919
      48   71922   71931      48   71934   71943      48   71946   71955      48
   71958   71967      48   71970   71979      48   71982   71991      48   71994
   72003      48   72006   72015      48   72018   72027      48   72030   72039
      48   72042   72051      48   72054   72063      48   72066   72075      48
   72078   72087      48   72090   72099      48   72102   72111      48   72114
   72123      48   72126   72135      48   72138   72147      48   72150   72159
      48   72162   72171      48   72174   72183      48   72186   72195      48
   72198   72207      48   72210   72219      48   72222   72231      48   72234
   72243      48   72246   72255      48   72258   72267      48   72270   72279
      48   72282   72291      48   72294   72303      48   72306   72315      48
   72318   72327      48   72330   72339      48   72342   72351      48   72354
   72363      48   72366   72375      48   72378   72387      48   72390   72399
      48   72402   72411      48   72414   72423      48   72426   72435      48
   72438   72447      48   72450   72459      48   72462   72471      48   72474
   72483      48   72486   72495      48   72498   72507      48   72510   72519
      48   72522   72531      48   72534   72543      48   72546   72555      48
   72558   72567      48   72570   72579      48   72582   72591      48   72594
   72603      48   72606   72615      48   72618   72627      48   72630   72639
      48   72642   72651      48   72654   72663      48   72666   72675      48
   72678   72687      48   72690   72699      48   72702   72711      48   72714
   72723      48   72726   72735      48   72738   72747      48   72750   72759
      48   72762   72771      48   72774   72783      48   72786   72795      48
   72798   72807      48   72810   72819      48   72822   72831      48   72834
   72843      48   72846   72855      48   72858   72867      48   72870   72879
      48   72882   72891      48   72894   72903      48   72906   72915      48
   72918   72927      48   72930   72939      48   72942   72951      48   72954
   72963      48   72966   72975      48   72978   72987      48   72990   72999
      48   73002   73011      48   73014   73023      48   73026   73035      48
   73038   73047      48   73050   73059      48   73062   73071      48   73074
   73083      48   73086   73095      48   73098   73107      48   73110   73119
      48   73122   73131      48   73134   73143      48   73146   73155      48
   73158   73167      48   73170   73179      48   73182   73191      48   73194
   73203      48   73206   73215      48   73218   73227      48   73230   73239
      48   73242   73251      48   73254   73263      48   73266   73275      48
   73278   73287      48   73290   73299      48   73302   73311      48   73314
   73323      48   73326   73335      48   73338   73347      48   73350   73359
      48   73362   73371      48   73374   73383      48   73386   73395      48
   73398   73407      48   73410   73419      48   73422   73431      48   73434
   73443      48   73446   73455      48   73458   73467      48   73470   73479
      48   73482   73491      48   73494   73503      48   73506   73515      48
   73518   73527      48   73530   73539      48   73542   73551      48   73554
   73563      48   73566   73575      48   73578   73587      48   73590   73599
      48   73602   73611      48   73614   73623      48   73626   73635      48
   73638   73647      48   73650   73659      48   73662   73671      48   73674
   73683      48   73686   73695      48   73698   73707      48   73710   73719
      48   73722   73731      48   73734   73743      48   73746   73755      48
   73758   73767      48   73770   73779      48   73782   73791      48   73794
   73803      48   73806   73815      48   73818   73827      48   73830   73839
      48   73842   73851      48   73854   73863      48   73866   73875      48
   73878   73887      48   73890   73899      48   73902   73911      48   73914
   73923      48   73926   73935      48   73938   73947      48   73950   73959
      48   73962   73971      48   73974   73983      48   73986   73995      48
   73998   74007      48   74010   74019      48   74022   74031      48   74034
   74043      48   74046   74055      48   74058   74067      48   74070   74079
      48   74082   74091      48   74094   74103      48   74106   74115      48
   74118   74127      48   74130   74139      48   74142   74151      48   74154
   74163      48   74166   74175      48   74178   74187      48   74190   74199
      48   74202   74211      48   74214   74223      48   74226   74235      48
   74238   74247      48   74250   74259      48   74262   74271      48   74274
   74283      48   74286   74295      48   74298   74307      48   74310   74319
      48   74322   74331      48   74334   74343      48   74346   74355      48
   74358   74367      48   74370   74379      48   74382   74391      48   74394
   74403      48   74406   74415      48   74418   74427      48   74430   74439
      48   74442   74451      48   74454   74463      48   74466   74475      48
   74478   74487      48   74490   74499      48   74502   74511      48   74514
   74523      48   74526   74535      48   74538   74547      48   74550   74559
      48   74562   74571      48   74574   74583      48   74586   74595      48
   74598   74607      48   74610   74619      48   74622   74631      48   74634
   74643      48   74646   74655      48   74658   74667      48   74670   74679
      48   74682   74691      48   74694   74703      48   74706   74715      48
   74718   74727      48   74730   74739      48   74742   74751      48   74754
   74763      48   74766   74775      48   74778   74787      48   74790   74799
      48   74802   74811      48   74814   74823      48   74826   74835      48
   74838   74847      48   74850   74859      48   74862   74871      48   74874
   74883      48   74886   74895      48   74898   74907      48   74910   74919
      48   74922   74931      48   74934   74943      48   74946   74955      48
   74958   74967      48   74970   74979      48   74982   74991      48   74994
   75003      48   75006   75015      48   75018   75027      48   75030   75039
      48   75042   75051      48   75054   75063      48   75066   75075      48
   75078   75087      48   75090   75099      48   75102   75111      48   75114
   75123      48   75126   75135      48   75138   75147      48   75150   75159
      48   75162   75171      48   75174   75183      48   75186   75195      48
   75198   75207      48   75210   75219      48   75222   75231      48   75234
   75243      48   75246   75255      48   75258   75267      48   75270   75279
      48   75282   75291      48   75294   75303      48   75306   75315      48
   75318   75327      48   75330   75339      48   75342   75351      48   75354
   75363      48   75366   75375      48   75378   75387      48   75390   75399
      48   75402   75411      48   75414   75423      48   75426   75435      48
   75438   75447      48   75450   75459      48   75462   75471      48   75474
   75483      48   75486   75495      48   75498   75507      48   75510   75519
      48   75522   75531      48   75534   75543      48   75546   75555      48
   75558   75567      48   75570   75579      48   75582   75591      48   75594
   75603      48   75606   75615      48   75618   75627      48   75630   75639
      48   75642   75651      48   75654   75663      48   75666   75675      48
   75678   75687      48   75690   75699      48   75702   75711      48   75714
   75723      48   75726   75735      48   75738   75747      48   75750   75759
      48   75762   75771      48   75774   75783      48   75786   75795      48
   75798   75807      48   75810   75819      48   75822   75831      48   75834
   75843      48   75846   75855      48   75858   75867      48   75870   75879
      48   75882   75891      48   75894   75903      48   75906   75915      48
   75918   75927      48   75930   75939      48   75942   75951      48   75954
   75963      48   75966   75975      48   75978   75987      48   75990   75999
      48   76002   76011      48   76014   76023      48   76026   76035      48
   76038   76047      48   76050   76059      48   76062   76071      48   76074
   76083      48   76086   76095      48   76098   76107      48   76110   76119
      48   76122   76131      48   76134   76143      48   76146   76155      48
   76158   76167      48   76170   76179      48   76182   76191      48   76194
   76203      48   76206   76215      48   76218   76227      48   76230   76239
      48   76242   76251      48   76254   76263      48   76266   76275      48
   76278   76287      48   76290   76299      48   76302   76311      48   76314
   76323      48   76326   76335      48   76338   76347      48   76350   76359
      48   76362   76371      48   76374   76383      48   76386   76395      48
   76398   76407      48   76410   76419      48   76422   76431      48   76434
   76443      48   76446   76455      48   76458   76467      48   76470   76479
      48   76482   76491      48   76494   76503      48   76506   76515      48
   76518   76527      48   76530   76539      48   76542   76551      48   76554
   76563      48   76566   76575      48   76578   76587      48   76590   76599
      48   76602   76611      48   76614   76623      48   76626   76635      48
   76638   76647      48   76650   76659      48   76662   76671      48   76674
   76683      48   76686   76695      48   76698   76707      48   76710   76719
      48   76722   76731      48   76734   76743      48   76746   76755      48
   76758   76767      48   76770   76779      48   76782   76791      48   76794
   76803      48   76806   76815      48   76818   76827      48   76830   76839
      48   76842   76851      48   76854   76863      48   76866   76875      48
   76878   76887      48   76890   76899      48   76902   76911      48   76914
   76923      48   76926   76935      48   76938   76947      48   76950   76959
      48   76962   76971      48   76974   76983      48   76986   76995      48
   76998   77007      48   77010   77019      48   77022   77031      48   77034
   77043      48   77046   77055      48   77058   77067      48   77070   77079
      48   77082   77091      48   77094   77103      48   77106   77115      48
   77118   77127      48   77130   77139      48   77142   77151      48   77154
   77163      48   77166   77175      48   77178   77187      48   77190   77199
      48   77202   77211      48   77214   77223      48   77226   77235      48
   77238   77247      48   77250   77259      48   77262   77271      48   77274
   77283      48   77286   77295      48   77298   77307      48   77310   77319
      48   77322   77331      48   77334   77343      48   77346   77355      48
   77358   77367      48   77370   77379      48   77382   77391      48   77394
   77403      48   77406   77415      48   77418   77427      48   77430   77439
      48   77442   77451      48   77454   77463      48   77466   77475      48
   77478   77487      48   77490   77499      48   77502   77511      48   77514
   77523      48   77526   77535      48   77538   77547      48   77550   77559
      48   77562   77571      48   77574   77583      48   77586   77595      48
   77598   77607      48   77610   77619      48   77622   77631      48   77634
   77643      48   77646   77655      48   77658   77667      48   77670   77679
      48   77682   77691      48   77694   77703      48   77706   77715      48
   77718   77727      48   77730   77739      48   77742   77751      48   77754
   77763      48   77766   77775      48   77778   77787      48   77790   77799
      48   77802   77811      48   77814   77823      48   77826   77835      48
   77838   77847      48   77850   77859      48   77862   77871      48   77874
   77883      48   77886   77895      48   77898   77907      48   77910   77919
      48   77922   77931      48   77934   77943      48   77946   77955      48
   77958   77967      48   77970   77979      48   77982   77991      48   77994
   78003      48   78006   78015      48   78018   78027      48   78030   78039
      48   78042   78051      48   78054   78063      48   78066   78075      48
   78078   78087      48   78090   78099      48   78102   78111      48   78114
   78123      48   78126   78135      48   78138   78147      48   78150   78159
      48   78162   78171      48   78174   78183      48   78186   78195      48
   78198   78207      48   78210   78219      48   78222   78231      48   78234
   78243      48   78246   78255      48   78258   78267      48   78270   78279
      48   78282   78291      48   78294   78303      48   78306   78315      48
   78318   78327      48   78330   78339      48   78342   78351      48   78354
   78363      48   78366   78375      48   78378   78387      48   78390   78399
      48   78402   78411      48   78414   78423      48   78426   78435      48
   78438   78447      48   78450   78459      48   78462   78471      48   78474
   78483      48   78486   78495      48   78498   78507      48   78510   78519
      48   78522   78531      48   78534   78543      48   78546   78555      48
   78558   78567      48   78570   78579      48   78582   78591      48   78594
   78603      48   78606   78615      48   78618   78627      48   78630   78639
      48   78642   78651      48   78654   78663      48   78666   78675      48
   78678   78687      48   78690   78699      48   78702   78711      48   78714
   78723      48   78726   78735      48   78738   78747      48   78750   78759
      48   78762   78771      48   78774   78783      48   78786   78795      48
   78798   78807      48   78810   78819      48   78822   78831      48   78834
   78843      48   78846   78855      48   78858   78867      48   78870   78879
      48   78882   78891      48   78894   78903      48   78906   78915      48
   78918   78927      48   78930   78939      48   78942   78951      48   78954
   78963      48   78966   78975      48   78978   78987      48   78990   78999
      48   79002   79011      48   79014   79023      48   79026   79035      48
   79038   79047      48   79050   79059      48   79062   79071      48   79074
   79083      48   79086   79095      48   79098   79107      48   79110   79119
      48   79122   79131      48   79134   79143      48   79146   79155      48
   79158   79167      48   79170   79179      48   79182   79191      48   79194
   79203      48   79206   79215      48   79218   79227      48   79230   79239
      48   79242   79251      48   79254   79263      48   79266   79275      48
   79278   79287      48   79290   79299      48   79302   79311      48   79314
   79323      48   79326   79335      48   79338   79347      48   79350   79359
      48   79362   79371      48   79374   79383      48   79386   79395      48
   79398   79407      48   79410   79419      48   79422   79431      48   79434
   79443      48   79446   79455      48   79458   79467      48   79470   79479
      48   79482   79491      48   79494   79503      48   79506   79515      48
   79518   79527      48   79530   79539      48   79542   79551      48   79554
   79563      48   79566   79575      48   79578   79587      48   79590   79599
      48   79602   79611      48   79614   79623      48   79626   79635      48
   79638   79647      48   79650   79659      48   79662   79671      48   79674
   79683      48   79686   79695      48   79698   79707      48   79710   79719
      48   79722   79731      48   79734   79743      48   79746   79755      48
   79758   79767      48   79770   79779      48   79782   79791      48   79794
   79803      48   79806   79815      48   79818   79827      48   79830   79839
      48   79842   79851      48   79854   79863      48   79866   79875      48
   79878   79887      48   79890   79899      48   79902   79911      48   79914
   79923      48   79926   79935      48   79938   79947      48   79950   79959
      48   79962   79971      48   79974   79983      48   79986   79995      48
   79998   80007      48   80010   80019      48   80022   80031      48   80034
   80043      48   80046   80055      48   80058   80067      48   80070   80079
      48   80082   80091      48   80094   80103      48   80106   80115      48
   80118   80127      48   80130   80139      48   80142   80151      48   80154
   80163      48   80166   80175      48   80178   80187      48   80190   80199
      48   80202   80211      48   80214   80223      48   80226   80235      48
   80238   80247      48   80250   80259      48   80262   80271      48   80274
   80283      48   80286   80295      48   80298   80307      48   80310   80319
      48   80322   80331      48   80334   80343      48   80346   80355      48
   80358   80367      48   80370   80379      48   80382   80391      48   80394
   80403      48   80406   80415      48   80418   80427      48   80430   80439
      48   80442   80451      48   80454   80463      48   80466   80475      48
   80478   80487      48   80490   80499      48   80502   80511      48   80514
   80523      48   80526   80535      48   80538   80547      48   80550   80559
      48   80562   80571      48   80574   80583      48   80586   80595      48
   80598   80607      48   80610   80619      48   80622   80631      48   80634
   80643      48   80646   80655      48   80658   80667      48   80670   80679
      48   80682   80691      48   80694   80703      48   80706   80715      48
   80718   80727      48   80730   80739      48   80742   80751      48   80754
   80763      48   80766   80775      48   80778   80787      48   80790   80799
      48   80802   80811      48   80814   80823      48   80826   80835      48
   80838   80847      48   80850   80859      48   80862   80871      48   80874
   80883      48   80886   80895      48   80898   80907      48   80910   80919
      48   80922   80931      48   80934   80943      48   80946   80955      48
   80958   80967      48   80970   80979      48   80982   80991      48   80994
   81003      48   81006   81015      48   81018   81027      48   81030   81039
      48   81042   81051      48   81054   81063      48   81066   81075      48
   81078   81087      48   81090   81099      48   81102   81111      48   81114
   81123      48   81126   81135      48   81138   81147      48   81150   81159
      48   81162   81171      48   81174   81183      48   81186   81195      48
   81198   81207      48   81210   81219      48   81222   81231      48   81234
   81243      48   81246   81255      48   81258   81267      48   81270   81279
      48   81282   81291      48   81294   81303      48   81306   81315      48
   81318   81327      48   81330   81339      48   81342   81351      48   81354
   81363      48   81366   81375      48   81378   81387      48   81390   81399
      48   81402   81411      48   81414   81423      48   81426   81435      48
   81438   81447      48   81450   81459      48   81462   81471      48   81474
   81483      48   81486   81495      48   81498   81507      48   81510   81519
      48   81522   81531      48   81534   81543      48   81546   81555      48
   81558   81567      48   81570   81579      48   81582   81591      48   81594
   81603      48   81606   81615      48   81618   81627      48   81630   81639
      48   81642   81651      48   81654   81663      48   81666   81675      48
   81678   81687      48   81690   81699      48   81702   81711      48   81714
   81723      48   81726   81735      48   81738   81747      48   81750   81759
      48   81762   81771      48   81774   81783      48   81786   81795      48
   81798   81807      48   81810   81819      48   81822   81831      48   81834
   81843      48   81846   81855      48   81858   81867      48   81870   81879
      48   81882   81891      48   81894   81903      48   81906   81915      48
   81918   81927      48   81930   81939      48   81942   81951      48   81954
   81963      48   81966   81975      48   81978   81987      48   81990   81999
      48   82002   82011      48   82014   82023      48   82026   82035      48
   82038   82047      48   82050   82059      48   82062   82071      48   82074
   82083      48   82086   82095      48   82098   82107      48   82110   82119
      48   82122   82131      48   82134   82143      48   82146   82155      48
   82158   82167      48   82170   82179      48   82182   82191      48   82194
   82203      48   82206   82215      48   82218   82227      48   82230   82239
      48   82242   82251      48   82254   82263      48   82266   82275      48
   82278   82287      48   82290   82299      48   82302   82311      48   82314
   82323      48   82326   82335      48   82338   82347      48   82350   82359
      48   82362   82371      48   82374   82383      48   82386   82395      48
   82398   82407      48   82410   82419      48   82422   82431      48   82434
   82443      48   82446   82455      48   82458   82467      48   82470   82479
      48   82482   82491      48   82494   82503      48   82506   82515      48
   82518   82527      48   82530   82539      48   82542   82551      48   82554
   82563      48   82566   82575      48   82578   82587      48   82590   82599
      48   82602   82611      48   82614   82623      48   82626   82635      48
   82638   82647      48   82650   82659      48   82662   82671      48   82674
   82683      48   82686   82695      48   82698   82707      48   82710   82719
      48   82722   82731      48   82734   82743      48   82746   82755      48
   82758   82767      48   82770   82779      48   82782   82791      48   82794
   82803      48   82806   82815      48   82818   82827      48   82830   82839
      48   82842   82851      48   82854   82863      48   82866   82875      48
   82878   82887      48   82890   82899      48   82902   82911      48   82914
   82923      48   82926   82935      48   82938   82947      48   82950   82959
      48   82962   82971      48   82974   82983      48   82986   82995      48
   82998   83007      48   83010   83019      48   83022   83031      48   83034
   83043      48   83046   83055      48   83058   83067      48   83070   83079
      48   83082   83091      48   83094   83103      48   83106   83115      48
   83118   83127      48   83130   83139      48   83142   83151      48   83154
   83163      48   83166   83175      48   83178   83187      48   83190   83199
      48   83202   83211      48   83214   83223      48   83226   83235      48
   83238   83247      48   83250   83259      48   83262   83271      48   83274
   83283      48   83286   83295      48   83298   83307      48   83310   83319
      48   83322   83331      48   83334   83343      48   83346   83355      48
   83358   83367      48   83370   83379      48   83382   83391      48   83394
   83403      48   83406   83415      48   83418   83427      48   83430   83439
      48   83442   83451      48   83454   83463      48   83466   83475      48
   83478   83487      48   83490   83499      48   83502   83511      48   83514
   83523      48   83526   83535      48   83538   83547      48   83550   83559
      48   83562   83571      48   83574   83583      48   83586   83595      48
   83598   83607      48   83610   83619      48   83622   83631      48   83634
   83643      48   83646   83655      48   83658   83667      48   83670   83679
      48   83682   83691      48   83694   83703      48   83706   83715      48
   83718   83727      48   83730   83739      48   83742   83751      48   83754
   83763      48   83766   83775      48   83778   83787      48   83790   83799
      48   83802   83811      48   83814   83823      48   83826   83835      48
   83838   83847      48   83850   83859      48   83862   83871      48   83874
   83883      48   83886   83895      48   83898   83907      48   83910   83919
      48   83922   83931      48   83934   83943      48   83946   83955      48
   83958   83967      48   83970   83979      48   83982   83991      48   83994
   84003      48   84006   84015      48   84018   84027      48   84030   84039
      48   84042   84051      48   84054   84063      48   84066   84075      48
   84078   84087      48   84090   84099      48   84102   84111      48   84114
   84123      48   84126   84135      48   84138   84147      48   84150   84159
      48   84162   84171      48   84174   84183      48   84186   84195      48
   84198   84207      48   84210   84219      48   84222   84231      48   84234
   84243      48   84246   84255      48   84258   84267      48   84270   84279
      48   84282   84291      48   84294   84303      48   84306   84315      48
   84318   84327      48   84330   84339      48   84342   84351      48   84354
   84363      48   84366   84375      48   84378   84387      48   84390   84399
      48   84402   84411      48   84414   84423      48   84426   84435      48
   84438   84447      48   84450   84459      48   84462   84471      48   84474
   84483      48   84486   84495      48   84498   84507      48   84510   84519
      48   84522   84531      48   84534   84543      48   84546   84555      48
   84558   84567      48   84570   84579      48   84582   84591      48   84594
   84603      48   84606   84615      48   84618   84627      48   84630   84639
      48   84642   84651      48   84654   84663      48   84666   84675      48
   84678   84687      48   84690   84699      48   84702   84711      48   84714
   84723      48   84726   84735      48   84738   84747      48   84750   84759
      48   84762   84771      48   84774   84783      48   84786   84795      48
   84798   84807      48   84810   84819      48   84822   84831      48   84834
   84843      48   84846   84855      48   84858   84867      48   84870   84879
      48   84882   84891      48   84894   84903      48   84906   84915      48
   84918   84927      48   84930   84939      48   84942   84951      48   84954
   84963      48   84966   84975      48   84978   84987      48   84990   84999
      48   85002   85011      48   85014   85023      48   85026   85035      48
   85038   85047      48   85050   85059      48   85062   85071      48   85074
   85083      48   85086   85095      48   85098   85107      48   85110   85119
      48   85122   85131      48   85134   85143      48   85146   85155      48
   85158   85167      48   85170   85179      48   85182   85191      48   85194
   85203      48   85206   85215      48   85218   85227      48   85230   85239
      48   85242   85251      48   85254   85263      48   85266   85275      48
   85278   85287      48   85290   85299      48   85302   85311      48   85314
   85323      48   85326   85335      48   85338   85347      48   85350   85359
      48   85362   85371      48   85374   85383      48   85386   85395      48
   85398   85407      48   85410   85419      48   85422   85431      48   85434
   85443      48   85446   85455      48   85458   85467      48   85470   85479
      48   85482   85491      48   85494   85503      48   85506   85515      48
   85518   85527      48   85530   85539      48   85542   85551      48   85554
   85563      48   85566   85575      48   85578   85587      48   85590   85599
      48   85602   85611      48   85614   85623      48   85626   85635      48
   85638   85647      48   85650   85659      48   85662   85671      48   85674
   85683      48   85686   85695      48   85698   85707      48   85710   85719
      48   85722   85731      48   85734   85743      48   85746   85755      48
   85758   85767      48   85770   85779      48   85782   85791      48   85794
   85803      48   85806   85815      48   85818   85827      48   85830   85839
      48   85842   85851      48   85854   85863      48   85866   85875      48
   85878   85887      48   85890   85899      48   85902   85911      48   85914
   85923      48   85926   85935      48   85938   85947      48   85950   85959
      48   85962   85971      48   85974   85983      48   85986   85995      48
   85998   86007      48   86010   86019      48   86022   86031      48   86034
   86043      48   86046   86055      48   86058   86067      48   86070   86079
      48   86082   86091      48   86094   86103      48   86106   86115      48
   86118   86127      48   86130   86139      48   86142   86151      48   86154
   86163      48   86166   86175      48   86178   86187      48   86190   86199
      48   86202   86211      48   86214   86223      48   86226   86235      48
   86238   86247      48   86250   86259      48   86262   86271      48   86274
   86283      48   86286   86295      48   86298   86307      48   86310   86319
      48   86322   86331      48   86334   86343      48   86346   86355      48
   86358   86367      48   86370   86379      48   86382   86391      48   86394
   86403      48   86406   86415      48   86418   86427      48   86430   86439
      48   86442   86451      48   86454   86463      48   86466   86475      48
   86478   86487      48   86490   86499      48   86502   86511      48   86514
   86523      48   86526   86535      48   86538   86547      48   86550   86559
      48   86562   86571      48   86574   86583      48   86586   86595      48
   86598   86607      48   86610   86619      48   86622   86631      48   86634
   86643      48   86646   86655      48   86658   86667      48   86670   86679
      48   86682   86691      48   86694   86703      48   86706   86715      48
   86718   86727      48   86730   86739      48   86742   86751      48   86754
   86763      48   86766   86775      48   86778   86787      48   86790   86799
      48   86802   86811      48   86814   86823      48   86826   86835      48
   86838   86847      48   86850   86859      48   86862   86871      48   86874
   86883      48   86886   86895      48   86898   86907      48   86910   86919
      48   86922   86931      48   86934   86943      48   86946   86955      48
   86958   86967      48   86970   86979      48   86982   86991      48   86994
   87003      48   87006   87015      48   87018   87027      48   87030   87039
      48   87042   87051      48   87054   87063      48   87066   87075      48
   87078   87087      48   87090   87099      48   87102   87111      48   87114
   87123      48   87126   87135      48   87138   87147      48   87150   87159
      48   87162   87171      48   87174   87183      48   87186   87195      48
   87198   87207      48   87210   87219      48   87222   87231      48   87234
   87243      48   87246   87255      48   87258   87267      48   87270   87279
      48   87282   87291      48   87294   87303      48   87306   87315      48
   87318   87327      48   87330   87339      48   87342   87351      48   87354
   87363      48   87366   87375      48   87378   87387      48   87390   87399
      48   87402   87411      48   87414   87423      48   87426   87435      48
   87438   87447      48   87450   87459      48   87462   87471      48   87474
   87483      48   87486   87495      48   87498   87507      48   87510   87519
      48   87522   87531      48   87534   87543      48   87546   87555      48
   87558   87567      48   87570   87579      48   87582   87591      48   87594
   87603      48   87606   87615      48   87618   87627      48   87630   87639
      48   87642   87651      48   87654   87663      48   87666   87675      48
   87678   87687      48   87690   87699      48   87702   87711      48   87714
   87723      48   87726   87735      48   87738   87747      48   87750   87759
      48   87762   87771      48   87774   87783      48   87786   87795      48
   87798   87807      48   87810   87819      48   87822   87831      48   87834
   87843      48   87846   87855      48   87858   87867      48   87870   87879
      48   87882   87891      48   87894   87903      48   87906   87915      48
   87918   87927      48   87930   87939      48   87942   87951      48   87954
   87963      48   87966   87975      48   87978   87987      48   87990   87999
      48   88002   88011      48   88014   88023      48   88026   88035      48
   88038   88047      48   88050   88059      48   88062   88071      48   88074
   88083      48   88086   88095      48   88098   88107      48   88110   88119
      48   88122   88131      48   88134   88143      48   88146   88155      48
   88158   88167      48   88170   88179      48   88182   88191      48   88194
   88203      48   88206   88215      48   88218   88227      48   88230   88239
      48   88242   88251      48   88254   88263      48   88266   88275      48
   88278   88287      48   88290   88299      48   88302   88311      48   88314
   88323      48   88326   88335      48   88338   88347      48   88350   88359
      48   88362   88371      48   88374   88383      48   88386   88395      48
   88398   88407      48   88410   88419      48   88422   88431      48   88434
   88443      48   88446   88455      48   88458   88467      48   88470   88479
      48   88482   88491      48   88494   88503      48   88506   88515      48
   88518   88527      48   88530   88539      48   88542   88551      48   88554
   88563      48   88566   88575      48   88578   88587      48   88590   88599
      48   88602   88611      48   88614   88623      48   88626   88635      48
   88638   88647      48   88650   88659      48   88662   88671      48   88674
   88683      48   88686   88695      48   88698   88707      48   88710   88719
      48   88722   88731      48   88734   88743      48   88746   88755      48
   88758   88767      48   88770   88779      48   88782   88791      48   88794
   88803      48   88806   88815      48   88818   88827      48   88830   88839
      48   88842   88851      48   88854   88863      48   88866   88875      48
   88878   88887      48   88890   88899      48   88902   88911      48   88914
   88923      48   88926   88935      48   88938   88947      48   88950   88959
      48   88962   88971      48   88974   88983      48   88986   88995      48
   88998   89007      48   89010   89019      48   89022   89031      48   89034
   89043      48   89046   89055      48   89058   89067      48   89070   89079
      48   89082   89091      48   89094   89103      48   89106   89115      48
   89118   89127      48   89130   89139      48   89142   89151      48   89154
   89163      48   89166   89175      48   89178   89187      48   89190   89199
      48   89202   89211      48   89214   89223      48   89226   89235      48
   89238   89247      48   89250   89259      48   89262   89271      48   89274
   89283      48   89286   89295      48   89298   89307      48   89310   89319
      48   89322   89331      48   89334   89343      48   89346   89355      48
   89358   89367      48   89370   89379      48   89382   89391      48   89394
   89403      48   89406   89415      48   89418   89427      48   89430   89439
      48   89442   89451      48   89454   89463      48   89466   89475      48
   89478   89487      48   89490   89499      48   89502   89511      48   89514
   89523      48   89526   89535      48   89538   89547      48   89550   89559
      48   89562   89571      48   89574   89583      48   89586   89595      48
   89598   89607      48   89610   89619      48   89622   89631      48   89634
   89643      48   89646   89655      48   89658   89667      48   89670   89679
      48   89682   89691      48   89694   89703      48   89706   89715      48
   89718   89727      48   89730   89739      48   89742   89751      48   89754
   89763      48   89766   89775      48   89778   89787      48   89790   89799
      48   89802   89811      48   89814   89823      48   89826   89835      48
   89838   89847      48   89850   89859      48   89862   89871      48   89874
   89883      48   89886   89895      48   89898   89907      48   89910   89919
      48   89922   89931      48   89934   89943      48   89946   89955      48
   89958   89967      48   89970   89979      48   89982   89991      48   89994
   90003      48   90006   90015      48   90018   90027      48   90030   90039
      48   90042   90051      48   90054   90063      48   90066   90075      48
   90078   90087      48   90090   90099      48   90102   90111      48   90114
   90123      48   90126   90135      48   90138   90147      48   90150   90159
      48   90162   90171      48   90174   90183      48   90186   90195      48
   90198   90207      48   90210   90219      48   90222   90231      48   90234
   90243      48   90246   90255      48   90258   90267      48   90270   90279
      48   90282   90291      48   90294   90303      48   90306   90315      48
   90318   90327      48   90330   90339      48   90342   90351      48   90354
   90363      48   90366   90375      48   90378   90387      48   90390   90399
      48   90402   90411      48   90414   90423      48   90426   90435      48
   90438   90447      48   90450   90459      48   90462   90471      48   90474
   90483      48   90486   90495      48   90498   90507      48   90510   90519
      48   90522   90531      48   90534   90543      48   90546   90555      48
   90558   90567      48   90570   90579      48   90582   90591      48   90594
   90603      48   90606   90615      48   90618   90627      48   90630   90639
      48   90642   90651      48   90654   90663      48   90666   90675      48
   90678   90687      48   90690   90699      48   90702   90711      48   90714
   90723      48   90726   90735      48   90738   90747      48   90750   90759
      48   90762   90771      48   90774   90783      48   90786   90795      48
   90798   90807      48   90810   90819      48   90822   90831      48   90834
   90843      48   90846   90855      48   90858   90867      48   90870   90879
      48   90882   90891      48   90894   90903      48   90906   90915      48
   90918   90927      48   90930   90939      48   90942   90951      48   90954
   90963      48   90966   90975      48   90978   90987      48   90990   90999
      48   91002   91011      48   91014   91023      48   91026   91035      48
   91038   91047      48   91050   91059      48   91062   91071      48   91074
   91083      48   91086   91095      48   91098   91107      48   91110   91119
      48   91122   91131      48   91134   91143      48   91146   91155      48
   91158   91167      48   91170   91179      48   91182   91191      48   91194
   91203      48   91206   91215      48   91218   91227      48   91230   91239
      48   91242   91251      48   91254   91263      48   91266   91275      48
   91278   91287      48   91290   91299      48   91302   91311      48   91314
   91323      48   91326   91335      48   91338   91347      48   91350   91359
      48   91362   91371      48   91374   91383      48   91386   91395      48
   91398   91407      48   91410   91419      48   91422   91431      48   91434
   91443      48   91446   91455      48   91458   91467      48   91470   91479
      48   91482   91491      48   91494   91503      48   91506   91515      48
   91518   91527      48   91530   91539      48   91542   91551      48   91554
   91563      48   91566   91575      48   91578   91587      48   91590   91599
      48   91602   91611      48   91614   91623      48   91626   91635      48
   91638   91647      48   91650   91659      48   91662   91671      48   91674
   91683      48   91686   91695      48   91698   91707      48   91710   91719
      48   91722   91731      48   91734   91743      48   91746   91755      48
   91758   91767      48   91770   91779      48   91782   91791      48   91794
   91803      48   91806   91815      48   91818   91827      48   91830   91839
      48   91842   91851      48   91854   91863      48   91866   91875      48
   91878   91887      48   91890   91899      48   91902   91911      48   91914
   91923      48   91926   91935      48   91938   91947      48   91950   91959
      48   91962   91971      48   91974   91983      48   91986   91995      48
   91998   92007      48   92010   92019      48   92022   92031      48   92034
   92043      48   92046   92055      48   92058   92067      48   92070   92079
      48   92082   92091      48   92094   92103      48   92106   92115      48
   92118   92127      48   92130   92139      48   92142   92151      48   92154
   92163      48   92166   92175      48   92178   92187      48   92190   92199
      48   92202   92211      48   92214   92223      48   92226   92235      48
   92238   92247      48   92250   92259      48   92262   92271      48   92274
   92283      48   92286   92295      48   92298   92307      48   92310   92319
      48   92322   92331      48   92334   92343      48   92346   92355      48
   92358   92367      48   92370   92379      48   92382   92391      48   92394
   92403      48   92406   92415      48   92418   92427      48   92430   92439
      48   92442   92451      48   92454   92463      48   92466   92475      48
   92478   92487      48   92490   92499      48   92502   92511      48   92514
   92523      48   92526   92535      48   92538   92547      48   92550   92559
      48   92562   92571      48   92574   92583      48   92586   92595      48
   92598   92607      48   92610   92619      48   92622   92631      48   92634
   92643      48   92646   92655      48   92658   92667      48   92670   92679
      48   92682   92691      48   92694   92703      48   92706   92715      48
   92718   92727      48   92730   92739      48   92742   92751      48   92754
   92763      48   92766   92775      48   92778   92787      48   92790   92799
      48   92802   92811      48   92814   92823      48   92826   92835      48
   92838   92847      48   92850   92859      48   92862   92871      48   92874
   92883      48   92886   92895      48   92898   92907      48   92910   92919
      48   92922   92931      48   92934   92943      48   92946   92955      48
   92958   92967      48   92970   92979      48   92982   92991      48   92994
   93003      48   93006   93015      48   93018   93027      48   93030   93039
      48   93042   93051      48   93054   93063      48   93066   93075      48
   93078   93087      48   93090   93099      48   93102   93111      48   93114
   93123      48   93126   93135      48   93138   93147      48   93150   93159
      48   93162   93171      48   93174   93183      48   93186   93195      48
   93198   93207      48   93210   93219      48   93222   93231      48   93234
   93243      48   93246   93255      48   93258   93267      48   93270   93279
      48   93282   93291      48   93294   93303      48   93306   93315      48
   93318   93327      48   93330   93339      48   93342   93351      48   93354
   93363      48   93366   93375      48   93378   93387      48   93390   93399
      48   93402   93411      48   93414   93423      48   93426   93435      48
   93438   93447      48   93450   93459      48   93462   93471      48   93474
   93483      48   93486   93495      48   93498   93507      48   93510   93519
      48   93522   93531      48   93534   93543      48   93546   93555      48
   93558   93567      48   93570   93579      48   93582   93591      48   93594
   93603      48   93606   93615      48   93618   93627      48   93630   93639
      48   93642   93651      48   93654   93663      48   93666   93675      48
   93678   93687      48   93690   93699      48   93702   93711      48   93714
   93723      48   93726   93735      48   93738   93747      48   93750   93759
      48   93762   93771      48   93774   93783      48   93786   93795      48
   93798   93807      48   93810   93819      48   93822   93831      48   93834
   93843      48   93846   93855      48   93858   93867      48   93870   93879
      48   93882   93891      48   93894   93903      48   93906   93915      48
   93918   93927      48   93930   93939      48   93942   93951      48   93954
   93963      48   93966   93975      48   93978   93987      48   93990   93999
      48   94002   94011      48   94014   94023      48   94026   94035      48
   94038   94047      48   94050   94059      48   94062   94071      48   94074
   94083      48   94086   94095      48   94098   94107      48   94110   94119
      48   94122   94131      48   94134   94143      48   94146   94155      48
   94158   94167      48   94170   94179      48   94182   94191      48   94194
   94203      48   94206   94215      48   94218   94227      48   94230   94239
      48   94242   94251      48   94254   94263      48   94266   94275      48
   94278   94287      48   94290   94299      48   94302   94311      48   94314
   94323      48   94326   94335      48   94338   94347      48   94350   94359
      48   94362   94371      48   94374   94383      48   94386   94395      48
   94398   94407      48   94410   94419      48   94422   94431      48   94434
   94443      48   94446   94455      48   94458   94467      48   94470   94479
      48   94482   94491      48   94494   94503      48   94506   94515      48
   94518   94527      48   94530   94539      48   94542   94551      48   94554
   94563      48   94566   94575      48   94578   94587      48   94590   94599
      48   94602   94611      48   94614   94623      48   94626   94635      48
   94638   94647      48   94650   94659      48   94662   94671      48   94674
   94683      48   94686   94695      48   94698   94707      48   94710   94719
      48   94722   94731      48   94734   94743      48   94746   94755      48
   94758   94767      48   94770   94779      48   94782   94791      48   94794
   94803      48   94806   94815      48   94818   94827      48   94830   94839
      48   94842   94851      48   94854   94863      48   94866   94875      48
   94878   94887      48   94890   94899      48   94902   94911      48   94914
   94923      48   94926   94935      48   94938   94947      48   94950   94959
      48   94962   94971      48   94974   94983      48   94986   94995      48
   94998   95007      48   95010   95019      48   95022   95031      48   95034
   95043      48   95046   95055      48   95058   95067      48   95070   95079
      48   95082   95091      48   95094   95103      48   95106   95115      48
   95118   95127      48   95130   95139      48   95142   95151      48   95154
   95163      48   95166   95175      48   95178   95187      48   95190   95199
      48   95202   95211      48   95214   95223      48   95226   95235      48
   95238   95247      48   95250   95259      48   95262   95271      48   95274
   95283      48   95286   95295      48   95298   95307      48   95310   95319
      48   95322   95331      48   95334   95343      48   95346   95355      48
   95358   95367      48   95370   95379      48   95382   95391      48   95394
   95403      48   95406   95415      48   95418   95427      48   95430   95439
      48   95442   95451      48   95454   95463      48   95466   95475      48
   95478   95487      48   95490   95499      48   95502   95511      48   95514
   95523      48   95526   95535      48   95538   95547      48   95550   95559
      48   95562   95571      48   95574   95583      48   95586   95595      48
   95598   95607      48   95610   95619      48   95622   95631      48   95634
   95643      48   95646   95655      48   95658   95667      48   95670   95679
      48   95682   95691      48   95694   95703      48   95706   95715      48
   95718   95727      48   95730   95739      48   95742   95751      48   95754
   95763      48   95766   95775      48   95778   95787      48   95790   95799
      48   95802   95811      48   95814   95823      48   95826   95835      48
   95838   95847      48   95850   95859      48   95862   95871      48   95874
   95883      48   95886   95895      48   95898   95907      48   95910   95919
      48   95922   95931      48   95934   95943      48   95946   95955      48
   95958   95967      48   95970   95979      48   95982   95991      48   95994
   96003      48   96006   96015      48   96018   96027      48   96030   96039
      48   96042   96051      48   96054   96063      48   96066   96075      48
   96078   96087      48   96090   96099      48   96102   96111      48   96114
   96123      48   96126   96135      48   96138   96147      48   96150   96159
      48   96162   96171      48   96174   96183      48   96186   96195      48
   96198   96207      48   96210   96219      48   96222   96231      48   96234
   96243      48   96246   96255      48   96258   96267      48   96270   96279
      48   96282   96291      48   96294   96303      48   96306   96315      48
   96318   96327      48   96330   96339      48   96342   96351      48   96354
   96363      48   96366   96375      48   96378   96387      48   96390   96399
      48   96402   96411      48   96414   96423      48   96426   96435      48
   96438   96447      48   96450   96459      48   96462   96471      48   96474
   96483      48   96486   96495      48   96498   96507      48   96510   96519
      48   96522   96531      48   96534   96543      48   96546   96555      48
   96558   96567      48   96570   96579      48   96582   96591      48   96594
   96603      48   96606   96615      48   96618   96627      48   96630   96639
      48   96642   96651      48   96654   96663      48   96666   96675      48
   96678   96687      48   96690   96699      48   96702   96711      48   96714
   96723      48   96726   96735      48   96738   96747      48   96750   96759
      48   96762   96771      48   96774   96783      48   96786   96795      48
   96798   96807      48   96810   96819      48   96822   96831      48   96834
   96843      48   96846   96855      48   96858   96867      48   96870   96879
      48   96882   96891      48   96894   96903      48   96906   96915      48
   96918   96927      48   96930   96939      48   96942   96951      48   96954
   96963      48   96966   96975      48   96978   96987      48   96990   96999
      48   97002   97011      48   97014   97023      48   97026   97035      48
   97038   97047      48   97050   97059      48   97062   97071      48   97074
   97083      48   97086   97095      48   97098   97107      48   97110   97119
      48   97122   97131      48   97134   97143      48   97146   97155      48
   97158   97167      48   97170   97179      48   97182   97191      48   97194
   97203      48   97206   97215      48   97218   97227      48   97230   97239
      48   97242   97251      48   97254   97263      48   97266   97275      48
   97278   97287      48   97290   97299      48   97302   97311      48   97314
   97323      48   97326   97335      48   97338   97347      48   97350   97359
      48   97362   97371      48   97374   97383      48   97386   97395      48
   97398   97407      48   97410   97419      48   97422   97431      48   97434
   97443      48   97446   97455      48   97458   97467      48   97470   97479
      48   97482   97491      48   97494   97503      48   97506   97515      48
   97518   97527      48   97530   97539      48   97542   97551      48   97554
   97563      48   97566   97575      48   97578   97587      48   97590   97599
      48   97602   97611      48   97614   97623      48   97626   97635      48
   97638   97647      48   97650   97659      48   97662   97671      48   97674
   97683      48   97686   97695      48   97698   97707      48   97710   97719
      48   97722   97731      48   97734   97743      48   97746   97755      48
   97758   97767      48   97770   97779      48   97782   97791      48   97794
   97803      48   97806   97815      48   97818   97827      48   97830   97839
      48   97842   97851      48   97854   97863      48   97866   97875      48
   97878   97887      48   97890   97899      48   97902   97911      48   97914
   97923      48   97926   97935      48   97938   97947      48   97950   97959
      48   97962   97971      48   97974   97983      48   97986   97995      48
   97998   98007      48   98010   98019      48   98022   98031      48   98034
   98043      48   98046   98055      48   98058   98067      48   98070   98079
      48   98082   98091      48   98094   98103      48   98106   98115      48
   98118   98127      48   98130   98139      48   98142   98151      48   98154
   98163      48   98166   98175      48   98178   98187      48   98190   98199
      48   98202   98211      48   98214   98223      48   98226   98235      48
   98238   98247      48   98250   98259      48   98262   98271      48   98274
   98283      48   98286   98295      48   98298   98307      48   98310   98319
      48   98322   98331      48   98334   98343      48   98346   98355      48
   98358   98367      48   98370   98379      48   98382   98391      48   98394
   98403      48   98406   98415      48   98418   98427      48   98430   98439
      48   98442   98451      48   98454   98463      48   98466   98475      48
   98478   98487      48   98490   98499      48   98502   98511      48   98514
   98523      48   98526   98535      48   98538   98547      48   98550   98559
      48   98562   98571      48   98574   98583      48   98586   98595      48
   98598   98607      48   98610   98619      48   98622   98631      48   98634
   98643      48   98646   98655      48   98658   98667      48   98670   98679
      48   98682   98691      48   98694   98703      48   98706   98715      48
   98718   98727      48   98730   98739      48   98742   98751      48   98754
   98763      48   98766   98775      48   98778   98787      48   98790   98799
      48   98802   98811      48   98814   98823      48   98826   98835      48
   98838   98847      48   98850   98859      48   98862   98871      48   98874
   98883      48   98886   98895      48   98898   98907      48   98910   98919
      48   98922   98931      48   98934   98943      48   98946   98955      48
   98958   98967      48   98970   98979      48   98982   98991      48   98994
   99003      48   99006   99015      48   99018   99027      48   99030   99039
      48   99042   99051      48   99054   99063      48   99066   99075      48
   99078   99087      48   99090   99099      48   99102   99111      48   99114
   99123      48   99126   99135      48   99138   99147      48   99150   99159
      48   99162   99171      48   99174   99183      48   99186   99195      48
   99198   99207      48   99210   99219      48   99222   99231      48   99234
   99243      48   99246   99255      48   99258   99267      48   99270   99279
      48   99282   99291      48   99294   99303      48   99306   99315      48
   99318   99327      48   99330   99339      48   99342   99351      48   99354
   99363      48   99366   99375      48   99378   99387      48   99390   99399
      48   99402   99411      48   99414   99423      48   99426   99435      48
   99438   99447      48   99450   99459      48   99462   99471      48   99474
   99483      48   99486   99495      48   99498   99507      48   99510   99519
      48   99522   99531      48   99534   99543      48   99546   99555      48
   99558   99567      48   99570   99579      48   99582   99591      48   99594
   99603      48   99606   99615      48   99618   99627      48   99630   99639
      48   99642   99651      48   99654   99663      48   99666   99675      48
   99678   99687      48   99690   99699      48   99702   99711      48   99714
   99723      48   99726   99735      48   99738   99747      48   99750   99759
      48   99762   99771      48   99774   99783      48   99786   99795      48
   99798   99807      48   99810   99819      48   99822   99831      48   99834
   99843      48   99846   99855      48   99858   99867      48   99870   99879
      48   99882   99891      48   99894   99903      48   99906   99915      48
   99918   99927      48   99930   99939      48   99942   99951      48   99954
   99963      48   99966   99975      48   99978   99987      48   99990   99999
      48  100002  100011      48  100014  100023      48  100026  100035      48
  100038  100047      48  100050  100059      48  100062  100071      48  100074
  100083      48  100086  100095      48  100098  100107      48  100110  100119
      48  100122  100131      48  100134  100143      48  100146  100155      48
  100158  100167      48  100170  100179      48  100182  100191      48  100194
  100203      48  100206  100215      48  100218  100227      48  100230  100239
      48  100242  100251      48  100254  100263      48  100266  100275      48
  100278  100287      48  100290  100299      48  100302  100311      48  100314
  100323      48  100326  100335      48  100338  100347      48  100350  100359
      48  100362  100371      48  100374  100383      48  100386  100395      48
  100398  100407      48  100410  100419      48  100422  100431      48  100434
  100443      48  100446  100455      48  100458  100467      48  100470  100479
      48  100482  100491      48  100494  100503      48  100506  100515      48
  100518  100527      48  100530  100539      48  100542  100551      48  100554
  100563      48  100566  100575      48  100578  100587      48  100590  100599
      48  100602  100611      48  100614  100623      48  100626  100635      48
  100638  100647      48  100650  100659      48  100662  100671      48  100674
  100683      48  100686  100695      48  100698  100707      48  100710  100719
      48  100722  100731      48  100734  100743      48  100746  100755      48
  100758  100767      48  100770  100779      48  100782  100791      48  100794
  100803      48  100806  100815      48  100818  100827      48  100830  100839
      48  100842  100851      48  100854  100863      48  100866  100875      48
  100878  100887      48  100890  100899      48  100902  100911      48  100914
  100923      48  100926  100935      48  100938  100947      48  100950  100959
      48  100962  100971      48  100974  100983      48  100986  100995      48
  100998  101007      48  101010  101019      48  101022  101031      48  101034
  101043      48  101046  101055      48  101058  101067      48  101070  101079
      48  101082  101091      48  101094  101103      48  101106  101115      48
  101118  101127      48  101130  101139      48  101142  101151      48  101154
  101163      48  101166  101175      48  101178  101187      48  101190  101199
      48  101202  101211      48  101214  101223      48  101226  101235      48
  101238  101247      48  101250  101259      48  101262  101271      48  101274
  101283      48  101286  101295      48  101298  101307      48  101310  101319
      48  101322  101331      48  101334  101343      48  101346  101355      48
  101358  101367      48  101370  101379      48  101382  101391      48  101394
  101403      48  101406  101415      48  101418  101427      48  101430  101439
      48  101442  101451      48  101454  101463      48  101466  101475      48
  101478  101487      48  101490  101499      48  101502  101511      48  101514
  101523      48  101526  101535      48  101538  101547      48  101550  101559
      48  101562  101571      48  101574  101583      48  101586  101595      48
  101598  101607      48  101610  101619      48  101622  101631      48  101634
  101643      48  101646  101655      48  101658  101667      48  101670  101679
      48  101682  101691      48  101694  101703      48  101706  101715      48
  101718  101727      48  101730  101739      48  101742  101751      48  101754
  101763      48  101766  101775      48  101778  101787      48  101790  101799
      48  101802  101811      48  101814  101823      48  101826  101835      48
  101838  101847      48  101850  101859      48  101862  101871      48  101874
  101883      48  101886  101895      48  101898  101907      48  101910  101919
      48  101922  101931      48  101934  101943      48  101946  101955      48
  101958  101967      48  101970  101979      48  101982  101991      48  101994
  102003      48  102006  102015      48  102018  102027      48  102030  102039
      48  102042  102051      48  102054  102063      48  102066  102075      48
  102078  102087      48  102090  102099      48  102102  102111      48  102114
  102123      48  102126  102135      48  102138  102147      48  102150  102159
      48  102162  102171      48  102174  102183      48  102186  102195      48
  102198  102207      48  102210  102219      48  102222  102231      48  102234
  102243      48  102246  102255      48  102258  102267      48  102270  102279
      48  102282  102291      48  102294  102303      48  102306  102315      48
  102318  102327      48  102330  102339      48  102342  102351      48  102354
  102363      48  102366  102375      48  102378  102387      48  102390  102399
      48  102402  102411      48  102414  102423      48  102426  102435      48
  102438  102447      48  102450  102459      48  102462  102471      48  102474
  102483      48  102486  102495      48  102498  102507      48  102510  102519
      48  102522  102531      48  102534  102543      48  102546  102555      48
  102558  102567      48  102570  102579      48  102582  102591      48  102594
  102603      48  102606  102615      48  102618  102627      48  102630  102639
      48  102642  102651      48  102654  102663      48  102666  102675      48
  102678  102687      48  102690  102699      48  102702  102711      48  102714
  102723      48  102726  102735      48  102738  102747      48  102750  102759
      48  102762  102771      48  102774  102783      48  102786  102795      48
  102798  102807      48  102810  102819      48  102822  102831      48  102834
  102843      48  102846  102855      48  102858  102867      48  102870  102879
      48  102882  102891      48  102894  102903      48  102906  102915      48
  102918  102927      48  102930  102939      48  102942  102951      48  102954
  102963      48  102966  102975      48  102978  102987      48  102990  102999
      48  103002  103011      48  103014  103023      48  103026  103035      48
  103038  103047      48  103050  103059      48  103062  103071      48  103074
  103083      48  103086  103095      48  103098  103107      48  103110  103119
      48  103122  103131      48  103134  103143      48  103146  103155      48
  103158  103167      48  103170  103179      48  103182  103191      48  103194
  103203      48  103206  103215      48  103218  103227      48  103230  103239
      48  103242  103251      48  103254  103263      48  103266  103275      48
  103278  103287      48  103290  103299      48  103302  103311      48  103314
  103323      48  103326  103335      48  103338  103347      48  103350  103359
      48  103362  103371      48  103374  103383      48  103386  103395      48
  103398  103407      48  103410  103419      48  103422  103431      48  103434
  103443      48  103446  103455      48  103458  103467      48  103470  103479
      48  103482  103491      48  103494  103503      48  103506  103515      48
  103518  103527      48  103530  103539      48  103542  103551      48  103554
  103563      48  103566  103575      48  103578  103587      48  103590  103599
      48  103602  103611      48  103614  103623      48  103626  103635      48
  103638  103647      48  103650  103659      48  103662  103671      48  103674
  103683      48  103686  103695      48  103698  103707      48  103710  103719
      48  103722  103731      48  103734  103743      48  103746  103755      48
  103758  103767      48  103770  103779      48  103782  103791      48  103794
  103803      48  103806  103815      48  103818  103827      48  103830  103839
      48  103842  103851      48  103854  103863      48  103866  103875      48
  103878  103887      48  103890  103899      48  103902  103911      48  103914
  103923      48  103926  103935      48  103938  103947      48  103950  103959
      48  103962  103971      48  103974  103983      48  103986  103995      48
  103998  104007      48  104010  104019      48  104022  104031      48  104034
  104043      48  104046  104055      48  104058  104067      48  104070  104079
      48  104082  104091      48  104094  104103      48  104106  104115      48
  104118  104127      48  104130  104139      48  104142  104151      48  104154
  104163      48  104166  104175      48  104178  104187      48  104190  104199
      48  104202  104211      48  104214  104223      48  104226  104235      48
  104238  104247      48  104250  104259      48  104262  104271      48  104274
  104283      48  104286  104295      48  104298  104307      48  104310  104319
      48  104322  104331      48  104334  104343      48  104346  104355      48
  104358  104367      48  104370  104379      48  104382  104391      48  104394
  104403      48  104406  104415      48  104418  104427      48  104430  104439
      48  104442  104451      48  104454  104463      48  104466  104475      48
  104478  104487      48  104490  104499      48  104502  104511      48  104514
  104523      48  104526  104535      48  104538  104547      48  104550  104559
      48  104562  104571      48  104574  104583      48  104586  104595      48
  104598  104607      48  104610  104619      48  104622  104631      48  104634
  104643      48  104646  104655      48  104658  104667      48  104670  104679
      48  104682  104691      48  104694  104703      48  104706  104715      48
  104718  104727      48  104730  104739      48  104742  104751      48  104754
  104763      48  104766  104775      48  104778  104787      48  104790  104799
      48  104802  104811      48  104814  104823      48  104826  104835      48
  104838  104847      48  104850  104859      48  104862  104871      48  104874
  104883      48  104886  104895      48  104898  104907      48  104910  104919
      48  104922  104931      48  104934  104943      48  104946  104955      48
  104958  104967      48  104970  104979      48  104982  104991      48  104994
  105003      48  105006  105015      48  105018  105027      48  105030  105039
      48  105042  105051      48  105054  105063      48  105066  105075      48
  105078  105087      48  105090  105099      48  105102  105111      48  105114
  105123      48  105126  105135      48  105138  105147      48  105150  105159
      48  105162  105171      48  105174  105183      48  105186  105195      48
  105198  105207      48  105210  105219      48  105222  105231      48  105234
  105243      48  105246  105255      48  105258  105267      48  105270  105279
      48  105282  105291      48  105294  105303      48  105306  105315      48
  105318  105327      48  105330  105339      48  105342  105351      48  105354
  105363      48  105366  105375      48  105378  105387      48  105390  105399
      48  105402  105411      48  105414  105423      48  105426  105435      48
  105438  105447      48  105450  105459      48  105462  105471      48  105474
  105483      48  105486  105495      48  105498  105507      48  105510  105519
      48  105522  105531      48  105534  105543      48  105546  105555      48
  105558  105567      48  105570  105579      48  105582  105591      48  105594
  105603      48  105606  105615      48  105618  105627      48  105630  105639
      48  105642  105651      48  105654  105663      48  105666  105675      48
  105678  105687      48  105690  105699      48  105702  105711      48  105714
  105723      48  105726  105735      48  105738  105747      48  105750  105759
      48  105762  105771      48  105774  105783      48  105786  105795      48
  105798  105807      48  105810  105819      48  105822  105831      48  105834
  105843      48  105846  105855      48  105858  105867      48  105870  105879
      48  105882  105891      48  105894  105903      48  105906  105915      48
  105918  105927      48  105930  105939      48  105942  105951      48  105954
  105963      48  105966  105975      48  105978  105987      48  105990  105999
      48  106002  106011      48  106014  106023      48  106026  106035      48
  106038  106047      48  106050  106059      48  106062  106071      48  106074
  106083      48  106086  106095      48  106098  106107      48  106110  106119
      48  106122  106131      48  106134  106143      48  106146  106155      48
  106158  106167      48  106170  106179      48  106182  106191      48  106194
  106203      48  106206  106215      48  106218  106227      48  106230  106239
      48  106242  106251      48  106254  106263      48  106266  106275      48
  106278  106287      48  106290  106299      48  106302  106311      48  106314
  106323      48  106326  106335      48  106338  106347      48  106350  106359
      48  106362  106371      48  106374  106383      48  106386  106395      48
  106398  106407      48  106410  106419      48  106422  106431      48  106434
  106443      48  106446  106455      48  106458  106467      48  106470  106479
      48  106482  106491      48  106494  106503      48  106506  106515      48
  106518  106527      48  106530  106539      48  106542  106551      48  106554
  106563      48  106566  106575      48  106578  106587      48  106590  106599
      48  106602  106611      48  106614  106623      48  106626  106635      48
  106638  106647      48  106650  106659      48  106662  106671      48  106674
  106683      48  106686  106695      48  106698  106707      48  106710  106719
      48  106722  106731      48  106734  106743      48  106746  106755      48
  106758  106767      48  106770  106779      48  106782  106791      48  106794
  106803      48  106806  106815      48  106818  106827      48  106830  106839
      48  106842  106851      48  106854  106863      48  106866  106875      48
  106878  106887      48  106890  106899      48  106902  106911      48  106914
  106923      48  106926  106935      48  106938  106947      48  106950  106959
      48  106962  106971      48  106974  106983      48  106986  106995      48
  106998  107007      48  107010  107019      48  107022  107031      48  107034
  107043      48  107046  107055      48  107058  107067      48  107070  107079
      48  107082  107091      48  107094  107103      48  107106  107115      48
  107118  107127      48  107130  107139      48  107142  107151      48  107154
  107163      48  107166  107175      48  107178  107187      48  107190  107199
      48  107202  107211      48  107214  107223      48  107226  107235      48
  107238  107247      48  107250  107259      48  107262  107271      48  107274
  107283      48  107286  107295      48  107298  107307      48  107310  107319
      48  107322  107331      48  107334  107343      48  107346  107355      48
  107358  107367      48  107370  107379      48  107382  107391      48  107394
  107403      48  107406  107415      48  107418  107427      48  107430  107439
      48  107442  107451      48  107454  107463      48  107466  107475      48
  107478  107487      48  107490  107499      48  107502  107511      48  107514
  107523      48  107526  107535      48  107538  107547      48  107550  107559
      48  107562  107571      48  107574  107583      48  107586  107595      48
  107598  107607      48  107610  107619      48  107622  107631      48  107634
  107643      48  107646  107655      48  107658  107667      48  107670  107679
      48  107682  107691      48  107694  107703      48  107706  107715      48
  107718  107727      48  107730  107739      48  107742  107751      48  107754
  107763      48  107766  107775      48  107778  107787      48  107790  107799
      48  107802  107811      48  107814  107823      48  107826  107835      48
  107838  107847      48  107850  107859      48  107862  107871      48  107874
  107883      48  107886  107895      48  107898  107907      48  107910  107919
      48  107922  107931      48  107934  107943      48  107946  107955      48
  107958  107967      48  107970  107979      48  107982  107991      48  107994
  108003      48  108006  108015      48  108018  108027      48  108030  108039
      48  108042  108051      48  108054  108063      48  108066  108075      48
  108078  108087      48  108090  108099      48  108102  108111      48  108114
  108123      48  108126  108135      48  108138  108147      48  108150  108159
      48  108162  108171      48  108174  108183      48  108186  108195      48
  108198  108207      48  108210  108219      48  108222  108231      48  108234
  108243      48  108246  108255      48  108258  108267      48  108270  108279
      48  108282  108291      48  108294  108303      48  108306  108315      48
  108318  108327      48  108330  108339      48  108342  108351      48  108354
  108363      48  108366  108375      48  108378  108387      48  108390  108399
      48  108402  108411      48  108414  108423      48  108426  108435      48
  108438  108447      48  108450  108459      48  108462  108471      48  108474
  108483      48  108486  108495      48  108498  108507      48  108510  108519
      48  108522  108531      48  108534  108543      48  108546  108555      48
  108558  108567      48  108570  108579      48  108582  108591      48  108594
  108603      48  108606  108615      48  108618  108627      48  108630  108639
      48  108642  108651      48  108654  108663      48  108666  108675      48
  108678  108687      48  108690  108699      48  108702  108711      48  108714
  108723      48  108726  108735      48  108738  108747      48  108750  108759
      48  108762  108771      48  108774  108783      48  108786  108795      48
  108798  108807      48  108810  108819      48  108822  108831      48  108834
  108843      48  108846  108855      48  108858  108867      48  108870  108879
      48  108882  108891      48  108894  108903      48  108906  108915      48
  108918  108927      48  108930  108939      48  108942  108951      48  108954
  108963      48  108966  108975      48  108978  108987      48  108990  108999
      48  109002  109011      48  109014  109023      48  109026  109035      48
  109038  109047      48  109050  109059      48  109062  109071      48  109074
  109083      48  109086  109095      48  109098  109107      48  109110  109119
      48  109122  109131      48  109134  109143      48  109146  109155      48
  109158  109167      48  109170  109179      48  109182  109191      48  109194
  109203      48  109206  109215      48  109218  109227      48  109230  109239
      48  109242  109251      48  109254  109263      48  109266  109275      48
  109278  109287      48  109290  109299      48  109302  109311      48  109314
  109323      48  109326  109335      48  109338  109347      48  109350  109359
      48  109362  109371      48  109374  109383      48  109386  109395      48
  109398  109407      48  109410  109419      48  109422  109431      48  109434
  109443      48  109446  109455      48  109458  109467      48  109470  109479
      48  109482  109491      48  109494  109503      48  109506  109515      48
  109518  109527      48  109530  109539      48  109542  109551      48  109554
  109563      48  109566  109575      48  109578  109587      48  109590  109599
      48  109602  109611      48  109614  109623      48  109626  109635      48
  109638  109647      48  109650  109659      48  109662  109671      48  109674
  109683      48  109686  109695      48  109698  109707      48  109710  109719
      48  109722  109731      48  109734  109743      48  109746  109755      48
  109758  109767      48  109770  109779      48  109782  109791      48  109794
  109803      48  109806  109815      48  109818  109827      48  109830  109839
      48  109842  109851      48  109854  109863      48  109866  109875      48
  109878  109887      48  109890  109899      48  109902  109911      48  109914
  109923      48  109926  109935      48  109938  109947      48  109950  109959
      48  109962  109971      48  109974  109983      48  109986  109995      48
  109998  110007      48  110010  110019      48  110022  110031      48  110034
  110043      48  110046  110055      48  110058  110067      48  110070  110079
      48  110082  110091      48  110094  110103      48  110106  110115      48
  110118  110127      48  110130  110139      48  110142  110151      48  110154
  110163      48  110166  110175      48  110178  110187      48  110190  110199
      48  110202  110211      48  110214  110223      48  110226  110235      48
  110238  110247      48  110250  110259      48  110262  110271      48  110274
  110283      48  110286  110295      48  110298  110307      48  110310  110319
      48  110322  110331      48  110334  110343      48  110346  110355      48
  110358  110367      48  110370  110379      48  110382  110391      48  110394
  110403      48  110406  110415      48  110418  110427      48  110430  110439
      48  110442  110451      48  110454  110463      48  110466  110475      48
  110478  110487      48  110490  110499      48  110502  110511      48  110514
  110523      48  110526  110535      48  110538  110547      48  110550  110559
      48  110562  110571      48  110574  110583      48  110586  110595      48
  110598  110607      48  110610  110619      48  110622  110631      48  110634
  110643      48  110646  110655      48  110658  110667      48  110670  110679
      48  110682  110691      48  110694  110703      48  110706  110715      48
  110718  110727      48  110730  110739      48  110742  110751      48  110754
  110763      48  110766  110775      48  110778  110787      48  110790  110799
      48  110802  110811      48  110814  110823      48  110826  110835      48
  110838  110847      48  110850  110859      48  110862  110871      48  110874
  110883      48  110886  110895      48  110898  110907      48  110910  110919
      48  110922  110931      48  110934  110943      48  110946  110955      48
  110958  110967      48  110970  110979      48  110982  110991      48  110994
  111003      48  111006  111015      48  111018  111027      48  111030  111039
      48  111042  111051      48  111054  111063      48  111066  111075      48
  111078  111087      48  111090  111099      48  111102  111111      48  111114
  111123      48  111126  111135      48  111138  111147      48  111150  111159
      48  111162  111171      48  111174  111183      48  111186  111195      48
  111198  111207      48  111210  111219      48  111222  111231      48  111234
  111243      48  111246  111255      48  111258  111267      48  111270  111279
      48  111282  111291      48  111294  111303      48  111306  111315      48
  111318  111327      48  111330  111339      48  111342  111351      48  111354
  111363      48  111366  111375      48  111378  111387      48  111390  111399
      48  111402  111411      48  111414  111423      48  111426  111435      48
  111438  111447      48  111450  111459      48  111462  111471      48  111474
  111483      48  111486  111495      48  111498  111507      48  111510  111519
      48  111522  111531      48  111534  111543      48  111546  111555      48
  111558  111567      48  111570  111579      48  111582  111591      48  111594
  111603      48  111606  111615      48  111618  111627      48  111630  111639
      48  111642  111651      48  111654  111663      48  111666  111675      48
  111678  111687      48  111690  111699      48  111702  111711      48  111714
  111723      48  111726  111735      48  111738  111747      48  111750  111759
      48  111762  111771      48  111774  111783      48  111786  111795      48
  111798  111807      48  111810  111819      48  111822  111831      48  111834
  111843      48  111846  111855      48  111858  111867      48  111870  111879
      48  111882  111891      48  111894  111903      48  111906  111915      48
  111918  111927      48  111930  111939      48  111942  111951      48  111954
  111963      48  111966  111975      48  111978  111987      48  111990  111999
      48  112002  112011      48  112014  112023      48  112026  112035      48
  112038  112047      48  112050  112059      48  112062  112071      48  112074
  112083      48  112086  112095      48  112098  112107      48  112110  112119
      48  112122  112131      48  112134  112143      48  112146  112155      48
  112158  112167      48  112170  112179      48  112182  112191      48  112194
  112203      48  112206  112215      48  112218  112227      48  112230  112239
      48  112242  112251      48  112254  112263      48  112266  112275      48
  112278  112287      48  112290  112299      48  112302  112311      48  112314
  112323      48  112326  112335      48  112338  112347      48  112350  112359
      48  112362  112371      48  112374  112383      48  112386  112395      48
  112398  112407      48  112410  112419      48  112422  112431      48  112434
  112443      48  112446  112455      48  112458  112467      48  112470  112479
      48  112482  112491      48  112494  112503      48  112506  112515      48
  112518  112527      48  112530  112539      48  112542  112551      48  112554
  112563      48  112566  112575      48  112578  112587      48  112590  112599
      48  112602  112611      48  112614  112623      48  112626  112635      48
  112638  112647      48  112650  112659      48  112662  112671      48  112674
  112683      48  112686  112695      48  112698  112707      48  112710  112719
      48  112722  112731      48  112734  112743      48  112746  112755      48
  112758  112767      48  112770  112779      48  112782  112791      48  112794
  112803      48  112806  112815      48  112818  112827      48  112830  112839
      48  112842  112851      48  112854  112863      48  112866  112875      48
  112878  112887      48  112890  112899      48  112902  112911      48  112914
  112923      48  112926  112935      48  112938  112947      48  112950  112959
      48  112962  112971      48  112974  112983      48  112986  112995      48
  112998  113007      48  113010  113019      48  113022  113031      48  113034
  113043      48  113046  113055      48  113058  113067      48  113070  113079
      48  113082  113091      48  113094  113103      48  113106  113115      48
  113118  113127      48  113130  113139      48  113142  113151      48  113154
  113163      48  113166  113175      48  113178  113187      48  113190  113199
      48  113202  113211      48  113214  113223      48  113226  113235      48
  113238  113247      48  113250  113259      48  113262  113271      48  113274
  113283      48  113286  113295      48  113298  113307      48  113310  113319
      48  113322  113331      48  113334  113343      48  113346  113355      48
  113358  113367      48  113370  113379      48  113382  113391      48  113394
  113403      48  113406  113415      48  113418  113427      48  113430  113439
      48  113442  113451      48  113454  113463      48  113466  113475      48
  113478  113487      48  113490  113499      48  113502  113511      48  113514
  113523      48  113526  113535      48  113538  113547      48  113550  113559
      48  113562  113571      48  113574  113583      48  113586  113595      48
  113598  113607      48  113610  113619      48  113622  113631      48  113634
  113643      48  113646  113655      48  113658  113667      48  113670  113679
      48  113682  113691      48  113694  113703      48  113706  113715      48
  113718  113727      48  113730  113739      48  113742  113751      48  113754
  113763      48  113766  113775      48  113778  113787      48  113790  113799
      48  113802  113811      48  113814  113823      48  113826  113835      48
  113838  113847      48  113850  113859      48  113862  113871      48  113874
  113883      48  113886  113895      48  113898  113907      48  113910  113919
      48  113922  113931      48  113934  113943      48  113946  113955      48
  113958  113967      48  113970  113979      48  113982  113991      48  113994
  114003      48  114006  114015      48  114018  114027      48  114030  114039
      48  114042  114051      48  114054  114063      48  114066  114075      48
  114078  114087      48  114090  114099      48  114102  114111      48  114114
  114123      48  114126  114135      48  114138  114147      48  114150  114159
      48  114162  114171      48  114174  114183      48  114186  114195      48
  114198  114207      48  114210  114219      48  114222  114231      48  114234
  114243      48  114246  114255      48  114258  114267      48  114270  114279
      48  114282  114291      48  114294  114303      48  114306  114315      48
  114318  114327      48  114330  114339      48  114342  114351      48  114354
  114363      48  114366  114375      48  114378  114387      48  114390  114399
      48  114402  114411      48  114414  114423      48  114426  114435      48
  114438  114447      48  114450  114459      48  114462  114471      48  114474
  114483      48  114486  114495      48  114498  114507      48  114510  114519
      48  114522  114531      48  114534  114543      48  114546  114555      48
  114558  114567      48  114570  114579      48  114582  114591      48  114594
  114603      48  114606  114615      48  114618  114627      48  114630  114639
      48  114642  114651      48  114654  114663      48  114666  114675      48
  114678  114687      48  114690  114699      48  114702  114711      48  114714
  114723      48  114726  114735      48  114738  114747      48  114750  114759
      48  114762  114771      48  114774  114783      48  114786  114795      48
  114798  114807      48  114810  114819      48  114822  114831      48  114834
  114843      48  114846  114855      48  114858  114867      48  114870  114879
      48  114882  114891      48  114894  114903      48  114906  114915      48
  114918  114927      48  114930  114939      48  114942  114951      48  114954
  114963      48  114966  114975      48  114978  114987      48  114990  114999
      48  115002  115011      48  115014  115023      48  115026  115035      48
  115038  115047      48  115050  115059      48  115062  115071      48  115074
  115083      48  115086  115095      48  115098  115107      48  115110  115119
      48  115122  115131      48  115134  115143      48  115146  115155      48
  115158  115167      48  115170  115179      48  115182  115191      48  115194
  115203      48  115206  115215      48  115218  115227      48  115230  115239
      48  115242  115251      48  115254  115263      48  115266  115275      48
  115278  115287      48  115290  115299      48  115302  115311      48  115314
  115323      48  115326  115335      48  115338  115347      48  115350  115359
      48  115362  115371      48  115374  115383      48  115386  115395      48
  115398  115407      48  115410  115419      48  115422  115431      48  115434
  115443      48  115446  115455      48  115458  115467      48  115470  115479
      48  115482  115491      48  115494  115503      48  115506  115515      48
  115518  115527      48  115530  115539      48  115542  115551      48  115554
  115563      48  115566  115575      48  115578  115587      48  115590  115599
      48  115602  115611      48  115614  115623      48  115626  115635      48
  115638  115647      48  115650  115659      48  115662  115671      48  115674
  115683      48  115686  115695      48  115698  115707      48  115710  115719
      48  115722  115731      48  115734  115743      48  115746  115755      48
  115758  115767      48  115770  115779      48  115782  115791      48  115794
  115803      48  115806  115815      48  115818  115827      48  115830  115839
      48  115842  115851      48  115854  115863      48  115866  115875      48
  115878  115887      48  115890  115899      48  115902  115911      48  115914
  115923      48  115926  115935      48  115938  115947      48  115950  115959
      48  115962  115971      48  115974  115983      48  115986  115995      48
  115998  116007      48  116010  116019      48  116022  116031      48  116034
  116043      48  116046  116055      48  116058  116067      48  116070  116079
      48  116082  116091      48  116094  116103      48  116106  116115      48
  116118  116127      48  116130  116139      48  116142  116151      48  116154
  116163      48  116166  116175      48  116178  116187      48  116190  116199
      48  116202  116211      48  116214  116223      48  116226  116235      48
  116238  116247      48  116250  116259      48  116262  116271      48  116274
  116283      48  116286  116295      48  116298  116307      48  116310  116319
      48  116322  116331      48  116334  116343      48  116346  116355      48
  116358  116367      48  116370  116379      48  116382  116391      48  116394
  116403      48  116406  116415      48  116418  116427      48  116430  116439
      48  116442  116451      48  116454  116463      48  116466  116475      48
  116478  116487      48  116490  116499      48  116502  116511      48  116514
  116523      48  116526  116535      48  116538  116547      48  116550  116559
      48  116562  116571      48  116574  116583      48  116586  116595      48
  116598  116607      48  116610  116619      48  116622  116631      48  116634
  116643      48  116646  116655      48  116658  116667      48  116670  116679
      48  116682  116691      48  116694  116703      48  116706  116715      48
  116718  116727      48  116730  116739      48  116742  116751      48  116754
  116763      48  116766  116775      48  116778  116787      48  116790  116799
      48  116802  116811      48  116814  116823      48  116826  116835      48
  116838  116847      48  116850  116859      48  116862  116871      48  116874
  116883      48  116886  116895      48  116898  116907      48  116910  116919
      48  116922  116931      48  116934  116943      48  116946  116955      48
  116958  116967      48  116970  116979      48  116982  116991      48  116994
  117003      48  117006  117015      48  117018  117027      48  117030  117039
      48  117042  117051      48  117054  117063      48  117066  117075      48
  117078  117087      48  117090  117099      48  117102  117111      48  117114
  117123      48  117126  117135      48  117138  117147      48  117150  117159
      48  117162  117171      48  117174  117183      48  117186  117195      48
  117198  117207      48  117210  117219      48  117222  117231      48  117234
  117243      48  117246  117255      48  117258  117267      48  117270  117279
      48  117282  117291      48  117294  117303      48  117306  117315      48
  117318  117327      48  117330  117339      48  117342  117351      48  117354
  117363      48  117366  117375      48  117378  117387      48  117390  117399
      48  117402  117411      48  117414  117423      48  117426  117435      48
  117438  117447      48  117450  117459      48  117462  117471      48  117474
  117483      48  117486  117495      48  117498  117507      48  117510  117519
      48  117522  117531      48  117534  117543      48  117546  117555      48
  117558  117567      48  117570  117579      48  117582  117591      48  117594
  117603      48  117606  117615      48  117618  117627      48  117630  117639
      48  117642  117651      48  117654  117663      48  117666  117675      48
  117678  117687      48  117690  117699      48  117702  117711      48  117714
  117723      48  117726  117735      48  117738  117747      48  117750  117759
      48  117762  117771      48  117774  117783      48  117786  117795      48
  117798  117807      48  117810  117819      48  117822  117831      48  117834
  117843      48  117846  117855      48  117858  117867      48  117870  117879
      48  117882  117891      48  117894  117903      48  117906  117915      48
  117918  117927      48  117930  117939      48  117942  117951      48  117954
  117963      48  117966  117975      48  117978  117987      48  117990  117999
      48  118002  118011      48  118014  118023      48  118026  118035      48
  118038  118047      48  118050  118059      48  118062  118071      48  118074
  118083      48  118086  118095      48  118098  118107      48  118110  118119
      48  118122  118131      48  118134  118143      48  118146  118155      48
  118158  118167      48  118170  118179      48  118182  118191      48  118194
  118203      48  118206  118215      48  118218  118227      48  118230  118239
      48  118242  118251      48  118254  118263      48  118266  118275      48
  118278  118287      48  118290  118299      48  118302  118311      48  118314
  118323      48  118326  118335      48  118338  118347      48  118350  118359
      48  118362  118371      48  118374  118383      48  118386  118395      48
  118398  118407      48  118410  118419      48  118422  118431      48  118434
  118443      48  118446  118455      48  118458  118467      48  118470  118479
      48  118482  118491      48  118494  118503      48  118506  118515      48
  118518  118527      48  118530  118539      48  118542  118551      48  118554
  118563      48  118566  118575      48  118578  118587      48  118590  118599
      48  118602  118611      48  118614  118623      48  118626  118635      48
  118638  118647      48  118650  118659      48  118662  118671      48  118674
  118683      48  118686  118695      48  118698  118707      48  118710  118719
      48  118722  118731      48  118734  118743      48  118746  118755      48
  118758  118767      48  118770  118779      48  118782  118791      48  118794
  118803      48  118806  118815      48  118818  118827      48  118830  118839
      48  118842  118851      48  118854  118863      48  118866  118875      48
  118878  118887      48  118890  118899      48  118902  118911      48  118914
  118923      48  118926  118935      48  118938  118947      48  118950  118959
      48  118962  118971      48  118974  118983      48  118986  118995      48
  118998  119007      48  119010  119019      48  119022  119031      48  119034
  119043      48  119046  119055      48  119058  119067      48  119070  119079
      48  119082  119091      48  119094  119103      48  119106  119115      48
  119118  119127      48  119130  119139      48  119142  119151      48  119154
  119163      48  119166  119175      48  119178  119187      48  119190  119199
      48  119202  119211      48  119214  119223      48  119226  119235      48
  119238  119247      48  119250  119259      48  119262  119271      48  119274
  119283      48  119286  119295      48  119298  119307      48  119310  119319
      48  119322  119331      48  119334  119343      48  119346  119355      48
  119358  119367      48  119370  119379      48  119382  119391      48  119394
  119403      48  119406  119415      48  119418  119427      48  119430  119439
      48  119442  119451      48  119454  119463      48  119466  119475      48
  119478  119487      48  119490  119499      48  119502  119511      48  119514
  119523      48  119526  119535      48  119538  119547      48  119550  119559
      48  119562  119571      48  119574  119583      48  119586  119595      48
  119598  119607      48  119610  119619      48  119622  119631      48  119634
  119643      48  119646  119655      48  119658  119667      48  119670  119679
      48  119682  119691      48  119694  119703      48  119706  119715      48
  119718  119727      48  119730  119739      48  119742  119751      48  119754
  119763      48  119766  119775      48  119778  119787      48  119790  119799
      48  119802  119811      48  119814  119823      48  119826  119835      48
  119838  119847      48  119850  119859      48  119862  119871      48  119874
  119883      48  119886  119895      48  119898  119907      48  119910  119919
      48  119922  119931      48  119934  119943      48  119946  119955      48
  119958  119967      48  119970  119979      48  119982  119991      48  119994
  120003      48  120006  120015      48  120018  120027      48  120030  120039
      48  120042  120051      48  120054  120063      48  120066  120075      48
  120078  120087      48  120090  120099      48  120102  120111      48  120114
  120123      48  120126  120135      48  120138  120147      48  120150  120159
      48  120162  120171      48  120174  120183      48  120186  120195      48
  120198  120207      48  120210  120219      48  120222  120231      48  120234
  120243      48  120246  120255      48  120258  120267      48  120270  120279
      48  120282  120291      48  120294  120303      48  120306  120315      48
  120318  120327      48  120330  120339      48  120342  120351      48  120354
  120363      48  120366  120375      48  120378  120387      48  120390  120399
      48  120402  120411      48  120414  120423      48  120426  120435      48
  120438  120447      48  120450  120459      48  120462  120471      48  120474
  120483      48  120486  120495      48  120498  120507      48  120510  120519
      48  120522  120531      48  120534  120543      48  120546  120555      48
  120558  120567      48  120570  120579      48  120582  120591      48  120594
  120603      48  120606  120615      48  120618  120627      48  120630  120639
      48  120642  120651      48  120654  120663      48  120666  120675      48
  120678  120687      48  120690  120699      48  120702  120711      48  120714
  120723      48  120726  120735      48  120738  120747      48  120750  120759
      48  120762  120771      48  120774  120783      48  120786  120795      48
  120798  120807      48  120810  120819      48  120822  120831      48  120834
  120843      48  120846  120855      48  120858  120867      48  120870  120879
      48  120882  120891      48  120894  120903      48  120906  120915      48
  120918  120927      48  120930  120939      48  120942  120951      48  120954
  120963      48  120966  120975      48  120978  120987      48  120990  120999
      48  121002  121011      48  121014  121023      48  121026  121035      48
  121038  121047      48  121050  121059      48  121062  121071      48  121074
  121083      48  121086  121095      48  121098  121107      48  121110  121119
      48  121122  121131      48  121134  121143      48  121146  121155      48
  121158  121167      48  121170  121179      48  121182  121191      48  121194
  121203      48  121206  121215      48  121218  121227      48  121230  121239
      48  121242  121251      48  121254  121263      48  121266  121275      48
  121278  121287      48  121290  121299      48  121302  121311      48  121314
  121323      48  121326  121335      48  121338  121347      48  121350  121359
      48  121362  121371      48  121374  121383      48  121386  121395      48
  121398  121407      48  121410  121419      48  121422  121431      48  121434
  121443      48  121446  121455      48  121458  121467      48  121470  121479
      48  121482  121491      48  121494  121503      48  121506  121515      48
  121518  121527      48  121530  121539      48  121542  121551      48  121554
  121563      48  121566  121575      48  121578  121587      48  121590  121599
      48  121602  121611      48  121614  121623      48  121626  121635      48
  121638  121647      48  121650  121659      48  121662  121671      48  121674
  121683      48  121686  121695      48  121698  121707      48  121710  121719
      48  121722  121731      48  121734  121743      48  121746  121755      48
  121758  121767      48  121770  121779      48  121782  121791      48  121794
  121803      48  121806  121815      48  121818  121827      48  121830  121839
      48  121842  121851      48  121854  121863      48  121866  121875      48
  121878  121887      48  121890  121899      48  121902  121911      48  121914
  121923      48  121926  121935      48  121938  121947      48  121950  121959
      48  121962  121971      48  121974  121983      48  121986  121995      48
  121998  122007      48  122010  122019      48  122022  122031      48  122034
  122043      48  122046  122055      48  122058  122067      48  122070  122079
      48  122082  122091      48  122094  122103      48  122106  122115      48
  122118  122127      48  122130  122139      48  122142  122151      48  122154
  122163      48  122166  122175      48  122178  122187      48  122190  122199
      48  122202  122211      48  122214  122223      48  122226  122235      48
  122238  122247      48  122250  122259      48  122262  122271      48  122274
  122283      48  122286  122295      48  122298  122307      48  122310  122319
      48  122322  122331      48  122334  122343      48  122346  122355      48
  122358  122367      48  122370  122379      48  122382  122391      48  122394
  122403      48  122406  122415      48  122418  122427      48  122430  122439
      48  122442  122451      48  122454  122463      48  122466  122475      48
  122478  122487      48  122490  122499      48  122502  122511      48  122514
  122523      48  122526  122535      48  122538  122547      48  122550  122559
      48  122562  122571      48  122574  122583      48  122586  122595      48
  122598  122607      48  122610  122619      48  122622  122631      48  122634
  122643      48  122646  122655      48  122658  122667      48  122670  122679
      48  122682  122691      48  122694  122703      48  122706  122715      48
  122718  122727      48  122730  122739      48  122742  122751      48  122754
  122763      48  122766  122775      48  122778  122787      48  122790  122799
      48  122802  122811      48  122814  122823      48  122826  122835      48
  122838  122847      48  122850  122859      48  122862  122871      48  122874
  122883      48  122886  122895      48  122898  122907      48  122910  122919
      48  122922  122931      48  122934  122943      48  122946  122955      48
  122958  122967      48  122970  122979      48  122982  122991      48  122994
  123003      48  123006  123015      48  123018  123027      48  123030  123039
      48  123042  123051      48  123054  123063      48  123066  123075      48
  123078  123087      48  123090  123099      48  123102  123111      48  123114
  123123      48  123126  123135      48  123138  123147      48  123150  123159
      48  123162  123171      48  123174  123183      48  123186  123195      48
  123198  123207      48  123210  123219      48  123222  123231      48  123234
  123243      48  123246  123255      48  123258  123267      48  123270  123279
      48  123282  123291      48  123294  123303      48  123306  123315      48
  123318  123327      48  123330  123339      48  123342  123351      48  123354
  123363      48  123366  123375      48  123378  123387      48  123390  123399
      48  123402  123411      48  123414  123423      48  123426  123435      48
  123438  123447      48  123450  123459      48  123462  123471      48  123474
  123483      48  123486  123495      48  123498  123507      48  123510  123519
      48  123522  123531      48  123534  123543      48  123546  123555      48
  123558  123567      48  123570  123579      48  123582  123591      48  123594
  123603      48  123606  123615      48  123618  123627      48  123630  123639
      48  123642  123651      48  123654  123663      48  123666  123675      48
  123678  123687      48  123690  123699      48  123702  123711      48  123714
  123723      48  123726  123735      48  123738  123747      48  123750  123759
      48  123762  123771      48  123774  123783      48  123786  123795      48
  123798  123807      48  123810  123819      48  123822  123831      48  123834
  123843      48  123846  123855      48  123858  123867      48  123870  123879
      48  123882  123891      48  123894  123903      48  123906  123915      48
  123918  123927      48  123930  123939      48  123942  123951      48  123954
  123963      48  123966  123975      48  123978  123987      48  123990  123999
      48  124002  124011      48  124014  124023      48  124026  124035      48
  124038  124047      48  124050  124059      48  124062  124071      48  124074
  124083      48  124086  124095      48  124098  124107      48  124110  124119
      48  124122  124131      48  124134  124143      48  124146  124155      48
  124158  124167      48  124170  124179      48  124182  124191      48  124194
  124203      48  124206  124215      48  124218  124227      48  124230  124239
      48  124242  124251      48  124254  124263      48  124266  124275      48
  124278  124287      48  124290  124299      48  124302  124311      48  124314
  124323      48  124326  124335      48  124338  124347      48  124350  124359
      48  124362  124371      48  124374  124383      48  124386  124395      48
  124398  124407      48  124410  124419      48  124422  124431      48  124434
  124443      48  124446  124455      48  124458  124467      48  124470  124479
      48  124482  124491      48  124494  124503      48  124506  124515      48
  124518  124527      48  124530  124539      48  124542  124551      48  124554
  124563      48  124566  124575      48  124578  124587      48  124590  124599
      48  124602  124611      48  124614  124623      48  124626  124635      48
  124638  124647      48  124650  124659      48  124662  124671      48  124674
  124683      48  124686  124695      48  124698  124707      48  124710  124719
      48  124722  124731      48  124734  124743      48  124746  124755      48
  124758  124767      48  124770  124779      48  124782  124791      48  124794
  124803      48  124806  124815      48  124818  124827      48  124830  124839
      48  124842  124851      48  124854  124863      48  124866  124875      48
  124878  124887      48  124890  124899      48  124902  124911      48  124914
  124923      48  124926  124935      48  124938  124947      48  124950  124959
      48  124962  124971      48  124974  124983      48  124986  124995      48
  124998  125007      48  125010  125019      48  125022  125031      48  125034
  125043      48  125046  125055      48  125058  125067      48  125070  125079
      48  125082  125091      48  125094  125103      48  125106  125115      48
  125118  125127      48  125130  125139      48  125142  125151      48  125154
  125163      48  125166  125175      48  125178  125187      48  125190  125199
      48  125202  125211      48  125214  125223      48  125226  125235      48
  125238  125247      48  125250  125259      48  125262  125271      48  125274
  125283      48  125286  125295      48  125298  125307      48  125310  125319
      48  125322  125331      48  125334  125343      48  125346  125355      48
  125358  125367      48  125370  125379      48  125382  125391      48  125394
  125403      48  125406  125415      48  125418  125427      48  125430  125439
      48  125442  125451      48  125454  125463      48  125466  125475      48
  125478  125487      48  125490  125499      48  125502  125511      48  125514
  125523      48  125526  125535      48  125538  125547      48  125550  125559
      48  125562  125571      48  125574  125583      48  125586  125595      48
  125598  125607      48  125610  125619      48  125622  125631      48  125634
  125643      48  125646  125655      48  125658  125667      48  125670  125679
      48  125682  125691      48  125694  125703      48  125706  125715      48
  125718  125727      48  125730  125739      48  125742  125751      48  125754
  125763      48  125766  125775      48  125778  125787      48  125790  125799
      48  125802  125811      48  125814  125823      48  125826  125835      48
  125838  125847      48  125850  125859      48  125862  125871      48  125874
  125883      48  125886  125895      48  125898  125907      48  125910  125919
      48  125922  125931      48  125934  125943      48  125946  125955      48
  125958  125967      48  125970  125979      48  125982  125991      48  125994
  126003      48  126006  126015      48  126018  126027      48  126030  126039
      48  126042  126051      48  126054  126063      48  126066  126075      48
  126078  126087      48  126090  126099      48  126102  126111      48  126114
  126123      48  126126  126135      48  126138  126147      48  126150  126159
      48  126162  126171      48  126174  126183      48  126186  126195      48
  126198  126207      48  126210  126219      48  126222  126231      48  126234
  126243      48  126246  126255      48  126258  126267      48  126270  126279
      48  126282  126291      48  126294  126303      48  126306  126315      48
  126318  126327      48  126330  126339      48  126342  126351      48  126354
  126363      48  126366  126375      48  126378  126387      48  126390  126399
      48  126402  126411      48  126414  126423      48  126426  126435      48
  126438  126447      48  126450  126459      48  126462  126471      48  126474
  126483      48  126486  126495      48  126498  126507      48  126510  126519
      48  126522  126531      48  126534  126543      48  126546  126555      48
  126558  126567      48  126570  126579      48  126582  126591      48  126594
  126603      48  126606  126615      48  126618  126627      48  126630  126639
      48  126642  126651      48  126654  126663      48  126666  126675      48
  126678  126687      48  126690  126699      48  126702  126711      48  126714
  126723      48  126726  126735      48  126738  126747      48  126750  126759
      48  126762  126771      48  126774  126783      48  126786  126795      48
  126798  126807      48  126810  126819      48  126822  126831      48  126834
  126843      48  126846  126855      48  126858  126867      48  126870  126879
      48  126882  126891      48  126894  126903      48  126906  126915      48
  126918  126927      48  126930  126939      48  126942  126951      48  126954
  126963      48  126966  126975      48  126978  126987      48  126990  126999
      48  127002  127011      48  127014  127023      48  127026  127035      48
  127038  127047      48  127050  127059      48  127062  127071      48  127074
  127083      48  127086  127095      48  127098  127107      48  127110  127119
      48  127122  127131      48  127134  127143      48  127146  127155      48
  127158  127167      48  127170  127179      48  127182  127191      48  127194
  127203      48  127206  127215      48  127218  127227      48  127230  127239
      48  127242  127251      48  127254  127263      48  127266  127275      48
  127278  127287      48  127290  127299      48  127302  127311      48  127314
  127323      48  127326  127335      48  127338  127347      48  127350  127359
      48  127362  127371      48  127374  127383      48  127386  127395      48
  127398  127407      48  127410  127419      48  127422  127431      48  127434
  127443      48  127446  127455      48  127458  127467      48  127470  127479
      48  127482  127491      48  127494  127503      48  127506  127515      48
  127518  127527      48  127530  127539      48  127542  127551      48  127554
  127563      48  127566  127575      48  127578  127587      48  127590  127599
      48  127602  127611      48  127614  127623      48  127626  127635      48
  127638  127647      48  127650  127659      48  127662  127671      48  127674
  127683      48  127686  127695      48  127698  127707      48  127710  127719
      48  127722  127731      48  127734  127743      48  127746  127755      48
  127758  127767      48  127770  127779      48  127782  127791      48  127794
  127803      48  127806  127815      48  127818  127827      48  127830  127839
      48  127842  127851      48  127854  127863      48  127866  127875      48
  127878  127887      48  127890  127899      48  127902  127911      48  127914
  127923      48  127926  127935      48  127938  127947      48  127950  127959
      48  127962  127971      48  127974  127983      48  127986  127995      48
  127998  128007      48  128010  128019      48  128022  128031      48  128034
  128043      48  128046  128055      48  128058  128067      48  128070  128079
      48  128082  128091      48  128094  128103      48  128106  128115      48
  128118  128127      48  128130  128139      48  128142  128151      48  128154
  128163      48  128166  128175      48  128178  128187      48  128190  128199
      48  128202  128211      48  128214  128223      48  128226  128235      48
  128238  128247      48  128250  128259      48  128262  128271      48  128274
  128283      48  128286  128295      48  128298  128307      48  128310  128319
      48  128322  128331      48  128334  128343      48  128346  128355      48
  128358  128367      48  128370  128379      48  128382  128391      48  128394
  128403      48  128406  128415      48  128418  128427      48  128430  128439
      48  128442  128451      48  128454  128463      48  128466  128475      48
  128478  128487      48  128490  128499      48  128502  128511      48  128514
  128523      48  128526  128535      48  128538  128547      48  128550  128559
      48  128562  128571      48  128574  128583      48  128586  128595      48
  128598  128607      48  128610  128619      48  128622  128631      48  128634
  128643      48  128646  128655      48  128658  128667      48  128670  128679
      48  128682  128691      48  128694  128703      48  128706  128715      48
  128718  128727      48  128730  128739      48  128742  128751      48  128754
  128763      48  128766  128775      48  128778  128787      48  128790  128799
      48  128802  128811      48  128814  128823      48  128826  128835      48
  128838  128847      48  128850  128859      48  128862  128871      48  128874
  128883      48  128886  128895      48  128898  128907      48  128910  128919
      48  128922  128931      48  128934  128943      48  128946  128955      48
  128958  128967      48  128970  128979      48  128982  128991      48  128994
  129003      48  129006  129015      48  129018  129027      48  129030  129039
      48  129042  129051      48  129054  129063      48  129066  129075      48
  129078  129087      48  129090  129099      48  129102  129111      48  129114
  129123      48  129126  129135      48  129138  129147      48  129150  129159
      48  129162  129171      48  129174  129183      48  129186  129195      48
  129198  129207      48  129210  129219      48  129222  129231      48  129234
  129243      48  129246  129255      48  129258  129267      48  129270  129279
      48  129282  129291      48  129294  129303      48  129306  129315      48
  129318  129327      48  129330  129339      48  129342  129351      48  129354
  129363      48  129366  129375      48  129378  129387      48  129390  129399
      48  129402  129411      48  129414  129423      48  129426  129435      48
  129438  129447      48  129450  129459      48  129462  129471      48  129474
  129483      48  129486  129495      48  129498  129507      48  129510  129519
      48  129522  129531      48  129534  129543      48  129546  129555      48
  129558  129567      48  129570  129579      48  129582  129591      48  129594
  129603      48  129606  129615      48  129618  129627      48  129630  129639
      48  129642  129651      48  129654  129663      48  129666  129675      48
  129678  129687      48  129690  129699      48  129702  129711      48  129714
  129723      48  129726  129735      48  129738  129747      48  129750  129759
      48  129762  129771      48  129774  129783      48  129786  129795      48
  129798  129807      48  129810  129819      48  129822  129831      48  129834
  129843      48  129846  129855      48  129858  129867      48  129870  129879
      48  129882  129891      48  129894  129903      48  129906  129915      48
  129918  129927      48  129930  129939      48  129942  129951      48  129954
  129963      48  129966  129975      48  129978  129987      48  129990  129999
      48  130002  130011      48  130014  130023      48  130026  130035      48
  130038  130047      48  130050  130059      48  130062  130071      48  130074
  130083      48  130086  130095      48  130098  130107      48  130110  130119
      48  130122  130131      48  130134  130143      48  130146  130155      48
  130158  130167      48  130170  130179      48  130182  130191      48  130194
  130203      48  130206  130215      48  130218  130227      48  130230  130239
      48  130242  130251      48  130254  130263      48  130266  130275      48
  130278  130287      48  130290  130299      48  130302  130311      48  130314
  130323      48  130326  130335      48  130338  130347      48  130350  130359
      48  130362  130371      48  130374  130383      48  130386  130395      48
  130398  130407      48  130410  130419      48  130422  130431      48  130434
  130443      48  130446  130455      48  130458  130467      48  130470  130479
      48  130482  130491      48  130494  130503      48  130506  130515      48
  130518  130527      48  130530  130539      48  130542  130551      48  130554
  130563      48  130566  130575      48  130578  130587      48  130590  130599
      48  130602  130611      48  130614  130623      48  130626  130635      48
  130638  130647      48  130650  130659      48  130662  130671      48  130674
  130683      48  130686  130695      48  130698  130707      48  130710  130719
      48  130722  130731      48  130734  130743      48  130746  130755      48
  130758  130767      48  130770  130779      48  130782  130791      48  130794
  130803      48  130806  130815      48  130818  130827      48  130830  130839
      48  130842  130851      48  130854  130863      48  130866  130875      48
  130878  130887      48  130890  130899      48  130902  130911      48  130914
  130923      48  130926  130935      48  130938  130947      48  130950  130959
      48  130962  130971      48  130974  130983      48  130986  130995      48
  130998  131007      48  131010  131019      48  131022  131031      48  131034
  131043      48  131046  131055      48  131058  131067      48  131070  131079
      48  131082  131091      48  131094  131103      48  131106  131115      48
  131118  131127      48  131130  131139      48  131142  131151      48  131154
  131163      48  131166  131175      48  131178  131187      48  131190  131199
      48  131202  131211      48  131214  131223      48  131226  131235      48
  131238  131247      48  131250  131259      48  131262  131271      48  131274
  131283      48  131286  131295      48  131298  131307      48  131310  131319
      48  131322  131331      48  131334  131343      48  131346  131355      48
  131358  131367      48  131370  131379      48  131382  131391      48  131394
  131403      48  131406  131415      48  131418  131427      48  131430  131439
      48  131442  131451      48  131454  131463      48  131466  131475      48
  131478  131487      48  131490  131499      48  131502  131511      48  131514
  131523      48  131526  131535      48  131538  131547      48  131550  131559
      48  131562  131571      48  131574  131583      48  131586  131595      48
  131598  131607      48  131610  131619      48  131622  131631      48  131634
  131643      48  131646  131655      48  131658  131667      48  131670  131679
      48  131682  131691      48  131694  131703      48  131706  131715      48
  131718  131727      48  131730  131739      48  131742  131751      48  131754
  131763      48  131766  131775      48  131778  131787      48  131790  131799
      48  131802  131811      48  131814  131823      48  131826  131835      48
  131838  131847      48  131850  131859      48  131862  131871      48  131874
  131883      48  131886  131895      48  131898  131907      48  131910  131919
      48  131922  131931      48  131934  131943      48  131946  131955      48
  131958  131967      48  131970  131979      48  131982  131991      48  131994
  132003      48  132006  132015      48  132018  132027      48  132030  132039
      48  132042  132051      48  132054  132063      48  132066  132075      48
  132078  132087      48  132090  132099      48  132102  132111      48  132114
  132123      48  132126  132135      48  132138  132147      48  132150  132159
      48  132162  132171      48  132174  132183      48  132186  132195      48
  132198  132207      48  132210  132219      48  132222  132231      48  132234
  132243      48  132246  132255      48  132258  132267      48  132270  132279
      48  132282  132291      48  132294  132303      48  132306  132315      48
  132318  132327      48  132330  132339      48  132342  132351      48  132354
  132363      48  132366  132375      48  132378  132387      48  132390  132399
      48  132402  132411      48  132414  132423      48  132426  132435      48
  132438  132447      48  132450  132459      48  132462  132471      48  132474
  132483      48  132486  132495      48  132498  132507      48  132510  132519
      48  132522  132531      48  132534  132543      48  132546  132555      48
  132558  132567      48  132570  132579      48  132582  132591      48  132594
  132603      48  132606  132615      48  132618  132627      48  132630  132639
      48  132642  132651      48  132654  132663      48  132666  132675      48
  132678  132687      48  132690  132699      48  132702  132711      48  132714
  132723      48  132726  132735      48  132738  132747      48  132750  132759
      48  132762  132771      48  132774  132783      48  132786  132795      48
  132798  132807      48  132810  132819      48  132822  132831      48  132834
  132843      48  132846  132855      48  132858  132867      48  132870  132879
      48  132882  132891      48  132894  132903      48  132906  132915      48
  132918  132927      48  132930  132939      48  132942  132951      48  132954
  132963      48  132966  132975      48  132978  132987      48  132990  132999
      48  133002  133011      48  133014  133023      48  133026  133035      48
  133038  133047      48  133050  133059      48  133062  133071      48  133074
  133083      48  133086  133095      48  133098  133107      48  133110  133119
      48  133122  133131      48  133134  133143      48  133146  133155      48
  133158  133167      48  133170  133179      48  133182  133191      48  133194
  133203      48  133206  133215      48  133218  133227      48  133230  133239
      48  133242  133251      48  133254  133263      48  133266  133275      48
  133278  133287      48  133290  133299      48  133302  133311      48  133314
  133323      48  133326  133335      48  133338  133347      48  133350  133359
      48  133362  133371      48  133374  133383      48  133386  133395      48
  133398  133407      48  133410  133419      48  133422  133431      48  133434
  133443      48  133446  133455      48  133458  133467      48  133470  133479
      48  133482  133491      48  133494  133503      48  133506  133515      48
  133518  133527      48  133530  133539      48  133542  133551      48  133554
  133563      48  133566  133575      48  133578  133587      48  133590  133599
      48  133602  133611      48  133614  133623      48  133626  133635      48
  133638  133647      48  133650  133659      48  133662  133671      48  133674
  133683      48  133686  133695      48  133698  133707      48  133710  133719
      48  133722  133731      48  133734  133743      48  133746  133755      48
  133758  133767      48  133770  133779      48  133782  133791      48  133794
  133803      48  133806  133815      48  133818  133827      48  133830  133839
      48  133842  133851      48  133854  133863      48  133866  133875      48
  133878  133887      48  133890  133899      48  133902  133911      48  133914
  133923      48  133926  133935      48  133938  133947      48  133950  133959
      48  133962  133971      48  133974  133983      48  133986  133995      48
  133998  134007      48  134010  134019      48  134022  134031      48  134034
  134043      48  134046  134055      48  134058  134067      48  134070  134079
      48  134082  134091      48  134094  134103      48  134106  134115      48
  134118  134127      48  134130  134139      48  134142  134151      48  134154
  134163      48  134166  134175      48  134178  134187      48  134190  134199
      48  134202  134211      48  134214  134223      48  134226  134235      48
  134238  134247      48  134250  134259      48  134262  134271      48  134274
  134283      48  134286  134295      48  134298  134307      48  134310  134319
      48  134322  134331      48  134334  134343      48  134346  134355      48
  134358  134367      48  134370  134379      48  134382  134391      48  134394
  134403      48  134406  134415      48  134418  134427      48  134430  134439
      48  134442  134451      48  134454  134463      48  134466  134475      48
  134478  134487      48  134490  134499      48  134502  134511      48  134514
  134523      48  134526  134535      48  134538  134547      48  134550  134559
      48  134562  134571      48  134574  134583      48  134586  134595      48
  134598  134607      48  134610  134619      48  134622  134631      48  134634
  134643      48  134646  134655      48  134658  134667      48  134670  134679
      48  134682  134691      48  134694  134703      48  134706  134715      48
  134718  134727      48  134730  134739      48  134742  134751      48  134754
  134763      48  134766  134775      48  134778  134787      48  134790  134799
      48  134802  134811      48  134814  134823      48  134826  134835      48
  134838  134847      48  134850  134859      48  134862  134871      48  134874
  134883      48  134886  134895      48  134898  134907      48  134910  134919
      48  134922  134931      48  134934  134943      48  134946  134955      48
  134958  134967      48  134970  134979      48  134982  134991      48  134994
  135003      48  135006  135015      48  135018  135027      48  135030  135039
      48  135042  135051      48  135054  135063      48  135066  135075      48
  135078  135087      48  135090  135099      48  135102  135111      48  135114
  135123      48  135126  135135      48  135138  135147      48  135150  135159
      48  135162  135171      48  135174  135183      48  135186  135195      48
  135198  135207      48  135210  135219      48  135222  135231      48  135234
  135243      48  135246  135255      48  135258  135267      48  135270  135279
      48  135282  135291      48  135294  135303      48  135306  135315      48
  135318  135327      48  135330  135339      48  135342  135351      48  135354
  135363      48  135366  135375      48  135378  135387      48  135390  135399
      48  135402  135411      48  135414  135423      48  135426  135435      48
  135438  135447      48  135450  135459      48  135462  135471      48  135474
  135483      48  135486  135495      48  135498  135507      48  135510  135519
      48  135522  135531      48  135534  135543      48  135546  135555      48
  135558  135567      48  135570  135579      48  135582  135591      48  135594
  135603      48  135606  135615      48  135618  135627      48  135630  135639
      48  135642  135651      48  135654  135663      48  135666  135675      48
  135678  135687      48  135690  135699      48  135702  135711      48  135714
  135723      48  135726  135735      48  135738  135747      48  135750  135759
      48  135762  135771      48  135774  135783      48  135786  135795      48
  135798  135807      48  135810  135819      48  135822  135831      48  135834
  135843      48  135846  135855      48  135858  135867      48  135870  135879
      48  135882  135891      48  135894  135903      48  135906  135915      48
  135918  135927      48  135930  135939      48  135942  135951      48  135954
  135963      48  135966  135975      48  135978  135987      48  135990  135999
      48  136002  136011      48  136014  136023      48  136026  136035      48
  136038  136047      48  136050  136059      48  136062  136071      48  136074
  136083      48  136086  136095      48  136098  136107      48  136110  136119
      48  136122  136131      48  136134  136143      48  136146  136155      48
  136158  136167      48  136170  136179      48  136182  136191      48  136194
  136203      48  136206  136215      48  136218  136227      48  136230  136239
      48  136242  136251      48  136254  136263      48  136266  136275      48
  136278  136287      48  136290  136299      48  136302  136311      48  136314
  136323      48  136326  136335      48  136338  136347      48  136350  136359
      48  136362  136371      48  136374  136383      48  136386  136395      48
  136398  136407      48  136410  136419      48  136422  136431      48  136434
  136443      48  136446  136455      48  136458  136467      48  136470  136479
      48  136482  136491      48  136494  136503      48  136506  136515      48
  136518  136527      48  136530  136539      48  136542  136551      48  136554
  136563      48  136566  136575      48  136578  136587      48  136590  136599
      48  136602  136611      48  136614  136623      48  136626  136635      48
  136638  136647      48  136650  136659      48  136662  136671      48  136674
  136683      48  136686  136695      48  136698  136707      48  136710  136719
      48  136722  136731      48  136734  136743      48  136746  136755      48
  136758  136767      48  136770  136779      48  136782  136791      48  136794
  136803      48  136806  136815      48  136818  136827      48  136830  136839
      48  136842  136851      48  136854  136863      48  136866  136875      48
  136878  136887      48  136890  136899      48  136902  136911      48  136914
  136923      48  136926  136935      48  136938  136947      48  136950  136959
      48  136962  136971      48  136974  136983      48  136986  136995      48
  136998  137007      48  137010  137019      48  137022  137031      48  137034
  137043      48  137046  137055      48  137058  137067      48  137070  137079
      48  137082  137091      48  137094  137103      48  137106  137115      48
  137118  137127      48  137130  137139      48  137142  137151      48  137154
  137163      48  137166  137175      48  137178  137187      48  137190  137199
      48  137202  137211      48  137214  137223      48  137226  137235      48
  137238  137247      48  137250  137259      48  137262  137271      48  137274
  137283      48  137286  137295      48  137298  137307      48  137310  137319
      48  137322  137331      48  137334  137343      48  137346  137355      48
  137358  137367      48  137370  137379      48  137382  137391      48  137394
  137403      48  137406  137415      48  137418  137427      48  137430  137439
      48  137442  137451      48  137454  137463      48  137466  137475      48
  137478  137487      48  137490  137499      48  137502  137511      48  137514
  137523      48  137526  137535      48  137538  137547      48  137550  137559
      48  137562  137571      48  137574  137583      48  137586  137595      48
  137598  137607      48  137610  137619      48  137622  137631      48  137634
  137643      48  137646  137655      48  137658  137667      48  137670  137679
      48  137682  137691      48  137694  137703      48  137706  137715      48
  137718  137727      48  137730  137739      48  137742  137751      48  137754
  137763      48  137766  137775      48  137778  137787      48  137790  137799
      48  137802  137811      48  137814  137823      48  137826  137835      48
  137838  137847      48  137850  137859      48  137862  137871      48  137874
  137883      48  137886  137895      48  137898  137907      48  137910  137919
      48  137922  137931      48  137934  137943      48  137946  137955      48
  137958  137967      48  137970  137979      48  137982  137991      48  137994
  138003      48  138006  138015      48  138018  138027      48  138030  138039
      48  138042  138051      48  138054  138063      48  138066  138075      48
  138078  138087      48  138090  138099      48  138102  138111      48  138114
  138123      48  138126  138135      48  138138  138147      48  138150  138159
      48  138162  138171      48  138174  138183      48  138186  138195      48
  138198  138207      48  138210  138219      48  138222  138231      48  138234
  138243      48  138246  138255      48  138258  138267      48  138270  138279
      48  138282  138291      48  138294  138303      48  138306  138315      48
  138318  138327      48  138330  138339      48  138342  138351      48  138354
  138363      48  138366  138375      48  138378  138387      48  138390  138399
      48  138402  138411      48  138414  138423      48  138426  138435      48
  138438  138447      48  138450  138459      48  138462  138471      48  138474
  138483      48  138486  138495      48  138498  138507      48  138510  138519
      48  138522  138531      48  138534  138543      48  138546  138555      48
  138558  138567      48  138570  138579      48  138582  138591      48  138594
  138603      48  138606  138615      48  138618  138627      48  138630  138639
      48  138642  138651      48  138654  138663      48  138666  138675      48
  138678  138687      48  138690  138699      48  138702  138711      48  138714
  138723      48  138726  138735      48  138738  138747      48  138750  138759
      48  138762  138771      48  138774  138783      48  138786  138795      48
  138798  138807      48  138810  138819      48  138822  138831      48  138834
  138843      48  138846  138855      48  138858  138867      48  138870  138879
      48  138882  138891      48  138894  138903      48  138906  138915      48
  138918  138927      48  138930  138939      48  138942  138951      48  138954
  138963      48  138966  138975      48  138978  138987      48  138990  138999
      48  139002  139011      48  139014  139023      48  139026  139035      48
  139038  139047      48  139050  139059      48  139062  139071      48  139074
  139083      48  139086  139095      48  139098  139107      48  139110  139119
      48  139122  139131      48  139134  139143      48  139146  139155      48
  139158  139167      48  139170  139179      48  139182  139191      48  139194
  139203      48  139206  139215      48  139218  139227      48  139230  139239
      48  139242  139251      48  139254  139263      48  139266  139275      48
  139278  139287      48  139290  139299      48  139302  139311      48  139314
  139323      48  139326  139335      48  139338  139347      48  139350  139359
      48  139362  139371      48  139374  139383      48  139386  139395      48
  139398  139407      48  139410  139419      48  139422  139431      48  139434
  139443      48  139446  139455      48  139458  139467      48  139470  139479
      48  139482  139491      48  139494  139503      48  139506  139515      48
  139518  139527      48  139530  139539      48  139542  139551      48  139554
  139563      48  139566  139575      48  139578  139587      48  139590  139599
      48  139602  139611      48  139614  139623      48  139626  139635      48
  139638  139647      48  139650  139659      48  139662  139671      48  139674
  139683      48  139686  139695      48  139698  139707      48  139710  139719
      48  139722  139731      48  139734  139743      48  139746  139755      48
  139758  139767      48  139770  139779      48  139782  139791      48  139794
  139803      48  139806  139815      48  139818  139827      48  139830  139839
      48  139842  139851      48  139854  139863      48  139866  139875      48
  139878  139887      48  139890  139899      48  139902  139911      48  139914
  139923      48  139926  139935      48  139938  139947      48  139950  139959
      48  139962  139971      48  139974  139983      48  139986  139995      48
  139998  140007      48  140010  140019      48  140022  140031      48  140034
  140043      48  140046  140055      48  140058  140067      48  140070  140079
      48  140082  140091      48  140094  140103      48  140106  140115      48
  140118  140127      48  140130  140139      48  140142  140151      48  140154
  140163      48  140166  140175      48  140178  140187      48  140190  140199
      48  140202  140211      48  140214  140223      48  140226  140235      48
  140238  140247      48  140250  140259      48  140262  140271      48  140274
  140283      48  140286  140295      48  140298  140307      48  140310  140319
      48  140322  140331      48  140334  140343      48  140346  140355      48
  140358  140367      48  140370  140379      48  140382  140391      48  140394
  140403      48  140406  140415      48  140418  140427      48  140430  140439
      48  140442  140451      48  140454  140463      48  140466  140475      48
  140478  140487      48  140490  140499      48  140502  140511      48  140514
  140523      48  140526  140535      48  140538  140547      48  140550  140559
      48  140562  140571      48  140574  140583      48  140586  140595      48
  140598  140607      48  140610  140619      48  140622  140631      48  140634
  140643      48  140646  140655      48  140658  140667      48  140670  140679
      48  140682  140691      48  140694  140703      48  140706  140715      48
  140718  140727      48  140730  140739      48  140742  140751      48  140754
  140763      48  140766  140775      48  140778  140787      48  140790  140799
      48  140802  140811      48  140814  140823      48  140826  140835      48
  140838  140847      48  140850  140859      48  140862  140871      48  140874
  140883      48  140886  140895      48  140898  140907      48  140910  140919
      48  140922  140931      48  140934  140943      48  140946  140955      48
  140958  140967      48  140970  140979      48  140982  140991      48  140994
  141003      48  141006  141015      48  141018  141027      48  141030  141039
      48  141042  141051      48  141054  141063      48  141066  141075      48
  141078  141087      48  141090  141099      48  141102  141111      48  141114
  141123      48  141126  141135      48  141138  141147      48  141150  141159
      48  141162  141171      48  141174  141183      48  141186  141195      48
  141198  141207      48  141210  141219      48  141222  141231      48  141234
  141243      48  141246  141255      48  141258  141267      48  141270  141279
      48  141282  141291      48  141294  141303      48  141306  141315      48
  141318  141327      48  141330  141339      48  141342  141351      48  141354
  141363      48  141366  141375      48  141378  141387      48  141390  141399
      48  141402  141411      48  141414  141423      48  141426  141435      48
  141438  141447      48  141450  141459      48  141462  141471      48  141474
  141483      48  141486  141495      48  141498  141507      48  141510  141519
      48  141522  141531      48  141534  141543      48  141546  141555      48
  141558  141567      48  141570  141579      48  141582  141591      48  141594
  141603      48  141606  141615      48  141618  141627      48  141630  141639
      48  141642  141651      48  141654  141663      48  141666  141675      48
  141678  141687      48  141690  141699      48  141702  141711      48  141714
  141723      48  141726  141735      48  141738  141747      48  141750  141759
      48  141762  141771      48  141774  141783      48  141786  141795      48
  141798  141807      48  141810  141819      48  141822  141831      48  141834
  141843      48  141846  141855      48  141858  141867      48  141870  141879
      48  141882  141891      48  141894  141903      48  141906  141915      48
  141918  141927      48  141930  141939      48  141942  141951      48  141954
  141963      48  141966  141975      48  141978  141987      48  141990  141999
      48  142002  142011      48  142014  142023      48  142026  142035      48
  142038  142047      48  142050  142059      48  142062  142071      48  142074
  142083      48  142086  142095      48  142098  142107      48  142110  142119
      48  142122  142131      48  142134  142143      48  142146  142155      48
  142158  142167      48  142170  142179      48  142182  142191      48  142194
  142203      48  142206  142215      48  142218  142227      48  142230  142239
      48  142242  142251      48  142254  142263      48  142266  142275      48
  142278  142287      48  142290  142299      48  142302  142311      48  142314
  142323      48  142326  142335      48  142338  142347      48  142350  142359
      48  142362  142371      48  142374  142383      48  142386  142395      48
  142398  142407      48  142410  142419      48  142422  142431      48  142434
  142443      48  142446  142455      48  142458  142467      48  142470  142479
      48  142482  142491      48  142494  142503      48  142506  142515      48
  142518  142527      48  142530  142539      48  142542  142551      48  142554
  142563      48  142566  142575      48  142578  142587      48  142590  142599
      48  142602  142611      48  142614  142623      48  142626  142635      48
  142638  142647      48  142650  142659      48  142662  142671      48  142674
  142683      48  142686  142695      48  142698  142707      48  142710  142719
      48  142722  142731      48  142734  142743      48  142746  142755      48
  142758  142767      48  142770  142779      48  142782  142791      48  142794
  142803      48  142806  142815      48  142818  142827      48  142830  142839
      48  142842  142851      48  142854  142863      48  142866  142875      48
  142878  142887      48  142890  142899      48  142902  142911      48  142914
  142923      48  142926  142935      48  142938  142947      48  142950  142959
      48  142962  142971      48  142974  142983      48  142986  142995      48
  142998  143007      48  143010  143019      48  143022  143031      48  143034
  143043      48  143046  143055      48  143058  143067      48  143070  143079
      48  143082  143091      48  143094  143103      48  143106  143115      48
  143118  143127      48  143130  143139      48  143142  143151      48  143154
  143163      48  143166  143175      48  143178  143187      48  143190  143199
      48  143202  143211      48  143214  143223      48  143226  143235      48
  143238  143247      48  143250  143259      48  143262  143271      48  143274
  143283      48  143286  143295      48  143298  143307      48  143310  143319
      48  143322  143331      48  143334  143343      48  143346  143355      48
  143358  143367      48  143370  143379      48  143382  143391      48  143394
  143403      48  143406  143415      48  143418  143427      48  143430  143439
      48  143442  143451      48  143454  143463      48  143466  143475      48
  143478  143487      48  143490  143499      48  143502  143511      48  143514
  143523      48  143526  143535      48  143538  143547      48  143550  143559
      48  143562  143571      48  143574  143583      48  143586  143595      48
  143598  143607      48  143610  143619      48  143622  143631      48  143634
  143643      48  143646  143655      48  143658  143667      48  143670  143679
      48  143682  143691      48  143694  143703      48  143706  143715      48
  143718  143727      48  143730  143739      48  143742  143751      48  143754
  143763      48  143766  143775      48  143778  143787      48  143790  143799
      48  143802  143811      48  143814  143823      48  143826  143835      48
  143838  143847      48  143850  143859      48  143862  143871      48  143874
  143883      48  143886  143895      48  143898  143907      48  143910  143919
      48  143922  143931      48  143934  143943      48  143946  143955      48
  143958  143967      48  143970  143979      48  143982  143991      48  143994
  144003      48  144006  144015      48  144018  144027      48  144030  144039
      48  144042  144051      48  144054  144063      48  144066  144075      48
  144078  144087      48  144090  144099      48  144102  144111      48  144114
  144123      48  144126  144135      48  144138  144147      48  144150  144159
      48  144162  144171      48  144174  144183      48  144186  144195      48
  144198  144207      48  144210  144219      48  144222  144231      48  144234
  144243      48  144246  144255      48  144258  144267      48  144270  144279
      48  144282  144291      48  144294  144303      48  144306  144315      48
  144318  144327      48  144330  144339      48  144342  144351      48  144354
  144363      48  144366  144375      48  144378  144387      48  144390  144399
      48  144402  144411      48  144414  144423      48  144426  144435      48
  144438  144447      48  144450  144459      48  144462  144471      48  144474
  144483      48  144486  144495      48  144498  144507      48  144510  144519
      48  144522  144531      48  144534  144543      48  144546  144555      48
  144558  144567      48  144570  144579      48  144582  144591      48  144594
  144603      48  144606  144615      48  144618  144627      48  144630  144639
      48  144642  144651      48  144654  144663      48  144666  144675      48
  144678  144687      48  144690  144699      48  144702  144711      48  144714
  144723      48  144726  144735      48  144738  144747      48  144750  144759
      48  144762  144771      48  144774  144783      48  144786  144795      48
  144798  144807      48  144810  144819      48  144822  144831      48  144834
  144843      48  144846  144855      48  144858  144867      48  144870  144879
      48  144882  144891      48  144894  144903      48  144906  144915      48
  144918  144927      48  144930  144939      48  144942  144951      48  144954
  144963      48  144966  144975      48  144978  144987      48  144990  144999
      48  145002  145011      48  145014  145023      48  145026  145035      48
  145038  145047      48  145050  145059      48  145062  145071      48  145074
  145083      48  145086  145095      48  145098  145107      48  145110  145119
      48  145122  145131      48  145134  145143      48  145146  145155      48
  145158  145167      48  145170  145179      48  145182  145191      48  145194
  145203      48  145206  145215      48  145218  145227      48  145230  145239
      48  145242  145251      48  145254  145263      48  145266  145275      48
  145278  145287      48  145290  145299      48  145302  145311      48  145314
  145323      48  145326  145335      48  145338  145347      48  145350  145359
      48  145362  145371      48  145374  145383      48  145386  145395      48
  145398  145407      48  145410  145419      48  145422  145431      48  145434
  145443      48  145446  145455      48  145458  145467      48  145470  145479
      48  145482  145491      48  145494  145503      48  145506  145515      48
  145518  145527      48  145530  145539      48  145542  145551      48  145554
  145563      48  145566  145575      48  145578  145587      48  145590  145599
      48  145602  145611      48  145614  145623      48  145626  145635      48
  145638  145647      48  145650  145659      48  145662  145671      48  145674
  145683      48  145686  145695      48  145698  145707      48  145710  145719
      48  145722  145731      48  145734  145743      48  145746  145755      48
  145758  145767      48  145770  145779      48  145782  145791      48  145794
  145803      48  145806  145815      48  145818  145827      48  145830  145839
      48  145842  145851      48  145854  145863      48  145866  145875      48
  145878  145887      48  145890  145899      48  145902  145911      48  145914
  145923      48  145926  145935      48  145938  145947      48  145950  145959
      48  145962  145971      48  145974  145983      48  145986  145995      48
  145998  146007      48  146010  146019      48  146022  146031      48  146034
  146043      48  146046  146055      48  146058  146067      48  146070  146079
      48  146082  146091      48  146094  146103      48  146106  146115      48
  146118  146127      48  146130  146139      48  146142  146151      48  146154
  146163      48  146166  146175      48  146178  146187      48  146190  146199
      48  146202  146211      48  146214  146223      48  146226  146235      48
  146238  146247      48  146250  146259      48  146262  146271      48  146274
  146283      48  146286  146295      48  146298  146307      48  146310  146319
      48  146322  146331      48  146334  146343      48  146346  146355      48
  146358  146367      48  146370  146379      48  146382  146391      48  146394
  146403      48  146406  146415      48  146418  146427      48  146430  146439
      48  146442  146451      48  146454  146463      48  146466  146475      48
  146478  146487      48  146490  146499      48  146502  146511      48  146514
  146523      48  146526  146535      48  146538  146547      48  146550  146559
      48  146562  146571      48  146574  146583      48  146586  146595      48
  146598  146607      48  146610  146619      48  146622  146631      48  146634
  146643      48  146646  146655      48  146658  146667      48  146670  146679
      48  146682  146691      48  146694  146703      48  146706  146715      48
  146718  146727      48  146730  146739      48  146742  146751      48  146754
  146763      48  146766  146775      48  146778  146787      48  146790  146799
      48  146802  146811      48  146814  146823      48  146826  146835      48
  146838  146847      48  146850  146859      48  146862  146871      48  146874
  146883      48  146886  146895      48  146898  146907      48  146910  146919
      48  146922  146931      48  146934  146943      48  146946  146955      48
  146958  146967      48  146970  146979      48  146982  146991      48  146994
  147003      48  147006  147015      48  147018  147027      48  147030  147039
      48  147042  147051      48  147054  147063      48  147066  147075      48
  147078  147087      48  147090  147099      48  147102  147111      48  147114
  147123      48  147126  147135      48  147138  147147      48  147150  147159
      48  147162  147171      48  147174  147183      48  147186  147195      48
  147198  147207      48  147210  147219      48  147222  147231      48  147234
  147243      48  147246  147255      48  147258  147267      48  147270  147279
      48  147282  147291      48  147294  147303      48  147306  147315      48
  147318  147327      48  147330  147339      48  147342  147351      48  147354
  147363      48  147366  147375      48  147378  147387      48  147390  147399
      48  147402  147411      48  147414  147423      48  147426  147435      48
  147438  147447      48  147450  147459      48  147462  147471      48  147474
  147483      48  147486  147495      48  147498  147507      48  147510  147519
      48  147522  147531      48  147534  147543      48  147546  147555      48
  147558  147567      48  147570  147579      48  147582  147591      48  147594
  147603      48  147606  147615      48  147618  147627      48  147630  147639
      48  147642  147651      48  147654  147663      48  147666  147675      48
  147678  147687      48  147690  147699      48  147702  147711      48  147714
  147723      48  147726  147735      48  147738  147747      48  147750  147759
      48  147762  147771      48  147774  147783      48  147786  147795      48
  147798  147807      48  147810  147819      48  147822  147831      48  147834
  147843      48  147846  147855      48  147858  147867      48  147870  147879
      48  147882  147891      48  147894  147903      48  147906  147915      48
  147918  147927      48  147930  147939      48  147942  147951      48  147954
  147963      48  147966  147975      48  147978  147987      48  147990  147999
      48  148002  148011      48  148014  148023      48  148026  148035      48
  148038  148047      48  148050  148059      48  148062  148071      48  148074
  148083      48  148086  148095      48  148098  148107      48  148110  148119
      48  148122  148131      48  148134  148143      48  148146  148155      48
  148158  148167      48  148170  148179      48  148182  148191      48  148194
  148203      48  148206  148215      48  148218  148227      48  148230  148239
      48  148242  148251      48  148254  148263      48  148266  148275      48
  148278  148287      48  148290  148299      48  148302  148311      48  148314
  148323      48  148326  148335      48  148338  148347      48  148350  148359
      48  148362  148371      48  148374  148383      48  148386  148395      48
  148398  148407      48  148410  148419      48  148422  148431      48  148434
  148443      48  148446  148455      48  148458  148467      48  148470  148479
      48  148482  148491      48  148494  148503      48  148506  148515      48
  148518  148527      48  148530  148539      48  148542  148551      48  148554
  148563      48  148566  148575      48  148578  148587      48  148590  148599
      48  148602  148611      48  148614  148623      48  148626  148635      48
  148638  148647      48  148650  148659      48  148662  148671      48  148674
  148683      48  148686  148695      48  148698  148707      48  148710  148719
      48  148722  148731      48  148734  148743      48  148746  148755      48
  148758  148767      48  148770  148779      48  148782  148791      48  148794
  148803      48  148806  148815      48  148818  148827      48  148830  148839
      48  148842  148851      48  148854  148863      48  148866  148875      48
  148878  148887      48  148890  148899      48  148902  148911      48  148914
  148923      48  148926  148935      48  148938  148947      48  148950  148959
      48  148962  148971      48  148974  148983      48  148986  148995      48
  148998  149007      48  149010  149019      48  149022  149031      48  149034
  149043      48  149046  149055      48  149058  149067      48  149070  149079
      48  149082  149091      48  149094  149103      48  149106  149115      48
  149118  149127      48  149130  149139      48  149142  149151      48  149154
  149163      48  149166  149175      48  149178  149187      48  149190  149199
      48  149202  149211      48  149214  149223      48  149226  149235      48
  149238  149247      48  149250  149259      48  149262  149271      48  149274
  149283      48  149286  149295      48  149298  149307      48  149310  149319
      48  149322  149331      48  149334  149343      48  149346  149355      48
  149358  149367      48  149370  149379      48  149382  149391      48  149394
  149403      48  149406  149415      48  149418  149427      48  149430  149439
      48  149442  149451      48  149454  149463      48  149466  149475      48
  149478  149487      48  149490  149499      48  149502  149511      48  149514
  149523      48  149526  149535      48  149538  149547      48  149550  149559
      48  149562  149571      48  149574  149583      48  149586  149595      48
  149598  149607      48  149610  149619      48  149622  149631      48  149634
  149643      48  149646  149655      48  149658  149667      48  149670  149679
      48  149682  149691      48  149694  149703      48  149706  149715      48
  149718  149727      48  149730  149739      48  149742  149751      48  149754
  149763      48  149766  149775      48  149778  149787      48  149790  149799
      48  149802  149811      48  149814  149823      48  149826  149835      48
  149838  149847      48  149850  149859      48  149862  149871      48  149874
  149883      48  149886  149895      48  149898  149907      48  149910  149919
      48  149922  149931      48  149934  149943      48  149946  149955      48
  149958  149967      48  149970  149979      48  149982  149991      48  149994
  150003      48  150006  150015      48  150018  150027      48  150030  150039
      48  150042  150051      48  150054  150063      48  150066  150075      48
  150078  150087      48  150090  150099      48  150102  150111      48  150114
  150123      48  150126  150135      48  150138  150147      48  150150  150159
      48  150162  150171      48  150174  150183      48  150186  150195      48
  150198  150207      48  150210  150219      48  150222  150231      48  150234
  150243      48  150246  150255      48  150258  150267      48  150270  150279
      48  150282  150291      48  150294  150303      48  150306  150315      48
  150318  150327      48  150330  150339      48  150342  150351      48  150354
  150363      48  150366  150375      48  150378  150387      48  150390  150399
      48  150402  150411      48  150414  150423      48  150426  150435      48
  150438  150447      48  150450  150459      48  150462  150471      48  150474
  150483      48  150486  150495      48  150498  150507      48  150510  150519
      48  150522  150531      48  150534  150543      48  150546  150555      48
  150558  150567      48  150570  150579      48  150582  150591      48  150594
  150603      48  150606  150615      48  150618  150627      48  150630  150639
      48  150642  150651      48  150654  150663      48  150666  150675      48
  150678  150687      48  150690  150699      48  150702  150711      48  150714
  150723      48  150726  150735      48  150738  150747      48  150750  150759
      48  150762  150771      48  150774  150783      48  150786  150795      48
  150798  150807      48  150810  150819      48  150822  150831      48  150834
  150843      48  150846  150855      48  150858  150867      48  150870  150879
      48  150882  150891      48  150894  150903      48  150906  150915      48
  150918  150927      48  150930  150939      48  150942  150951      48  150954
  150963      48  150966  150975      48  150978  150987      48  150990  150999
      48  151002  151011      48  151014  151023      48  151026  151035      48
  151038  151047      48  151050  151059      48  151062  151071      48  151074
  151083      48  151086  151095      48  151098  151107      48  151110  151119
      48  151122  151131      48  151134  151143      48  151146  151155      48
  151158  151167      48  151170  151179      48  151182  151191      48  151194
  151203      48  151206  151215      48  151218  151227      48  151230  151239
      48  151242  151251      48  151254  151263      48  151266  151275      48
  151278  151287      48  151290  151299      48  151302  151311      48  151314
  151323      48  151326  151335      48  151338  151347      48  151350  151359
      48  151362  151371      48  151374  151383      48  151386  151395      48
  151398  151407      48  151410  151419      48  151422  151431      48  151434
  151443      48  151446  151455      48  151458  151467      48  151470  151479
      48  151482  151491      48  151494  151503      48  151506  151515      48
  151518  151527      48  151530  151539      48  151542  151551      48  151554
  151563      48  151566  151575      48  151578  151587      48  151590  151599
      48  151602  151611      48  151614  151623      48  151626  151635      48
  151638  151647      48  151650  151659      48  151662  151671      48  151674
  151683      48  151686  151695      48  151698  151707      48  151710  151719
      48  151722  151731      48  151734  151743      48  151746  151755      48
  151758  151767      48  151770  151779      48  151782  151791      48  151794
  151803      48  151806  151815      48  151818  151827      48  151830  151839
      48  151842  151851      48  151854  151863      48  151866  151875      48
  151878  151887      48  151890  151899      48  151902  151911      48  151914
  151923      48  151926  151935      48  151938  151947      48  151950  151959
      48  151962  151971      48  151974  151983      48  151986  151995      48
  151998  152007      48  152010  152019      48  152022  152031      48  152034
  152043      48  152046  152055      48  152058  152067      48  152070  152079
      48  152082  152091      48  152094  152103      48  152106  152115      48
  152118  152127      48  152130  152139      48  152142  152151      48  152154
  152163      48  152166  152175      48  152178  152187      48  152190  152199
      48  152202  152211      48  152214  152223      48  152226  152235      48
  152238  152247      48  152250  152259      48  152262  152271      48  152274
  152283      48  152286  152295      48  152298  152307      48  152310  152319
      48  152322  152331      48  152334  152343      48  152346  152355      48
  152358  152367      48  152370  152379      48  152382  152391      48  152394
  152403      48  152406  152415      48  152418  152427      48  152430  152439
      48  152442  152451      48  152454  152463      48  152466  152475      48
  152478  152487      48  152490  152499      48  152502  152511      48  152514
  152523      48  152526  152535      48  152538  152547      48  152550  152559
      48  152562  152571      48  152574  152583      48  152586  152595      48
  152598  152607      48  152610  152619      48  152622  152631      48  152634
  152643      48  152646  152655      48  152658  152667      48  152670  152679
      48  152682  152691      48  152694  152703      48  152706  152715      48
  152718  152727      48  152730  152739      48  152742  152751      48  152754
  152763      48  152766  152775      48  152778  152787      48  152790  152799
      48  152802  152811      48  152814  152823      48  152826  152835      48
  152838  152847      48  152850  152859      48  152862  152871      48  152874
  152883      48  152886  152895      48  152898  152907      48  152910  152919
      48  152922  152931      48  152934  152943      48  152946  152955      48
  152958  152967      48  152970  152979      48  152982  152991      48  152994
  153003      48  153006  153015      48  153018  153027      48  153030  153039
      48  153042  153051      48  153054  153063      48  153066  153075      48
  153078  153087      48  153090  153099      48  153102  153111      48  153114
  153123      48  153126  153135      48  153138  153147      48  153150  153159
      48  153162  153171      48  153174  153183      48  153186  153195      48
  153198  153207      48  153210  153219      48  153222  153231      48  153234
  153243      48  153246  153255      48  153258  153267      48  153270  153279
      48  153282  153291      48  153294  153303      48  153306  153315      48
  153318  153327      48  153330  153339      48  153342  153351      48  153354
  153363      48  153366  153375      48  153378  153387      48  153390  153399
      48  153402  153411      48  153414  153423      48  153426  153435      48
  153438  153447      48  153450  153459      48  153462  153471      48  153474
  153483      48  153486  153495      48  153498  153507      48  153510  153519
      48  153522  153531      48  153534  153543      48  153546  153555      48
  153558  153567      48  153570  153579      48  153582  153591      48  153594
  153603      48  153606  153615      48  153618  153627      48  153630  153639
      48  153642  153651      48  153654  153663      48  153666  153675      48
  153678  153687      48  153690  153699      48  153702  153711      48  153714
  153723      48  153726  153735      48  153738  153747      48  153750  153759
      48  153762  153771      48  153774  153783      48  153786  153795      48
  153798  153807      48  153810  153819      48  153822  153831      48  153834
  153843      48  153846  153855      48  153858  153867      48  153870  153879
      48  153882  153891      48  153894  153903      48  153906  153915      48
  153918  153927      48  153930  153939      48  153942  153951      48  153954
  153963      48  153966  153975      48  153978  153987      48  153990  153999
      48  154002  154011      48  154014  154023      48  154026  154035      48
  154038  154047      48  154050  154059      48  154062  154071      48  154074
  154083      48  154086  154095      48  154098  154107      48  154110  154119
      48  154122  154131      48  154134  154143      48  154146  154155      48
  154158  154167      48  154170  154179      48  154182  154191      48  154194
  154203      48  154206  154215      48  154218  154227      48  154230  154239
      48  154242  154251      48  154254  154263      48  154266  154275      48
  154278  154287      48  154290  154299      48  154302  154311      48  154314
  154323      48  154326  154335      48  154338  154347      48  154350  154359
      48  154362  154371      48  154374  154383      48  154386  154395      48
  154398  154407      48  154410  154419      48  154422  154431      48  154434
  154443      48  154446  154455      48  154458  154467      48  154470  154479
      48  154482  154491      48  154494  154503      48  154506  154515      48
  154518  154527      48  154530  154539      48  154542  154551      48  154554
  154563      48  154566  154575      48  154578  154587      48  154590  154599
      48  154602  154611      48  154614  154623      48  154626  154635      48
  154638  154647      48  154650  154659      48  154662  154671      48  154674
  154683      48  154686  154695      48  154698  154707      48  154710  154719
      48  154722  154731      48  154734  154743      48  154746  154755      48
  154758  154767      48  154770  154779      48  154782  154791      48  154794
  154803      48  154806  154815      48  154818  154827      48  154830  154839
      48  154842  154851      48  154854  154863      48  154866  154875      48
  154878  154887      48  154890  154899      48  154902  154911      48  154914
  154923      48  154926  154935      48  154938  154947      48  154950  154959
      48  154962  154971      48  154974  154983      48  154986  154995      48
  154998  155007      48  155010  155019      48  155022  155031      48  155034
  155043      48  155046  155055      48  155058  155067      48  155070  155079
      48  155082  155091      48  155094  155103      48  155106  155115      48
  155118  155127      48  155130  155139      48  155142  155151      48  155154
  155163      48  155166  155175      48  155178  155187      48  155190  155199
      48  155202  155211      48  155214  155223      48  155226  155235      48
  155238  155247      48  155250  155259      48  155262  155271      48  155274
  155283      48  155286  155295      48  155298  155307      48  155310  155319
      48  155322  155331      48  155334  155343      48  155346  155355      48
  155358  155367      48  155370  155379      48  155382  155391      48  155394
  155403      48  155406  155415      48  155418  155427      48  155430  155439
      48  155442  155451      48  155454  155463      48  155466  155475      48
  155478  155487      48  155490  155499      48  155502  155511      48  155514
  155523      48  155526  155535      48  155538  155547      48  155550  155559
      48  155562  155571      48  155574  155583      48  155586  155595      48
  155598  155607      48  155610  155619      48  155622  155631      48  155634
  155643      48  155646  155655      48  155658  155667      48  155670  155679
      48  155682  155691      48  155694  155703      48  155706  155715      48
  155718  155727      48  155730  155739      48  155742  155751      48  155754
  155763      48  155766  155775      48  155778  155787      48  155790  155799
      48  155802  155811      48  155814  155823      48  155826  155835      48
  155838  155847      48  155850  155859      48  155862  155871      48  155874
  155883      48  155886  155895      48  155898  155907      48  155910  155919
      48  155922  155931      48  155934  155943      48  155946  155955      48
  155958  155967      48  155970  155979      48  155982  155991      48  155994
  156003      48  156006  156015      48  156018  156027      48  156030  156039
      48  156042  156051      48  156054  156063      48  156066  156075      48
  156078  156087      48  156090  156099      48  156102  156111      48  156114
  156123      48  156126  156135      48  156138  156147      48  156150  156159
      48  156162  156171      48  156174  156183      48  156186  156195      48
  156198  156207      48  156210  156219      48  156222  156231      48  156234
  156243      48  156246  156255      48  156258  156267      48  156270  156279
      48  156282  156291      48  156294  156303      48  156306  156315      48
  156318  156327      48  156330  156339      48  156342  156351      48  156354
  156363      48  156366  156375      48  156378  156387      48  156390  156399
      48  156402  156411      48  156414  156423      48  156426  156435      48
  156438  156447      48  156450  156459      48  156462  156471      48  156474
  156483      48  156486  156495      48  156498  156507      48  156510  156519
      48  156522  156531      48  156534  156543      48  156546  156555      48
  156558  156567      48  156570  156579      48  156582  156591      48  156594
  156603      48  156606  156615      48  156618  156627      48  156630  156639
      48  156642  156651      48  156654  156663      48  156666  156675      48
  156678  156687      48  156690  156699      48  156702  156711      48  156714
  156723      48  156726  156735      48  156738  156747      48  156750  156759
      48  156762  156771      48  156774  156783      48  156786  156795      48
  156798  156807      48  156810  156819      48  156822  156831      48  156834
  156843      48  156846  156855      48  156858  156867      48  156870  156879
      48  156882  156891      48  156894  156903      48  156906  156915      48
  156918  156927      48  156930  156939      48  156942  156951      48  156954
  156963      48  156966  156975      48  156978  156987      48  156990  156999
      48  157002  157011      48  157014  157023      48  157026  157035      48
  157038  157047      48  157050  157059      48  157062  157071      48  157074
  157083      48  157086  157095      48  157098  157107      48  157110  157119
      48  157122  157131      48  157134  157143      48  157146  157155      48
  157158  157167      48  157170  157179      48  157182  157191      48  157194
  157203      48  157206  157215      48  157218  157227      48  157230  157239
      48  157242  157251      48  157254  157263      48  157266  157275      48
  157278  157287      48  157290  157299      48  157302  157311      48  157314
  157323      48  157326  157335      48  157338  157347      48  157350  157359
      48  157362  157371      48  157374  157383      48  157386  157395      48
  157398  157407      48  157410  157419      48  157422  157431      48  157434
  157443      48  157446  157455      48  157458  157467      48  157470  157479
      48  157482  157491      48  157494  157503      48  157506  157515      48
  157518  157527      48  157530  157539      48  157542  157551      48  157554
  157563      48  157566  157575      48  157578  157587      48  157590  157599
      48  157602  157611      48  157614  157623      48  157626  157635      48
  157638  157647      48  157650  157659      48  157662  157671      48  157674
  157683      48  157686  157695      48  157698  157707      48  157710  157719
      48  157722  157731      48  157734  157743      48  157746  157755      48
  157758  157767      48  157770  157779      48  157782  157791      48  157794
  157803      48  157806  157815      48  157818  157827      48  157830  157839
      48  157842  157851      48  157854  157863      48  157866  157875      48
  157878  157887      48  157890  157899      48  157902  157911      48  157914
  157923      48  157926  157935      48  157938  157947      48  157950  157959
      48  157962  157971      48  157974  157983      48  157986  157995      48
  157998  158007      48  158010  158019      48  158022  158031      48  158034
  158043      48  158046  158055      48  158058  158067      48  158070  158079
      48  158082  158091      48  158094  158103      48  158106  158115      48
  158118  158127      48  158130  158139      48  158142  158151      48  158154
  158163      48  158166  158175      48  158178  158187      48  158190  158199
      48  158202  158211      48  158214  158223      48  158226  158235      48
  158238  158247      48  158250  158259      48  158262  158271      48  158274
  158283      48  158286  158295      48  158298  158307      48  158310  158319
      48  158322  158331      48  158334  158343      48  158346  158355      48
  158358  158367      48  158370  158379      48  158382  158391      48  158394
  158403      48  158406  158415      48  158418  158427      48  158430  158439
      48  158442  158451      48  158454  158463      48  158466  158475      48
  158478  158487      48  158490  158499      48  158502  158511      48  158514
  158523      48  158526  158535      48  158538  158547      48  158550  158559
      48  158562  158571      48  158574  158583      48  158586  158595      48
    6963    6966      51    6960    6963      53    6957    6960      54    6954
    6957      55    6954    6966      51    6951    6954      56    6939    6942
      57    6939    6945      57    6939    6948      57    6936    6939      58
    6936    6951      59    6933    6936      60    6930    6933      62    6930
    6957      63    6927    6930      64
%FLAG ANGLES_INC_HYDROGEN                                                       
%FORMAT(10I8)                                                                   
      84      81      87       3      81      87      90       5      78      75
      81       6      78      75      93       7      75      81      84       6
      63      60      66      10      57      60      63      12      57      60
      66      12      54      51      57      14      45      51      54      19
      36      33      39      26      30      33      36      30      27      24
      30      34      27      24      81      35      24      81      84       6
      21      24      27      39      18      15      21       7      18      15
      75       6      15      75      78       6      12       6      15      42
       9       6      12      43       9       6      15      42       6      15
      18      44       3       6       9      47       3       6      12      47
       0       3       6      49     186     183     189       3     183     189
     192       5     180     177     183       6     180     177     195       7
     177     183     186       6     165     162     168      10     159     162
     165      12     159     162     168      12     156     153     159      14
     147     153     156      19     138     135     141      26     132     135
     138      30     129     126     132      34     129     126     183      35
     126     183     186       6     123     126     129      39     120     117
     123       7     120     117     177       6     117     177     180       6
     114     108     117      42     111     108     114      43     111     108
     117      42     108     117     120      44     105     108     111      50
     105     108     114      50     285     282     288       3     282     288
     291       5     279     276     282       6     279     276     294       7
     276     282     285       6     267     264     270      54     261     264
     267      54     255     252     258      10     249     252     255      12
     249     252     258      12     240     237     243      62     234     237
     240      65     231     228     234      34     231     228     282      35
     228     282     285       6     225     228     231      39     222     219
     225       7     222     219     276       6     219     276     279       6
     216     210     219      42     213     210     216      43     213     210
     219      42     210     219     222      44     207     210     213      50
     207     210     216      50     375     372     378       3     372     378
     381       5     369     366     372       6     369     366     384       7
     366     372     375       6     357     354     360      19     348     354
     357      19     345     342     348      69     339     336     342      72
     336     342     345      74     333     336     339      76     330     327
     333      34     330     327     372      35     327     372     375       6
     324     327     330      39     321     318     324       7     321     318
     366       6     318     366     369       6     315     309     318      42
     312     309     315      43     312     309     318      42     309     318
     321      44     306     309     312      50     306     309     315      50
     468     465     471       3     465     471     474       5     462     459
     465       6     462     459     477       7     459     465     468       6
     444     441     447      10     438     441     444      12     438     441
     447      12     435     432     438      84     429     426     432      87
     426     432     435      89     423     426     429      91     420     417
     423      34     420     417     465      35     417     465     468       6
     414     417     420      39     411     408     414       7     411     408
     459       6     408     459     462       6     405     399     408      42
     402     399     405      43     402     399     408      42     399     408
     411      44     396     399     402      50     396     399     405      50
     567     564     570       3     564     570     573       5     561     558
     564       6     561     558     576       7     558     564     567       6
     549     546     552      54     543     546     549      54     537     534
     540      10     531     534     537      12     531     534     540      12
     522     519     525      62     516     519     522      65     513     510
     516      34     513     510     564      35     510     564     567       6
     507     510     513      39     504     501     507       7     504     501
     558       6     501     558     561       6     498     492     501      42
     495     492     498      43     495     492     501      42     492     501
     504      44     489     492     495      50     489     492     498      50
     657     654     660       3     654     660     663       5     651     648
     654       6     651     648     666       7     648     654     657       6
     639     636     642      19     630     636     639      19     627     624
     630      69     621     618     624      72     618     624     627      74
     615     618     621      76     612     609     615      34     612     609
     654      35     609     654     657       6     606     609     612      39
     603     600     606       7     603     600     648       6     600     648
     651       6     597     591     600      42     594     591     597      43
     594     591     600      42     591     600     603      44     588     591
     594      50     588     591     597      50     756     753     759       3
     753     759     762       5     750     747     753       6     750     747
     765       7     747     753     756       6     738     735     741      54
     732     735     738      54     726     723     729      10     720     723
     726      12     720     723     729      12     711     708     714      62
     705     708     711      65     702     699     705      34     702     699
     753      35     699     753     756       6     696     699     702      39
     693     690     696       7     693     690     747       6     690     747
     750       6     687     681     690      42     684     681     687      43
     684     681     690      42     681     690     693      44     678     681
     684      50     678     681     687      50     846     843     849       3
     843     849     852       5     840     837     843       6     840     837
     855       7     837     843     846       6     828     825     831      19
     819     825     828      19     816     813     819      69     810     807
     813      72     807     813     816      74     804     807     810      76
     801     798     804      34     801     798     843      35     798     843
     846       6     795     798     801      39     792     789     795       7
     792     789     837       6     789     837     840       6     786     780
     789      42     783     780     786      43     783     780     789      42
     780     789     792      44     777     780     783      50     777     780
     786      50     945     942     948       3     942     948     951       5
     939     936     942       6     939     936     954       7     936     942
     945       6     927     924     930      54     921     924     927      54
     915     912     918      10     909     912     915      12     909     912
     918      12     900     897     903      62     894     897     900      65
     891     888     894      34     891     888     942      35     888     942
     945       6     885     888     891      39     882     879     885       7
     882     879     936       6     879     936     939       6     876     870
     879      42     873     870     876      43     873     870     879      42
     870     879     882      44     867     870     873      50     867     870
     876      50    1044    1041    1047       3    1041    1047    1050       5
    1038    1035    1041       6    1038    1035    1053       7    1035    1041
    1044       6    1026    1023    1029      54    1020    1023    1026      54
    1014    1011    1017      10    1008    1011    1014      12    1008    1011
    1017      12     999     996    1002      62     993     996     999      65
     990     987     993      34     990     987    1041      35     987    1041
    1044       6     984     987     990      39     981     978     984       7
     981     978    1035       6     978    1035    1038       6     975     969
     978      42     972     969     975      43     972     969     978      42
     969     978     981      44     966     969     972      50     966     969
     975      50    1134    1131    1137       3    1131    1137    1140       5
    1128    1125    1131       6    1128    1125    1143       7    1125    1131
    1134       6    1116    1113    1119      19    1107    1113    1116      19
    1104    1101    1107      69    1098    1095    1101      72    1095    1101
    1104      74    1092    1095    1098      76    1089    1086    1092      34
    1089    1086    1131      35    1086    1131    1134       6    1083    1086
    1089      39    1080    1077    1083       7    1080    1077    1125       6
    1077    1125    1128       6    1074    1068    1077      42    1071    1068
    1074      43    1071    1068    1077      42    1068    1077    1080      44
    1065    1068    1071      50    1065    1068    1074      50    1227    1224
    1230       3    1224    1230    1233       5    1221    1218    1224       6
    1221    1218    1236       7    1218    1224    1227       6    1203    1200
    1206      10    1197    1200    1203      12    1197    1200    1206      12
    1194    1191    1197      84    1188    1185    1191      87    1185    1191
    1194      89    1182    1185    1188      91    1179    1176    1182      34
    1179    1176    1224      35    1176    1224    1227       6    1173    1176
    1179      39    1170    1167    1173       7    1170    1167    1218       6
    1167    1218    1221       6    1164    1158    1167      42    1161    1158
    1164      43    1161    1158    1167      42    1158    1167    1170      44
    1155    1158    1161      50    1155    1158    1164      50    1329    1326
    1332       3    1326    1332    1335       5    1323    1320    1326       6
    1323    1320    1338       7    1320    1326    1329       6    1308    1305
    1311      10    1302    1305    1308      12    1302    1305    1311      12
    1299    1296    1302      14    1290    1296    1299      19    1281    1278
    1284      26    1275    1278    1281      30    1272    1269    1275      34
    1272    1269    1326      35    1269    1326    1329       6    1266    1269
    1272      39    1263    1260    1266       7    1263    1260    1320       6
    1260    1320    1323       6    1257    1251    1260      42    1254    1251
    1257      43    1254    1251    1260      42    1251    1260    1263      44
    1248    1251    1254      50    1248    1251    1257      50    1422    1419
    1425       3    1419    1425    1428       5    1416    1413    1419       6
    1416    1413    1431       7    1413    1419    1422       6    1398    1395
    1401      10    1392    1395    1398      12    1392    1395    1401      12
    1389    1386    1392      84    1383    1380    1386      87    1380    1386
    1389      89    1377    1380    1383      91    1374    1371    1377      34
    1374    1371    1419      35    1371    1419    1422       6    1368    1371
    1374      39    1365    1362    1368       7    1365    1362    1413       6
    1362    1413    1416       6    1359    1353    1362      42    1356    1353
    1359      43    1356    1353    1362      42    1353    1362    1365      44
    1350    1353    1356      50    1350    1353    1359      50    1524    1521
    1527       3    1521    1527    1530       5    1518    1515    1521       6
    1518    1515    1533       7    1515    1521    1524       6    1503    1500
    1506      10    1497    1500    1503      12    1497    1500    1506      12
    1494    1491    1497      14    1485    1491    1494      19    1476    1473
    1479      26    1470    1473    1476      30    1467    1464    1470      34
    1467    1464    1521      35    1464    1521    1524       6    1461    1464
    1467      39    1458    1455    1461       7    1458    1455    1515       6
    1455    1515    1518       6    1452    1446    1455      42    1449    1446
    1452      43    1449    1446    1455      42    1446    1455    1458      44
    1443    1446    1449      50    1443    1446    1452      50    1614    1611
    1617       3    1611    1617    1620       5    1608    1605    1611       6
    1608    1605    1623       7    1605    1611    1614       6    1596    1593
    1599      19    1587    1593    1596      19    1584    1581    1587      69
    1578    1575    1581      72    1575    1581    1584      74    1572    1575
    1578      76    1569    1566    1572      34    1569    1566    1611      35
    1566    1611    1614       6    1563    1566    1569      39    1560    1557
    1563       7    1560    1557    1605       6    1557    1605    1608       6
    1554    1548    1557      42    1551    1548    1554      43    1551    1548
    1557      42    1548    1557    1560      44    1545    1548    1551      50
    1545    1548    1554      50    1716    1713    1719       3    1713    1719
    1722       5    1710    1707    1713       6    1710    1707    1725       7
    1707    1713    1716       6    1695    1692    1698      10    1689    1692
    1695      12    1689    1692    1698      12    1686    1683    1689      14
    1677    1683    1686      19    1668    1665    1671      26    1662    1665
    1668      30    1659    1656    1662      34    1659    1656    1713      35
    1656    1713    1716       6    1653    1656    1659      39    1650    1647
    1653       7    1650    1647    1707       6    1647    1707    1710       6
    1644    1638    1647      42    1641    1638    1644      43    1641    1638
    1647      42    1638    1647    1650      44    1635    1638    1641      50
    1635    1638    1644      50    1818    1815    1821       3    1815    1821
    1824       5    1812    1809    1815       6    1812    1809    1827       7
    1809    1815    1818       6    1797    1794    1800      10    1791    1794
    1797      12    1791    1794    1800      12    1788    1785    1791      14
    1779    1785    1788      19    1770    1767    1773      26    1764    1767
    1770      30    1761    1758    1764      34    1761    1758    1815      35
    1758    1815    1818       6    1755    1758    1761      39    1752    1749
    1755       7    1752    1749    1809       6    1749    1809    1812       6
    1746    1740    1749      42    1743    1740    1746      43    1743    1740
    1749      42    1740    1749    1752      44    1737    1740    1743      50
    1737    1740    1746      50    1917    1914    1920       3    1914    1920
    1923       5    1911    1908    1914       6    1911    1908    1926       7
    1908    1914    1917       6    1899    1896    1902      54    1893    1896
    1899      54    1887    1884    1890      10    1881    1884    1887      12
    1881    1884    1890      12    1872    1869    1875      62    1866    1869
    1872      65    1863    1860    1866      34    1863    1860    1914      35
    1860    1914    1917       6    1857    1860    1863      39    1854    1851
    1857       7    1854    1851    1908       6    1851    1908    1911       6
    1848    1842    1851      42    1845    1842    1848      43    1845    1842
    1851      42    1842    1851    1854      44    1839    1842    1845      50
    1839    1842    1848      50    2007    2004    2010       3    2004    2010
    2013       5    2001    1998    2004       6    2001    1998    2016       7
    1998    2004    2007       6    1989    1986    1992      19    1980    1986
    1989      19    1977    1974    1980      69    1971    1968    1974      72
    1968    1974    1977      74    1965    1968    1971      76    1962    1959
    1965      34    1962    1959    2004      35    1959    2004    2007       6
    1956    1959    1962      39    1953    1950    1956       7    1953    1950
    1998       6    1950    1998    2001       6    1947    1941    1950      42
    1944    1941    1947      43    1944    1941    1950      42    1941    1950
    1953      44    1938    1941    1944      50    1938    1941    1947      50
    2106    2103    2109       3    2103    2109    2112       5    2100    2097
    2103       6    2100    2097    2115       7    2097    2103    2106       6
    2088    2085    2091      54    2082    2085    2088      54    2076    2073
    2079      10    2070    2073    2076      12    2070    2073    2079      12
    2061    2058    2064      62    2055    2058    2061      65    2052    2049
    2055      34    2052    2049    2103      35    2049    2103    2106       6
    2046    2049    2052      39    2043    2040    2046       7    2043    2040
    2097       6    2040    2097    2100       6    2037    2031    2040      42
    2034    2031    2037      43    2034    2031    2040      42    2031    2040
    2043      44    2028    2031    2034      50    2028    2031    2037      50
    2196    2193    2199       3    2193    2199    2202       5    2190    2187
    2193       6    2190    2187    2205       7    2187    2193    2196       6
    2178    2175    2181      19    2169    2175    2178      19    2166    2163
    2169      69    2160    2157    2163      72    2157    2163    2166      74
    2154    2157    2160      76    2151    2148    2154      34    2151    2148
    2193      35    2148    2193    2196       6    2145    2148    2151      39
    2142    2139    2145       7    2142    2139    2187       6    2139    2187
    2190       6    2136    2130    2139      42    2133    2130    2136      43
    2133    2130    2139      42    2130    2139    2142      44    2127    2130
    2133      50    2127    2130    2136      50    2298    2295    2301       3
    2295    2301    2304       5    2292    2289    2295       6    2292    2289
    2307       7    2289    2295    2298       6    2277    2274    2280      10
    2271    2274    2277      12    2271    2274    2280      12    2268    2265
    2271      14    2259    2265    2268      19    2250    2247    2253      26
    2244    2247    2250      30    2241    2238    2244      34    2241    2238
    2295      35    2238    2295    2298       6    2235    2238    2241      39
    2232    2229    2235       7    2232    2229    2289       6    2229    2289
    2292       6    2226    2220    2229      42    2223    2220    2226      43
    2223    2220    2229      42    2220    2229    2232      44    2217    2220
    2223      50    2217    2220    2226      50    2400    2397    2403       3
    2397    2403    2406       5    2394    2391    2397       6    2394    2391
    2409       7    2391    2397    2400       6    2379    2376    2382      10
    2373    2376    2379      12    2373    2376    2382      12    2370    2367
    2373      14    2361    2367    2370      19    2352    2349    2355      26
    2346    2349    2352      30    2343    2340    2346      34    2343    2340
    2397      35    2340    2397    2400       6    2337    2340    2343      39
    2334    2331    2337       7    2334    2331    2391       6    2331    2391
    2394       6    2328    2322    2331      42    2325    2322    2328      43
    2325    2322    2331      42    2322    2331    2334      44    2319    2322
    2325      50    2319    2322    2328      50    2493    2490    2496       3
    2490    2496    2499       5    2487    2484    2490       6    2487    2484
    2502       7    2484    2490    2493       6    2469    2466    2472      10
    2463    2466    2469      12    2463    2466    2472      12    2460    2457
    2463      84    2454    2451    2457      87    2451    2457    2460      89
    2448    2451    2454      91    2445    2442    2448      34    2445    2442
    2490      35    2442    2490    2493       6    2439    2442    2445      39
    2436    2433    2439       7    2436    2433    2484       6    2433    2484
    2487       6    2430    2424    2433      42    2427    2424    2430      43
    2427    2424    2433      42    2424    2433    2436      44    2421    2424
    2427      50    2421    2424    2430      50    2592    2589    2595       3
    2589    2595    2598       5    2586    2583    2589       6    2586    2583
    2601       7    2583    2589    2592       6    2574    2571    2577      54
    2568    2571    2574      54    2562    2559    2565      10    2556    2559
    2562      12    2556    2559    2565      12    2547    2544    2550      62
    2541    2544    2547      65    2538    2535    2541      34    2538    2535
    2589      35    2535    2589    2592       6    2532    2535    2538      39
    2529    2526    2532       7    2529    2526    2583       6    2526    2583
    2586       6    2523    2517    2526      42    2520    2517    2523      43
    2520    2517    2526      42    2517    2526    2529      44    2514    2517
    2520      50    2514    2517    2523      50    2685    2682    2688       3
    2682    2688    2691       5    2679    2676    2682       6    2679    2676
    2694       7    2676    2682    2685       6    2661    2658    2664      10
    2655    2658    2661      12    2655    2658    2664      12    2652    2649
    2655      84    2646    2643    2649      87    2643    2649    2652      89
    2640    2643    2646      91    2637    2634    2640      34    2637    2634
    2682      35    2634    2682    2685       6    2631    2634    2637      39
    2628    2625    2631       7    2628    2625    2676       6    2625    2676
    2679       6    2622    2616    2625      42    2619    2616    2622      43
    2619    2616    2625      42    2616    2625    2628      44    2613    2616
    2619      50    2613    2616    2622      50    2787    2784    2790       3
    2784    2790    2793       5    2781    2778    2784       6    2781    2778
    2796       7    2778    2784    2787       6    2766    2763    2769      10
    2760    2763    2766      12    2760    2763    2769      12    2757    2754
    2760      14    2748    2754    2757      19    2739    2736    2742      26
    2733    2736    2739      30    2730    2727    2733      34    2730    2727
    2784      35    2727    2784    2787       6    2724    2727    2730      39
    2721    2718    2724       7    2721    2718    2778       6    2718    2778
    2781       6    2715    2709    2718      42    2712    2709    2715      43
    2712    2709    2718      42    2709    2718    2721      44    2706    2709
    2712      50    2706    2709    2715      50    2880    2877    2883       3
    2877    2883    2886       5    2874    2871    2877       6    2874    2871
    2889       7    2871    2877    2880       6    2856    2853    2859      10
    2850    2853    2856      12    2850    2853    2859      12    2847    2844
    2850      84    2841    2838    2844      87    2838    2844    2847      89
    2835    2838    2841      91    2832    2829    2835      34    2832    2829
    2877      35    2829    2877    2880       6    2826    2829    2832      39
    2823    2820    2826       7    2823    2820    2871       6    2820    2871
    2874       6    2817    2811    2820      42    2814    2811    2817      43
    2814    2811    2820      42    2811    2820    2823      44    2808    2811
    2814      50    2808    2811    2817      50    2979    2976    2982       3
    2976    2982    2985       5    2973    2970    2976       6    2973    2970
    2988       7    2970    2976    2979       6    2961    2958    2964      54
    2955    2958    2961      54    2949    2946    2952      10    2943    2946
    2949      12    2943    2946    2952      12    2934    2931    2937      62
    2928    2931    2934      65    2925    2922    2928      34    2925    2922
    2976      35    2922    2976    2979       6    2919    2922    2925      39
    2916    2913    2919       7    2916    2913    2970       6    2913    2970
    2973       6    2910    2904    2913      42    2907    2904    2910      43
    2907    2904    2913      42    2904    2913    2916      44    2901    2904
    2907      50    2901    2904    2910      50    3078    3075    3081       3
    3075    3081    3084       5    3072    3069    3075       6    3072    3069
    3087       7    3069    3075    3078       6    3060    3057    3063      54
    3054    3057    3060      54    3048    3045    3051      10    3042    3045
    3048      12    3042    3045    3051      12    3033    3030    3036      62
    3027    3030    3033      65    3024    3021    3027      34    3024    3021
    3075      35    3021    3075    3078       6    3018    3021    3024      39
    3015    3012    3018       7    3015    3012    3069       6    3012    3069
    3072       6    3009    3003    3012      42    3006    3003    3009      43
    3006    3003    3012      42    3003    3012    3015      44    3000    3003
    3006      50    3000    3003    3009      50    3180    3177    3183       3
    3177    3183    3186       5    3174    3171    3177       6    3174    3171
    3189       7    3171    3177    3180       6    3159    3156    3162      10
    3153    3156    3159      12    3153    3156    3162      12    3150    3147
    3153      14    3141    3147    3150      19    3132    3129    3135      26
    3126    3129    3132      30    3123    3120    3126      34    3123    3120
    3177      35    3120    3177    3180       6    3117    3120    3123      39
    3114    3111    3117       7    3114    3111    3171       6    3111    3171
    3174       6    3108    3102    3111      42    3105    3102    3108      43
    3105    3102    3111      42    3102    3111    3114      44    3099    3102
    3105      50    3099    3102    3108      50    3270    3267    3273       3
    3267    3273    3276       5    3264    3261    3267       6    3264    3261
    3279       7    3261    3267    3270       6    3252    3249    3255      19
    3243    3249    3252      19    3240    3237    3243      69    3234    3231
    3237      72    3231    3237    3240      74    3228    3231    3234      76
    3225    3222    3228      34    3225    3222    3267      35    3222    3267
    3270       6    3219    3222    3225      39    3216    3213    3219       7
    3216    3213    3261       6    3213    3261    3264       6    3210    3204
    3213      42    3207    3204    3210      43    3207    3204    3213      42
    3204    3213    3216      44    3201    3204    3207      50    3201    3204
    3210      50    3360    3357    3363       3    3357    3363    3366       5
    3354    3351    3357       6    3354    3351    3369       7    3351    3357
    3360       6    3342    3339    3345      19    3333    3339    3342      19
    3330    3327    3333      69    3324    3321    3327      72    3321    3327
    3330      74    3318    3321    3324      76    3315    3312    3318      34
    3315    3312    3357      35    3312    3357    3360       6    3309    3312
    3315      39    3306    3303    3309       7    3306    3303    3351       6
    3303    3351    3354       6    3300    3294    3303      42    3297    3294
    3300      43    3297    3294    3303      42    3294    3303    3306      44
    3291    3294    3297      50    3291    3294    3300      50    3450    3447
    3453       3    3447    3453    3456       5    3444    3441    3447       6
    3444    3441    3459       7    3441    3447    3450       6    3432    3429
    3435      19    3423    3429    3432      19    3420    3417    3423      69
    3414    3411    3417      72    3411    3417    3420      74    3408    3411
    3414      76    3405    3402    3408      34    3405    3402    3447      35
    3402    3447    3450       6    3399    3402    3405      39    3396    3393
    3399       7    3396    3393    3441       6    3393    3441    3444       6
    3390    3384    3393      42    3387    3384    3390      43    3387    3384
    3393      42    3384    3393    3396      44    3381    3384    3387      50
    3381    3384    3390      50    3543    3540    3546       3    3540    3546
    3549       5    3537    3534    3540       6    3537    3534    3552       7
    3534    3540    3543       6    3519    3516    3522      10    3513    3516
    3519      12    3513    3516    3522      12    3510    3507    3513      84
    3504    3501    3507      87    3501    3507    3510      89    3498    3501
    3504      91    3495    3492    3498      34    3495    3492    3540      35
    3492    3540    3543       6    3489    3492    3495      39    3486    3483
    3489       7    3486    3483    3534       6    3483    3534    3537       6
    3480    3474    3483      42    3477    3474    3480      43    3477    3474
    3483      42    3474    3483    3486      44    3471    3474    3477      50
    3471    3474    3480      50    3633    3630    3636       3    3630    3636
    3639       5    3627    3624    3630       6    3627    3624    3642       7
    3624    3630    3633       6    3615    3612    3618      19    3606    3612
    3615      19    3603    3600    3606      69    3597    3594    3600      72
    3594    3600    3603      74    3591    3594    3597      76    3588    3585
    3591      34    3588    3585    3630      35    3585    3630    3633       6
    3582    3585    3588      39    3579    3576    3582       7    3579    3576
    3624       6    3576    3624    3627       6    3573    3567    3576      42
    3570    3567    3573      43    3570    3567    3576      42    3567    3576
    3579      44    3564    3567    3570      50    3564    3567    3573      50
    3732    3729    3735       3    3729    3735    3738       5    3726    3723
    3729       6    3726    3723    3741       7    3723    3729    3732       6
    3714    3711    3717      54    3708    3711    3714      54    3702    3699
    3705      10    3696    3699    3702      12    3696    3699    3705      12
    3687    3684    3690      62    3681    3684    3687      65    3678    3675
    3681      34    3678    3675    3729      35    3675    3729    3732       6
    3672    3675    3678      39    3669    3666    3672       7    3669    3666
    3723       6    3666    3723    3726       6    3663    3657    3666      42
    3660    3657    3663      43    3660    3657    3666      42    3657    3666
    3669      44    3654    3657    3660      50    3654    3657    3663      50
    3825    3822    3828       3    3822    3828    3831       5    3819    3816
    3822       6    3819    3816    3834       7    3816    3822    3825       6
    3801    3798    3804      10    3795    3798    3801      12    3795    3798
    3804      12    3792    3789    3795      84    3786    3783    3789      87
    3783    3789    3792      89    3780    3783    3786      91    3777    3774
    3780      34    3777    3774    3822      35    3774    3822    3825       6
    3771    3774    3777      39    3768    3765    3771       7    3768    3765
    3816       6    3765    3816    3819       6    3762    3756    3765      42
    3759    3756    3762      43    3759    3756    3765      42    3756    3765
    3768      44    3753    3756    3759      50    3753    3756    3762      50
    3918    3915    3921       3    3915    3921    3924       5    3912    3909
    3915       6    3912    3909    3927       7    3909    3915    3918       6
    3894    3891    3897      10    3888    3891    3894      12    3888    3891
    3897      12    3885    3882    3888      84    3879    3876    3882      87
    3876    3882    3885      89    3873    3876    3879      91    3870    3867
    3873      34    3870    3867    3915      35    3867    3915    3918       6
    3864    3867    3870      39    3861    3858    3864       7    3861    3858
    3909       6    3858    3909    3912       6    3855    3849    3858      42
    3852    3849    3855      43    3852    3849    3858      42    3849    3858
    3861      44    3846    3849    3852      50    3846    3849    3855      50
    4020    4017    4023       3    4017    4023    4026       5    4014    4011
    4017       6    4014    4011    4029       7    4011    4017    4020       6
    3999    3996    4002      10    3993    3996    3999      12    3993    3996
    4002      12    3990    3987    3993      14    3981    3987    3990      19
    3972    3969    3975      26    3966    3969    3972      30    3963    3960
    3966      34    3963    3960    4017      35    3960    4017    4020       6
    3957    3960    3963      39    3954    3951    3957       7    3954    3951
    4011       6    3951    4011    4014       6    3948    3942    3951      42
    3945    3942    3948      43    3945    3942    3951      42    3942    3951
    3954      44    3939    3942    3945      50    3939    3942    3948      50
    4122    4119    4125       3    4119    4125    4128       5    4116    4113
    4119       6    4116    4113    4131       7    4113    4119    4122       6
    4101    4098    4104      10    4095    4098    4101      12    4095    4098
    4104      12    4092    4089    4095      14    4083    4089    4092      19
    4074    4071    4077      26    4068    4071    4074      30    4065    4062
    4068      34    4065    4062    4119      35    4062    4119    4122       6
    4059    4062    4065      39    4056    4053    4059       7    4056    4053
    4113       6    4053    4113    4116       6    4050    4044    4053      42
    4047    4044    4050      43    4047    4044    4053      42    4044    4053
    4056      44    4041    4044    4047      50    4041    4044    4050      50
    4224    4221    4227       3    4221    4227    4230       5    4218    4215
    4221       6    4218    4215    4233       7    4215    4221    4224       6
    4203    4200    4206      10    4197    4200    4203      12    4197    4200
    4206      12    4194    4191    4197      14    4185    4191    4194      19
    4176    4173    4179      26    4170    4173    4176      30    4167    4164
    4170      34    4167    4164    4221      35    4164    4221    4224       6
    4161    4164    4167      39    4158    4155    4161       7    4158    4155
    4215       6    4155    4215    4218       6    4152    4146    4155      42
    4149    4146    4152      43    4149    4146    4155      42    4146    4155
    4158      44    4143    4146    4149      50    4143    4146    4152      50
    4317    4314    4320       3    4314    4320    4323       5    4311    4308
    4314       6    4311    4308    4326       7    4308    4314    4317       6
    4293    4290    4296      10    4287    4290    4293      12    4287    4290
    4296      12    4284    4281    4287      84    4278    4275    4281      87
    4275    4281    4284      89    4272    4275    4278      91    4269    4266
    4272      34    4269    4266    4314      35    4266    4314    4317       6
    4263    4266    4269      39    4260    4257    4263       7    4260    4257
    4308       6    4257    4308    4311       6    4254    4248    4257      42
    4251    4248    4254      43    4251    4248    4257      42    4248    4257
    4260      44    4245    4248    4251      50    4245    4248    4254      50
    4416    4413    4419       3    4413    4419    4422       5    4410    4407
    4413       6    4410    4407    4425       7    4407    4413    4416       6
    4398    4395    4401      54    4392    4395    4398      54    4386    4383
    4389      10    4380    4383    4386      12    4380    4383    4389      12
    4371    4368    4374      62    4365    4368    4371      65    4362    4359
    4365      34    4362    4359    4413      35    4359    4413    4416       6
    4356    4359    4362      39    4353    4350    4356       7    4353    4350
    4407       6    4350    4407    4410       6    4347    4341    4350      42
    4344    4341    4347      43    4344    4341    4350      42    4341    4350
    4353      44    4338    4341    4344      50    4338    4341    4347      50
    4509    4506    4512       3    4506    4512    4515       5    4503    4500
    4506       6    4503    4500    4518       7    4500    4506    4509       6
    4485    4482    4488      10    4479    4482    4485      12    4479    4482
    4488      12    4476    4473    4479      84    4470    4467    4473      87
    4467    4473    4476      89    4464    4467    4470      91    4461    4458
    4464      34    4461    4458    4506      35    4458    4506    4509       6
    4455    4458    4461      39    4452    4449    4455       7    4452    4449
    4500       6    4449    4500    4503       6    4446    4440    4449      42
    4443    4440    4446      43    4443    4440    4449      42    4440    4449
    4452      44    4437    4440    4443      50    4437    4440    4446      50
    4602    4599    4605       3    4599    4605    4608       5    4596    4593
    4599       6    4596    4593    4611       7    4593    4599    4602       6
    4578    4575    4581      10    4572    4575    4578      12    4572    4575
    4581      12    4569    4566    4572      84    4563    4560    4566      87
    4560    4566    4569      89    4557    4560    4563      91    4554    4551
    4557      34    4554    4551    4599      35    4551    4599    4602       6
    4548    4551    4554      39    4545    4542    4548       7    4545    4542
    4593       6    4542    4593    4596       6    4539    4533    4542      42
    4536    4533    4539      43    4536    4533    4542      42    4533    4542
    4545      44    4530    4533    4536      50    4530    4533    4539      50
    4704    4701    4707       3    4701    4707    4710       5    4698    4695
    4701       6    4698    4695    4713       7    4695    4701    4704       6
    4683    4680    4686      10    4677    4680    4683      12    4677    4680
    4686      12    4674    4671    4677      14    4665    4671    4674      19
    4656    4653    4659      26    4650    4653    4656      30    4647    4644
    4650      34    4647    4644    4701      35    4644    4701    4704       6
    4641    4644    4647      39    4638    4635    4641       7    4638    4635
    4695       6    4635    4695    4698       6    4632    4626    4635      42
    4629    4626    4632      43    4629    4626    4635      42    4626    4635
    4638      44    4623    4626    4629      50    4623    4626    4632      50
    4794    4791    4797       3    4791    4797    4800       5    4788    4785
    4791       6    4788    4785    4803       7    4785    4791    4794       6
    4776    4773    4779      19    4767    4773    4776      19    4764    4761
    4767      69    4758    4755    4761      72    4755    4761    4764      74
    4752    4755    4758      76    4749    4746    4752      34    4749    4746
    4791      35    4746    4791    4794       6    4743    4746    4749      39
    4740    4737    4743       7    4740    4737    4785       6    4737    4785
    4788       6    4734    4728    4737      42    4731    4728    4734      43
    4731    4728    4737      42    4728    4737    4740      44    4725    4728
    4731      50    4725    4728    4734      50    4893    4890    4896       3
    4890    4896    4899       5    4887    4884    4890       6    4887    4884
    4902       7    4884    4890    4893       6    4875    4872    4878      54
    4869    4872    4875      54    4863    4860    4866      10    4857    4860
    4863      12    4857    4860    4866      12    4848    4845    4851      62
    4842    4845    4848      65    4839    4836    4842      34    4839    4836
    4890      35    4836    4890    4893       6    4833    4836    4839      39
    4830    4827    4833       7    4830    4827    4884       6    4827    4884
    4887       6    4824    4818    4827      42    4821    4818    4824      43
    4821    4818    4827      42    4818    4827    4830      44    4815    4818
    4821      50    4815    4818    4824      50    4992    4989    4995       3
    4989    4995    4998       5    4986    4983    4989       6    4986    4983
    5001       7    4983    4989    4992       6    4974    4971    4977      54
    4968    4971    4974      54    4962    4959    4965      10    4956    4959
    4962      12    4956    4959    4965      12    4947    4944    4950      62
    4941    4944    4947      65    4938    4935    4941      34    4938    4935
    4989      35    4935    4989    4992       6    4932    4935    4938      39
    4929    4926    4932       7    4929    4926    4983       6    4926    4983
    4986       6    4923    4917    4926      42    4920    4917    4923      43
    4920    4917    4926      42    4917    4926    4929      44    4914    4917
    4920      50    4914    4917    4923      50    5091    5088    5094       3
    5088    5094    5097       5    5085    5082    5088       6    5085    5082
    5100       7    5082    5088    5091       6    5073    5070    5076      54
    5067    5070    5073      54    5061    5058    5064      10    5055    5058
    5061      12    5055    5058    5064      12    5046    5043    5049      62
    5040    5043    5046      65    5037    5034    5040      34    5037    5034
    5088      35    5034    5088    5091       6    5031    5034    5037      39
    5028    5025    5031       7    5028    5025    5082       6    5025    5082
    5085       6    5022    5016    5025      42    5019    5016    5022      43
    5019    5016    5025      42    5016    5025    5028      44    5013    5016
    5019      50    5013    5016    5022      50    5181    5178    5184       3
    5178    5184    5187       5    5175    5172    5178       6    5175    5172
    5190       7    5172    5178    5181       6    5163    5160    5166      19
    5154    5160    5163      19    5151    5148    5154      69    5145    5142
    5148      72    5142    5148    5151      74    5139    5142    5145      76
    5136    5133    5139      34    5136    5133    5178      35    5133    5178
    5181       6    5130    5133    5136      39    5127    5124    5130       7
    5127    5124    5172       6    5124    5172    5175       6    5121    5115
    5124      42    5118    5115    5121      43    5118    5115    5124      42
    5115    5124    5127      44    5112    5115    5118      50    5112    5115
    5121      50    5283    5280    5286       3    5280    5286    5289       5
    5277    5274    5280       6    5277    5274    5292       7    5274    5280
    5283       6    5262    5259    5265      10    5256    5259    5262      12
    5256    5259    5265      12    5253    5250    5256      14    5244    5250
    5253      19    5235    5232    5238      26    5229    5232    5235      30
    5226    5223    5229      34    5226    5223    5280      35    5223    5280
    5283       6    5220    5223    5226      39    5217    5214    5220       7
    5217    5214    5274       6    5214    5274    5277       6    5211    5205
    5214      42    5208    5205    5211      43    5208    5205    5214      42
    5205    5214    5217      44    5202    5205    5208      50    5202    5205
    5211      50    5373    5370    5376       3    5370    5376    5379       5
    5367    5364    5370       6    5367    5364    5382       7    5364    5370
    5373       6    5355    5352    5358      19    5346    5352    5355      19
    5343    5340    5346      69    5337    5334    5340      72    5334    5340
    5343      74    5331    5334    5337      76    5328    5325    5331      34
    5328    5325    5370      35    5325    5370    5373       6    5322    5325
    5328      39    5319    5316    5322       7    5319    5316    5364       6
    5316    5364    5367       6    5313    5307    5316      42    5310    5307
    5313      43    5310    5307    5316      42    5307    5316    5319      44
    5304    5307    5310      50    5304    5307    5313      50    5466    5463
    5469       3    5463    5469    5472       5    5460    5457    5463       6
    5460    5457    5475       7    5457    5463    5466       6    5442    5439
    5445      10    5436    5439    5442      12    5436    5439    5445      12
    5433    5430    5436      84    5427    5424    5430      87    5424    5430
    5433      89    5421    5424    5427      91    5418    5415    5421      34
    5418    5415    5463      35    5415    5463    5466       6    5412    5415
    5418      39    5409    5406    5412       7    5409    5406    5457       6
    5406    5457    5460       6    5403    5397    5406      42    5400    5397
    5403      43    5400    5397    5406      42    5397    5406    5409      44
    5394    5397    5400      50    5394    5397    5403      50    5559    5556
    5562       3    5556    5562    5565       5    5553    5550    5556       6
    5553    5550    5568       7    5550    5556    5559       6    5535    5532
    5538      10    5529    5532    5535      12    5529    5532    5538      12
    5526    5523    5529      84    5520    5517    5523      87    5517    5523
    5526      89    5514    5517    5520      91    5511    5508    5514      34
    5511    5508    5556      35    5508    5556    5559       6    5505    5508
    5511      39    5502    5499    5505       7    5502    5499    5550       6
    5499    5550    5553       6    5496    5490    5499      42    5493    5490
    5496      43    5493    5490    5499      42    5490    5499    5502      44
    5487    5490    5493      50    5487    5490    5496      50    5661    5658
    5664       3    5658    5664    5667       5    5655    5652    5658       6
    5655    5652    5670       7    5652    5658    5661       6    5640    5637
    5643      10    5634    5637    5640      12    5634    5637    5643      12
    5631    5628    5634      14    5622    5628    5631      19    5613    5610
    5616      26    5607    5610    5613      30    5604    5601    5607      34
    5604    5601    5658      35    5601    5658    5661       6    5598    5601
    5604      39    5595    5592    5598       7    5595    5592    5652       6
    5592    5652    5655       6    5589    5583    5592      42    5586    5583
    5589      43    5586    5583    5592      42    5583    5592    5595      44
    5580    5583    5586      50    5580    5583    5589      50    5760    5757
    5763       3    5757    5763    5766       5    5754    5751    5757       6
    5754    5751    5769       7    5751    5757    5760       6    5742    5739
    5745      54    5736    5739    5742      54    5730    5727    5733      10
    5724    5727    5730      12    5724    5727    5733      12    5715    5712
    5718      62    5709    5712    5715      65    5706    5703    5709      34
    5706    5703    5757      35    5703    5757    5760       6    5700    5703
    5706      39    5697    5694    5700       7    5697    5694    5751       6
    5694    5751    5754       6    5691    5685    5694      42    5688    5685
    5691      43    5688    5685    5694      42    5685    5694    5697      44
    5682    5685    5688      50    5682    5685    5691      50    5853    5850
    5856       3    5850    5856    5859       5    5847    5844    5850       6
    5847    5844    5862       7    5844    5850    5853       6    5829    5826
    5832      10    5823    5826    5829      12    5823    5826    5832      12
    5820    5817    5823      84    5814    5811    5817      87    5811    5817
    5820      89    5808    5811    5814      91    5805    5802    5808      34
    5805    5802    5850      35    5802    5850    5853       6    5799    5802
    5805      39    5796    5793    5799       7    5796    5793    5844       6
    5793    5844    5847       6    5790    5784    5793      42    5787    5784
    5790      43    5787    5784    5793      42    5784    5793    5796      44
    5781    5784    5787      50    5781    5784    5790      50    5943    5940
    5946       3    5940    5946    5949       5    5937    5934    5940       6
    5937    5934    5952       7    5934    5940    5943       6    5925    5922
    5928      19    5916    5922    5925      19    5913    5910    5916      69
    5907    5904    5910      72    5904    5910    5913      74    5901    5904
    5907      76    5898    5895    5901      34    5898    5895    5940      35
    5895    5940    5943       6    5892    5895    5898      39    5889    5886
    5892       7    5889    5886    5934       6    5886    5934    5937       6
    5883    5877    5886      42    5880    5877    5883      43    5880    5877
    5886      42    5877    5886    5889      44    5874    5877    5880      50
    5874    5877    5883      50    6042    6039    6045       3    6039    6045
    6048       5    6036    6033    6039       6    6036    6033    6051       7
    6033    6039    6042       6    6024    6021    6027      54    6018    6021
    6024      54    6012    6009    6015      10    6006    6009    6012      12
    6006    6009    6015      12    5997    5994    6000      62    5991    5994
    5997      65    5988    5985    5991      34    5988    5985    6039      35
    5985    6039    6042       6    5982    5985    5988      39    5979    5976
    5982       7    5979    5976    6033       6    5976    6033    6036       6
    5973    5967    5976      42    5970    5967    5973      43    5970    5967
    5976      42    5967    5976    5979      44    5964    5967    5970      50
    5964    5967    5973      50    6132    6129    6135       3    6129    6135
    6138       5    6126    6123    6129       6    6126    6123    6141       7
    6123    6129    6132       6    6114    6111    6117      19    6105    6111
    6114      19    6102    6099    6105      69    6096    6093    6099      72
    6093    6099    6102      74    6090    6093    6096      76    6087    6084
    6090      34    6087    6084    6129      35    6084    6129    6132       6
    6081    6084    6087      39    6078    6075    6081       7    6078    6075
    6123       6    6075    6123    6126       6    6072    6066    6075      42
    6069    6066    6072      43    6069    6066    6075      42    6066    6075
    6078      44    6063    6066    6069      50    6063    6066    6072      50
    6234    6231    6237       3    6231    6237    6240       5    6228    6225
    6231       6    6228    6225    6243       7    6225    6231    6234       6
    6213    6210    6216      10    6207    6210    6213      12    6207    6210
    6216      12    6204    6201    6207      14    6195    6201    6204      19
    6186    6183    6189      26    6180    6183    6186      30    6177    6174
    6180      34    6177    6174    6231      35    6174    6231    6234       6
    6171    6174    6177      39    6168    6165    6171       7    6168    6165
    6225       6    6165    6225    6228       6    6162    6156    6165      42
    6159    6156    6162      43    6159    6156    6165      42    6156    6165
    6168      44    6153    6156    6159      50    6153    6156    6162      50
    6336    6333    6339       3    6333    6339    6342       5    6330    6327
    6333       6    6330    6327    6345       7    6327    6333    6336       6
    6315    6312    6318      10    6309    6312    6315      12    6309    6312
    6318      12    6306    6303    6309      14    6297    6303    6306      19
    6288    6285    6291      26    6282    6285    6288      30    6279    6276
    6282      34    6279    6276    6333      35    6276    6333    6336       6
    6273    6276    6279      39    6270    6267    6273       7    6270    6267
    6327       6    6267    6327    6330       6    6264    6258    6267      42
    6261    6258    6264      43    6261    6258    6267      42    6258    6267
    6270      44    6255    6258    6261      50    6255    6258    6264      50
    6426    6423    6429       3    6423    6429    6432       5    6420    6417
    6423       6    6420    6417    6435       7    6417    6423    6426       6
    6408    6405    6411      19    6399    6405    6408      19    6396    6393
    6399      69    6390    6387    6393      72    6387    6393    6396      74
    6384    6387    6390      76    6381    6378    6384      34    6381    6378
    6423      35    6378    6423    6426       6    6375    6378    6381      39
    6372    6369    6375       7    6372    6369    6417       6    6369    6417
    6420       6    6366    6360    6369      42    6363    6360    6366      43
    6363    6360    6369      42    6360    6369    6372      44    6357    6360
    6363      50    6357    6360    6366      50    6519    6516    6522       3
    6516    6522    6525       5    6513    6510    6516       6    6513    6510
    6528       3    6510    6516    6519       6    6510    6528    6531       5
    6495    6492    6498      10    6489    6492    6495      12    6489    6492
    6498      12    6486    6483    6489      84    6480    6477    6483      87
    6477    6483    6486      89    6474    6477    6480      91    6471    6468
    6474      34    6471    6468    6516      35    6468    6516    6519       6
    6465    6468    6471      39    6462    6459    6465       7    6462    6459
    6510       6    6459    6510    6513       6    6456    6450    6459      42
    6453    6450    6456      43    6453    6450    6459      42    6450    6459
    6462      44    6447    6450    6453      50    6447    6450    6456      50
    6966    6963    6972      95    6963    6966    6975      96    6960    6963
    6972      98    6954    6966    6975      96    6936    6933    6969     107
    6930    6933    6969     114
%FLAG ANGLES_WITHOUT_HYDROGEN                                                   
%FORMAT(10I8)                                                                   
      93      96      99       1      93      96     102       1      93      96
     105       2      81      75      93       4      75      81      87       8
      75      93      96       9      60      57      69      11      57      69
      72      13      51      57      60      15      51      57      69      16
      48      45      51      17      45      42      72      18      45      51
      57      20      42      45      48      21      42      45      51      22
      42      72      69      23      39      42      45      24      39      42
      72      25      33      30      72      27      33      39      42      28
      30      24      81      29      30      33      39      31      30      72
      42      32      30      72      69      33      24      30      33      36
      24      30      72      37      24      81      75      38      24      81
      87       8      21      15      75       4      21      24      30      40
      21      24      81       4      15      21      24      41      15      75
      81      38      15      75      93       4       6      15      21      45
       6      15      75      46       3       6      15      48     195     198
     201       1     195     198     204       1     195     198     207       2
     183     177     195       4     177     183     189       8     177     195
     198       9     162     159     171      11     159     171     174      13
     153     159     162      15     153     159     171      16     150     147
     153      17     147     144     174      18     147     153     159      20
     144     147     150      21     144     147     153      22     144     174
     171      23     141     144     147      24     141     144     174      25
     135     132     174      27     135     141     144      28     132     126
     183      29     132     135     141      31     132     174     144      32
     132     174     171      33     126     132     135      36     126     132
     174      37     126     183     177      38     126     183     189       8
     123     117     177       4     123     126     132      40     123     126
     183       4     117     123     126      41     117     177     183      38
     117     177     195       4     108     117     123      45     108     117
     177      46     105     108     117      51     102      96     105       1
      99      96     102      52      99      96     105       1      96     105
     108      53     294     297     300       1     294     297     303       1
     294     297     306       2     282     276     294       4     276     282
     288       8     276     294     297       9     264     270     273      55
     261     264     270      56     252     249     261      11     249     246
     273      57     249     261     264      58     246     249     252      59
     246     249     261      60     246     273     270      23     243     246
     249      61     243     246     273      25     237     234     273      63
     237     243     246      64     234     228     282      29     234     237
     243      66     234     273     246      32     234     273     270      33
     228     234     237      67     228     234     273      37     228     282
     276      38     228     282     288       8     225     219     276       4
     225     228     234      40     225     228     282       4     219     225
     228      41     219     276     282      38     219     276     294       4
     210     219     225      45     210     219     276      46     207     210
     219      51     204     198     207       1     201     198     204      52
     201     198     207       1     198     207     210      53     384     387
     390       1     384     387     393       1     384     387     396       2
     372     366     384       4     366     372     378       8     366     384
     387       9     354     360     363      17     351     348     354      17
     348     354     360      68     342     348     351      70     342     348
     354      71     336     333     360      73     336     342     348      75
     333     327     372      29     333     336     342      77     333     360
     354      78     333     360     363      79     327     333     336      80
     327     333     360      81     327     372     366      38     327     372
     378       8     324     318     366       4     324     327     333      40
     324     327     372       4     318     324     327      41     318     366
     372      38     318     366     384       4     309     318     324      45
     309     318     366      46     306     309     318      51     303     297
     306       1     300     297     303      52     300     297     306       1
     297     306     309      53     477     480     483       1     477     480
     486       1     477     480     489       2     465     459     477       4
     459     465     471       8     459     477     480       9     450     453
     456      82     441     438     450      11     438     450     453      83
     432     438     441      85     432     438     450      86     426     423
     453      88     426     432     438      90     423     417     465      29
     423     426     432      92     423     453     450      93     423     453
     456      79     417     423     426      94     417     423     453      81
     417     465     459      38     417     465     471       8     414     408
     459       4     414     417     423      40     414     417     465       4
     408     414     417      41     408     459     465      38     408     459
     477       4     399     408     414      45     399     408     459      46
     396     399     408      51     393     387     396       1     390     387
     393      52     390     387     396       1     387     396     399      53
     576     579     582       1     576     579     585       1     576     579
     588       2     564     558     576       4     558     564     570       8
     558     576     579       9     546     552     555      55     543     546
     552      56     534     531     543      11     531     528     555      57
     531     543     546      58     528     531     534      59     528     531
     543      60     528     555     552      23     525     528     531      61
     525     528     555      25     519     516     555      63     519     525
     528      64     516     510     564      29     516     519     525      66
     516     555     528      32     516     555     552      33     510     516
     519      67     510     516     555      37     510     564     558      38
     510     564     570       8     507     501     558       4     507     510
     516      40     507     510     564       4     501     507     510      41
     501     558     564      38     501     558     576       4     492     501
     507      45     492     501     558      46     489     492     501      51
     486     480     489       1     483     480     486      52     483     480
     489       1     480     489     492      53     666     669     672       1
     666     669     675       1     666     669     678       2     654     648
     666       4     648     654     660       8     648     666     669       9
     636     642     645      17     633     630     636      17     630     636
     642      68     624     630     633      70     624     630     636      71
     618     615     642      73     618     624     630      75     615     609
     654      29     615     618     624      77     615     642     636      78
     615     642     645      79     609     615     618      80     609     615
     642      81     609     654     648      38     609     654     660       8
     606     600     648       4     606     609     615      40     606     609
     654       4     600     606     609      41     600     648     654      38
     600     648     666       4     591     600     606      45     591     600
     648      46     588     591     600      51     585     579     588       1
     582     579     585      52     582     579     588       1     579     588
     591      53     765     768     771       1     765     768     774       1
     765     768     777       2     753     747     765       4     747     753
     759       8     747     765     768       9     735     741     744      55
     732     735     741      56     723     720     732      11     720     717
     744      57     720     732     735      58     717     720     723      59
     717     720     732      60     717     744     741      23     714     717
     720      61     714     717     744      25     708     705     744      63
     708     714     717      64     705     699     753      29     705     708
     714      66     705     744     717      32     705     744     741      33
     699     705     708      67     699     705     744      37     699     753
     747      38     699     753     759       8     696     690     747       4
     696     699     705      40     696     699     753       4     690     696
     699      41     690     747     753      38     690     747     765       4
     681     690     696      45     681     690     747      46     678     681
     690      51     675     669     678       1     672     669     675      52
     672     669     678       1     669     678     681      53     855     858
     861       1     855     858     864       1     855     858     867       2
     843     837     855       4     837     843     849       8     837     855
     858       9     825     831     834      17     822     819     825      17
     819     825     831      68     813     819     822      70     813     819
     825      71     807     804     831      73     807     813     819      75
     804     798     843      29     804     807     813      77     804     831
     825      78     804     831     834      79     798     804     807      80
     798     804     831      81     798     843     837      38     798     843
     849       8     795     789     837       4     795     798     804      40
     795     798     843       4     789     795     798      41     789     837
     843      38     789     837     855       4     780     789     795      45
     780     789     837      46     777     780     789      51     774     768
     777       1     771     768     774      52     771     768     777       1
     768     777     780      53     954     957     960       1     954     957
     963       1     954     957     966       2     942     936     954       4
     936     942     948       8     936     954     957       9     924     930
     933      55     921     924     930      56     912     909     921      11
     909     906     933      57     909     921     924      58     906     909
     912      59     906     909     921      60     906     933     930      23
     903     906     909      61     903     906     933      25     897     894
     933      63     897     903     906      64     894     888     942      29
     894     897     903      66     894     933     906      32     894     933
     930      33     888     894     897      67     888     894     933      37
     888     942     936      38     888     942     948       8     885     879
     936       4     885     888     894      40     885     888     942       4
     879     885     888      41     879     936     942      38     879     936
     954       4     870     879     885      45     870     879     936      46
     867     870     879      51     864     858     867       1     861     858
     864      52     861     858     867       1     858     867     870      53
    1053    1056    1059       1    1053    1056    1062       1    1053    1056
    1065       2    1041    1035    1053       4    1035    1041    1047       8
    1035    1053    1056       9    1023    1029    1032      55    1020    1023
    1029      56    1011    1008    1020      11    1008    1005    1032      57
    1008    1020    1023      58    1005    1008    1011      59    1005    1008
    1020      60    1005    1032    1029      23    1002    1005    1008      61
    1002    1005    1032      25     996     993    1032      63     996    1002
    1005      64     993     987    1041      29     993     996    1002      66
     993    1032    1005      32     993    1032    1029      33     987     993
     996      67     987     993    1032      37     987    1041    1035      38
     987    1041    1047       8     984     978    1035       4     984     987
     993      40     984     987    1041       4     978     984     987      41
     978    1035    1041      38     978    1035    1053       4     969     978
     984      45     969     978    1035      46     966     969     978      51
     963     957     966       1     960     957     963      52     960     957
     966       1     957     966     969      53    1143    1146    1149       1
    1143    1146    1152       1    1143    1146    1155       2    1131    1125
    1143       4    1125    1131    1137       8    1125    1143    1146       9
    1113    1119    1122      17    1110    1107    1113      17    1107    1113
    1119      68    1101    1107    1110      70    1101    1107    1113      71
    1095    1092    1119      73    1095    1101    1107      75    1092    1086
    1131      29    1092    1095    1101      77    1092    1119    1113      78
    1092    1119    1122      79    1086    1092    1095      80    1086    1092
    1119      81    1086    1131    1125      38    1086    1131    1137       8
    1083    1077    1125       4    1083    1086    1092      40    1083    1086
    1131       4    1077    1083    1086      41    1077    1125    1131      38
    1077    1125    1143       4    1068    1077    1083      45    1068    1077
    1125      46    1065    1068    1077      51    1062    1056    1065       1
    1059    1056    1062      52    1059    1056    1065       1    1056    1065
    1068      53    1236    1239    1242       1    1236    1239    1245       1
    1236    1239    1248       2    1224    1218    1236       4    1218    1224
    1230       8    1218    1236    1239       9    1209    1212    1215      82
    1200    1197    1209      11    1197    1209    1212      83    1191    1197
    1200      85    1191    1197    1209      86    1185    1182    1212      88
    1185    1191    1197      90    1182    1176    1224      29    1182    1185
    1191      92    1182    1212    1209      93    1182    1212    1215      79
    1176    1182    1185      94    1176    1182    1212      81    1176    1224
    1218      38    1176    1224    1230       8    1173    1167    1218       4
    1173    1176    1182      40    1173    1176    1224       4    1167    1173
    1176      41    1167    1218    1224      38    1167    1218    1236       4
    1158    1167    1173      45    1158    1167    1218      46    1155    1158
    1167      51    1152    1146    1155       1    1149    1146    1152      52
    1149    1146    1155       1    1146    1155    1158      53    1338    1341
    1344       1    1338    1341    1347       1    1338    1341    1350       2
    1326    1320    1338       4    1320    1326    1332       8    1320    1338
    1341       9    1305    1302    1314      11    1302    1314    1317      13
    1296    1302    1305      15    1296    1302    1314      16    1293    1290
    1296      17    1290    1287    1317      18    1290    1296    1302      20
    1287    1290    1293      21    1287    1290    1296      22    1287    1317
    1314      23    1284    1287    1290      24    1284    1287    1317      25
    1278    1275    1317      27    1278    1284    1287      28    1275    1269
    1326      29    1275    1278    1284      31    1275    1317    1287      32
    1275    1317    1314      33    1269    1275    1278      36    1269    1275
    1317      37    1269    1326    1320      38    1269    1326    1332       8
    1266    1260    1320       4    1266    1269    1275      40    1266    1269
    1326       4    1260    1266    1269      41    1260    1320    1326      38
    1260    1320    1338       4    1251    1260    1266      45    1251    1260
    1320      46    1248    1251    1260      51    1245    1239    1248       1
    1242    1239    1245      52    1242    1239    1248       1    1239    1248
    1251      53    1431    1434    1437       1    1431    1434    1440       1
    1431    1434    1443       2    1419    1413    1431       4    1413    1419
    1425       8    1413    1431    1434       9    1404    1407    1410      82
    1395    1392    1404      11    1392    1404    1407      83    1386    1392
    1395      85    1386    1392    1404      86    1380    1377    1407      88
    1380    1386    1392      90    1377    1371    1419      29    1377    1380
    1386      92    1377    1407    1404      93    1377    1407    1410      79
    1371    1377    1380      94    1371    1377    1407      81    1371    1419
    1413      38    1371    1419    1425       8    1368    1362    1413       4
    1368    1371    1377      40    1368    1371    1419       4    1362    1368
    1371      41    1362    1413    1419      38    1362    1413    1431       4
    1353    1362    1368      45    1353    1362    1413      46    1350    1353
    1362      51    1347    1341    1350       1    1344    1341    1347      52
    1344    1341    1350       1    1341    1350    1353      53    1533    1536
    1539       1    1533    1536    1542       1    1533    1536    1545       2
    1521    1515    1533       4    1515    1521    1527       8    1515    1533
    1536       9    1500    1497    1509      11    1497    1509    1512      13
    1491    1497    1500      15    1491    1497    1509      16    1488    1485
    1491      17    1485    1482    1512      18    1485    1491    1497      20
    1482    1485    1488      21    1482    1485    1491      22    1482    1512
    1509      23    1479    1482    1485      24    1479    1482    1512      25
    1473    1470    1512      27    1473    1479    1482      28    1470    1464
    1521      29    1470    1473    1479      31    1470    1512    1482      32
    1470    1512    1509      33    1464    1470    1473      36    1464    1470
    1512      37    1464    1521    1515      38    1464    1521    1527       8
    1461    1455    1515       4    1461    1464    1470      40    1461    1464
    1521       4    1455    1461    1464      41    1455    1515    1521      38
    1455    1515    1533       4    1446    1455    1461      45    1446    1455
    1515      46    1443    1446    1455      51    1440    1434    1443       1
    1437    1434    1440      52    1437    1434    1443       1    1434    1443
    1446      53    1623    1626    1629       1    1623    1626    1632       1
    1623    1626    1635       2    1611    1605    1623       4    1605    1611
    1617       8    1605    1623    1626       9    1593    1599    1602      17
    1590    1587    1593      17    1587    1593    1599      68    1581    1587
    1590      70    1581    1587    1593      71    1575    1572    1599      73
    1575    1581    1587      75    1572    1566    1611      29    1572    1575
    1581      77    1572    1599    1593      78    1572    1599    1602      79
    1566    1572    1575      80    1566    1572    1599      81    1566    1611
    1605      38    1566    1611    1617       8    1563    1557    1605       4
    1563    1566    1572      40    1563    1566    1611       4    1557    1563
    1566      41    1557    1605    1611      38    1557    1605    1623       4
    1548    1557    1563      45    1548    1557    1605      46    1545    1548
    1557      51    1542    1536    1545       1    1539    1536    1542      52
    1539    1536    1545       1    1536    1545    1548      53    1725    1728
    1731       1    1725    1728    1734       1    1725    1728    1737       2
    1713    1707    1725       4    1707    1713    1719       8    1707    1725
    1728       9    1692    1689    1701      11    1689    1701    1704      13
    1683    1689    1692      15    1683    1689    1701      16    1680    1677
    1683      17    1677    1674    1704      18    1677    1683    1689      20
    1674    1677    1680      21    1674    1677    1683      22    1674    1704
    1701      23    1671    1674    1677      24    1671    1674    1704      25
    1665    1662    1704      27    1665    1671    1674      28    1662    1656
    1713      29    1662    1665    1671      31    1662    1704    1674      32
    1662    1704    1701      33    1656    1662    1665      36    1656    1662
    1704      37    1656    1713    1707      38    1656    1713    1719       8
    1653    1647    1707       4    1653    1656    1662      40    1653    1656
    1713       4    1647    1653    1656      41    1647    1707    1713      38
    1647    1707    1725       4    1638    1647    1653      45    1638    1647
    1707      46    1635    1638    1647      51    1632    1626    1635       1
    1629    1626    1632      52    1629    1626    1635       1    1626    1635
    1638      53    1827    1830    1833       1    1827    1830    1836       1
    1827    1830    1839       2    1815    1809    1827       4    1809    1815
    1821       8    1809    1827    1830       9    1794    1791    1803      11
    1791    1803    1806      13    1785    1791    1794      15    1785    1791
    1803      16    1782    1779    1785      17    1779    1776    1806      18
    1779    1785    1791      20    1776    1779    1782      21    1776    1779
    1785      22    1776    1806    1803      23    1773    1776    1779      24
    1773    1776    1806      25    1767    1764    1806      27    1767    1773
    1776      28    1764    1758    1815      29    1764    1767    1773      31
    1764    1806    1776      32    1764    1806    1803      33    1758    1764
    1767      36    1758    1764    1806      37    1758    1815    1809      38
    1758    1815    1821       8    1755    1749    1809       4    1755    1758
    1764      40    1755    1758    1815       4    1749    1755    1758      41
    1749    1809    1815      38    1749    1809    1827       4    1740    1749
    1755      45    1740    1749    1809      46    1737    1740    1749      51
    1734    1728    1737       1    1731    1728    1734      52    1731    1728
    1737       1    1728    1737    1740      53    1926    1929    1932       1
    1926    1929    1935       1    1926    1929    1938       2    1914    1908
    1926       4    1908    1914    1920       8    1908    1926    1929       9
    1896    1902    1905      55    1893    1896    1902      56    1884    1881
    1893      11    1881    1878    1905      57    1881    1893    1896      58
    1878    1881    1884      59    1878    1881    1893      60    1878    1905
    1902      23    1875    1878    1881      61    1875    1878    1905      25
    1869    1866    1905      63    1869    1875    1878      64    1866    1860
    1914      29    1866    1869    1875      66    1866    1905    1878      32
    1866    1905    1902      33    1860    1866    1869      67    1860    1866
    1905      37    1860    1914    1908      38    1860    1914    1920       8
    1857    1851    1908       4    1857    1860    1866      40    1857    1860
    1914       4    1851    1857    1860      41    1851    1908    1914      38
    1851    1908    1926       4    1842    1851    1857      45    1842    1851
    1908      46    1839    1842    1851      51    1836    1830    1839       1
    1833    1830    1836      52    1833    1830    1839       1    1830    1839
    1842      53    2016    2019    2022       1    2016    2019    2025       1
    2016    2019    2028       2    2004    1998    2016       4    1998    2004
    2010       8    1998    2016    2019       9    1986    1992    1995      17
    1983    1980    1986      17    1980    1986    1992      68    1974    1980
    1983      70    1974    1980    1986      71    1968    1965    1992      73
    1968    1974    1980      75    1965    1959    2004      29    1965    1968
    1974      77    1965    1992    1986      78    1965    1992    1995      79
    1959    1965    1968      80    1959    1965    1992      81    1959    2004
    1998      38    1959    2004    2010       8    1956    1950    1998       4
    1956    1959    1965      40    1956    1959    2004       4    1950    1956
    1959      41    1950    1998    2004      38    1950    1998    2016       4
    1941    1950    1956      45    1941    1950    1998      46    1938    1941
    1950      51    1935    1929    1938       1    1932    1929    1935      52
    1932    1929    1938       1    1929    1938    1941      53    2115    2118
    2121       1    2115    2118    2124       1    2115    2118    2127       2
    2103    2097    2115       4    2097    2103    2109       8    2097    2115
    2118       9    2085    2091    2094      55    2082    2085    2091      56
    2073    2070    2082      11    2070    2067    2094      57    2070    2082
    2085      58    2067    2070    2073      59    2067    2070    2082      60
    2067    2094    2091      23    2064    2067    2070      61    2064    2067
    2094      25    2058    2055    2094      63    2058    2064    2067      64
    2055    2049    2103      29    2055    2058    2064      66    2055    2094
    2067      32    2055    2094    2091      33    2049    2055    2058      67
    2049    2055    2094      37    2049    2103    2097      38    2049    2103
    2109       8    2046    2040    2097       4    2046    2049    2055      40
    2046    2049    2103       4    2040    2046    2049      41    2040    2097
    2103      38    2040    2097    2115       4    2031    2040    2046      45
    2031    2040    2097      46    2028    2031    2040      51    2025    2019
    2028       1    2022    2019    2025      52    2022    2019    2028       1
    2019    2028    2031      53    2205    2208    2211       1    2205    2208
    2214       1    2205    2208    2217       2    2193    2187    2205       4
    2187    2193    2199       8    2187    2205    2208       9    2175    2181
    2184      17    2172    2169    2175      17    2169    2175    2181      68
    2163    2169    2172      70    2163    2169    2175      71    2157    2154
    2181      73    2157    2163    2169      75    2154    2148    2193      29
    2154    2157    2163      77    2154    2181    2175      78    2154    2181
    2184      79    2148    2154    2157      80    2148    2154    2181      81
    2148    2193    2187      38    2148    2193    2199       8    2145    2139
    2187       4    2145    2148    2154      40    2145    2148    2193       4
    2139    2145    2148      41    2139    2187    2193      38    2139    2187
    2205       4    2130    2139    2145      45    2130    2139    2187      46
    2127    2130    2139      51    2124    2118    2127       1    2121    2118
    2124      52    2121    2118    2127       1    2118    2127    2130      53
    2307    2310    2313       1    2307    2310    2316       1    2307    2310
    2319       2    2295    2289    2307       4    2289    2295    2301       8
    2289    2307    2310       9    2274    2271    2283      11    2271    2283
    2286      13    2265    2271    2274      15    2265    2271    2283      16
    2262    2259    2265      17    2259    2256    2286      18    2259    2265
    2271      20    2256    2259    2262      21    2256    2259    2265      22
    2256    2286    2283      23    2253    2256    2259      24    2253    2256
    2286      25    2247    2244    2286      27    2247    2253    2256      28
    2244    2238    2295      29    2244    2247    2253      31    2244    2286
    2256      32    2244    2286    2283      33    2238    2244    2247      36
    2238    2244    2286      37    2238    2295    2289      38    2238    2295
    2301       8    2235    2229    2289       4    2235    2238    2244      40
    2235    2238    2295       4    2229    2235    2238      41    2229    2289
    2295      38    2229    2289    2307       4    2220    2229    2235      45
    2220    2229    2289      46    2217    2220    2229      51    2214    2208
    2217       1    2211    2208    2214      52    2211    2208    2217       1
    2208    2217    2220      53    2409    2412    2415       1    2409    2412
    2418       1    2409    2412    2421       2    2397    2391    2409       4
    2391    2397    2403       8    2391    2409    2412       9    2376    2373
    2385      11    2373    2385    2388      13    2367    2373    2376      15
    2367    2373    2385      16    2364    2361    2367      17    2361    2358
    2388      18    2361    2367    2373      20    2358    2361    2364      21
    2358    2361    2367      22    2358    2388    2385      23    2355    2358
    2361      24    2355    2358    2388      25    2349    2346    2388      27
    2349    2355    2358      28    2346    2340    2397      29    2346    2349
    2355      31    2346    2388    2358      32    2346    2388    2385      33
    2340    2346    2349      36    2340    2346    2388      37    2340    2397
    2391      38    2340    2397    2403       8    2337    2331    2391       4
    2337    2340    2346      40    2337    2340    2397       4    2331    2337
    2340      41    2331    2391    2397      38    2331    2391    2409       4
    2322    2331    2337      45    2322    2331    2391      46    2319    2322
    2331      51    2316    2310    2319       1    2313    2310    2316      52
    2313    2310    2319       1    2310    2319    2322      53    2502    2505
    2508       1    2502    2505    2511       1    2502    2505    2514       2
    2490    2484    2502       4    2484    2490    2496       8    2484    2502
    2505       9    2475    2478    2481      82    2466    2463    2475      11
    2463    2475    2478      83    2457    2463    2466      85    2457    2463
    2475      86    2451    2448    2478      88    2451    2457    2463      90
    2448    2442    2490      29    2448    2451    2457      92    2448    2478
    2475      93    2448    2478    2481      79    2442    2448    2451      94
    2442    2448    2478      81    2442    2490    2484      38    2442    2490
    2496       8    2439    2433    2484       4    2439    2442    2448      40
    2439    2442    2490       4    2433    2439    2442      41    2433    2484
    2490      38    2433    2484    2502       4    2424    2433    2439      45
    2424    2433    2484      46    2421    2424    2433      51    2418    2412
    2421       1    2415    2412    2418      52    2415    2412    2421       1
    2412    2421    2424      53    2601    2604    2607       1    2601    2604
    2610       1    2601    2604    2613       2    2589    2583    2601       4
    2583    2589    2595       8    2583    2601    2604       9    2571    2577
    2580      55    2568    2571    2577      56    2559    2556    2568      11
    2556    2553    2580      57    2556    2568    2571      58    2553    2556
    2559      59    2553    2556    2568      60    2553    2580    2577      23
    2550    2553    2556      61    2550    2553    2580      25    2544    2541
    2580      63    2544    2550    2553      64    2541    2535    2589      29
    2541    2544    2550      66    2541    2580    2553      32    2541    2580
    2577      33    2535    2541    2544      67    2535    2541    2580      37
    2535    2589    2583      38    2535    2589    2595       8    2532    2526
    2583       4    2532    2535    2541      40    2532    2535    2589       4
    2526    2532    2535      41    2526    2583    2589      38    2526    2583
    2601       4    2517    2526    2532      45    2517    2526    2583      46
    2514    2517    2526      51    2511    2505    2514       1    2508    2505
    2511      52    2508    2505    2514       1    2505    2514    2517      53
    2694    2697    2700       1    2694    2697    2703       1    2694    2697
    2706       2    2682    2676    2694       4    2676    2682    2688       8
    2676    2694    2697       9    2667    2670    2673      82    2658    2655
    2667      11    2655    2667    2670      83    2649    2655    2658      85
    2649    2655    2667      86    2643    2640    2670      88    2643    2649
    2655      90    2640    2634    2682      29    2640    2643    2649      92
    2640    2670    2667      93    2640    2670    2673      79    2634    2640
    2643      94    2634    2640    2670      81    2634    2682    2676      38
    2634    2682    2688       8    2631    2625    2676       4    2631    2634
    2640      40    2631    2634    2682       4    2625    2631    2634      41
    2625    2676    2682      38    2625    2676    2694       4    2616    2625
    2631      45    2616    2625    2676      46    2613    2616    2625      51
    2610    2604    2613       1    2607    2604    2610      52    2607    2604
    2613       1    2604    2613    2616      53    2796    2799    2802       1
    2796    2799    2805       1    2796    2799    2808       2    2784    2778
    2796       4    2778    2784    2790       8    2778    2796    2799       9
    2763    2760    2772      11    2760    2772    2775      13    2754    2760
    2763      15    2754    2760    2772      16    2751    2748    2754      17
    2748    2745    2775      18    2748    2754    2760      20    2745    2748
    2751      21    2745    2748    2754      22    2745    2775    2772      23
    2742    2745    2748      24    2742    2745    2775      25    2736    2733
    2775      27    2736    2742    2745      28    2733    2727    2784      29
    2733    2736    2742      31    2733    2775    2745      32    2733    2775
    2772      33    2727    2733    2736      36    2727    2733    2775      37
    2727    2784    2778      38    2727    2784    2790       8    2724    2718
    2778       4    2724    2727    2733      40    2724    2727    2784       4
    2718    2724    2727      41    2718    2778    2784      38    2718    2778
    2796       4    2709    2718    2724      45    2709    2718    2778      46
    2706    2709    2718      51    2703    2697    2706       1    2700    2697
    2703      52    2700    2697    2706       1    2697    2706    2709      53
    2889    2892    2895       1    2889    2892    2898       1    2889    2892
    2901       2    2877    2871    2889       4    2871    2877    2883       8
    2871    2889    2892       9    2862    2865    2868      82    2853    2850
    2862      11    2850    2862    2865      83    2844    2850    2853      85
    2844    2850    2862      86    2838    2835    2865      88    2838    2844
    2850      90    2835    2829    2877      29    2835    2838    2844      92
    2835    2865    2862      93    2835    2865    2868      79    2829    2835
    2838      94    2829    2835    2865      81    2829    2877    2871      38
    2829    2877    2883       8    2826    2820    2871       4    2826    2829
    2835      40    2826    2829    2877       4    2820    2826    2829      41
    2820    2871    2877      38    2820    2871    2889       4    2811    2820
    2826      45    2811    2820    2871      46    2808    2811    2820      51
    2805    2799    2808       1    2802    2799    2805      52    2802    2799
    2808       1    2799    2808    2811      53    2988    2991    2994       1
    2988    2991    2997       1    2988    2991    3000       2    2976    2970
    2988       4    2970    2976    2982       8    2970    2988    2991       9
    2958    2964    2967      55    2955    2958    2964      56    2946    2943
    2955      11    2943    2940    2967      57    2943    2955    2958      58
    2940    2943    2946      59    2940    2943    2955      60    2940    2967
    2964      23    2937    2940    2943      61    2937    2940    2967      25
    2931    2928    2967      63    2931    2937    2940      64    2928    2922
    2976      29    2928    2931    2937      66    2928    2967    2940      32
    2928    2967    2964      33    2922    2928    2931      67    2922    2928
    2967      37    2922    2976    2970      38    2922    2976    2982       8
    2919    2913    2970       4    2919    2922    2928      40    2919    2922
    2976       4    2913    2919    2922      41    2913    2970    2976      38
    2913    2970    2988       4    2904    2913    2919      45    2904    2913
    2970      46    2901    2904    2913      51    2898    2892    2901       1
    2895    2892    2898      52    2895    2892    2901       1    2892    2901
    2904      53    3087    3090    3093       1    3087    3090    3096       1
    3087    3090    3099       2    3075    3069    3087       4    3069    3075
    3081       8    3069    3087    3090       9    3057    3063    3066      55
    3054    3057    3063      56    3045    3042    3054      11    3042    3039
    3066      57    3042    3054    3057      58    3039    3042    3045      59
    3039    3042    3054      60    3039    3066    3063      23    3036    3039
    3042      61    3036    3039    3066      25    3030    3027    3066      63
    3030    3036    3039      64    3027    3021    3075      29    3027    3030
    3036      66    3027    3066    3039      32    3027    3066    3063      33
    3021    3027    3030      67    3021    3027    3066      37    3021    3075
    3069      38    3021    3075    3081       8    3018    3012    3069       4
    3018    3021    3027      40    3018    3021    3075       4    3012    3018
    3021      41    3012    3069    3075      38    3012    3069    3087       4
    3003    3012    3018      45    3003    3012    3069      46    3000    3003
    3012      51    2997    2991    3000       1    2994    2991    2997      52
    2994    2991    3000       1    2991    3000    3003      53    3189    3192
    3195       1    3189    3192    3198       1    3189    3192    3201       2
    3177    3171    3189       4    3171    3177    3183       8    3171    3189
    3192       9    3156    3153    3165      11    3153    3165    3168      13
    3147    3153    3156      15    3147    3153    3165      16    3144    3141
    3147      17    3141    3138    3168      18    3141    3147    3153      20
    3138    3141    3144      21    3138    3141    3147      22    3138    3168
    3165      23    3135    3138    3141      24    3135    3138    3168      25
    3129    3126    3168      27    3129    3135    3138      28    3126    3120
    3177      29    3126    3129    3135      31    3126    3168    3138      32
    3126    3168    3165      33    3120    3126    3129      36    3120    3126
    3168      37    3120    3177    3171      38    3120    3177    3183       8
    3117    3111    3171       4    3117    3120    3126      40    3117    3120
    3177       4    3111    3117    3120      41    3111    3171    3177      38
    3111    3171    3189       4    3102    3111    3117      45    3102    3111
    3171      46    3099    3102    3111      51    3096    3090    3099       1
    3093    3090    3096      52    3093    3090    3099       1    3090    3099
    3102      53    3279    3282    3285       1    3279    3282    3288       1
    3279    3282    3291       2    3267    3261    3279       4    3261    3267
    3273       8    3261    3279    3282       9    3249    3255    3258      17
    3246    3243    3249      17    3243    3249    3255      68    3237    3243
    3246      70    3237    3243    3249      71    3231    3228    3255      73
    3231    3237    3243      75    3228    3222    3267      29    3228    3231
    3237      77    3228    3255    3249      78    3228    3255    3258      79
    3222    3228    3231      80    3222    3228    3255      81    3222    3267
    3261      38    3222    3267    3273       8    3219    3213    3261       4
    3219    3222    3228      40    3219    3222    3267       4    3213    3219
    3222      41    3213    3261    3267      38    3213    3261    3279       4
    3204    3213    3219      45    3204    3213    3261      46    3201    3204
    3213      51    3198    3192    3201       1    3195    3192    3198      52
    3195    3192    3201       1    3192    3201    3204      53    3369    3372
    3375       1    3369    3372    3378       1    3369    3372    3381       2
    3357    3351    3369       4    3351    3357    3363       8    3351    3369
    3372       9    3339    3345    3348      17    3336    3333    3339      17
    3333    3339    3345      68    3327    3333    3336      70    3327    3333
    3339      71    3321    3318    3345      73    3321    3327    3333      75
    3318    3312    3357      29    3318    3321    3327      77    3318    3345
    3339      78    3318    3345    3348      79    3312    3318    3321      80
    3312    3318    3345      81    3312    3357    3351      38    3312    3357
    3363       8    3309    3303    3351       4    3309    3312    3318      40
    3309    3312    3357       4    3303    3309    3312      41    3303    3351
    3357      38    3303    3351    3369       4    3294    3303    3309      45
    3294    3303    3351      46    3291    3294    3303      51    3288    3282
    3291       1    3285    3282    3288      52    3285    3282    3291       1
    3282    3291    3294      53    3459    3462    3465       1    3459    3462
    3468       1    3459    3462    3471       2    3447    3441    3459       4
    3441    3447    3453       8    3441    3459    3462       9    3429    3435
    3438      17    3426    3423    3429      17    3423    3429    3435      68
    3417    3423    3426      70    3417    3423    3429      71    3411    3408
    3435      73    3411    3417    3423      75    3408    3402    3447      29
    3408    3411    3417      77    3408    3435    3429      78    3408    3435
    3438      79    3402    3408    3411      80    3402    3408    3435      81
    3402    3447    3441      38    3402    3447    3453       8    3399    3393
    3441       4    3399    3402    3408      40    3399    3402    3447       4
    3393    3399    3402      41    3393    3441    3447      38    3393    3441
    3459       4    3384    3393    3399      45    3384    3393    3441      46
    3381    3384    3393      51    3378    3372    3381       1    3375    3372
    3378      52    3375    3372    3381       1    3372    3381    3384      53
    3552    3555    3558       1    3552    3555    3561       1    3552    3555
    3564       2    3540    3534    3552       4    3534    3540    3546       8
    3534    3552    3555       9    3525    3528    3531      82    3516    3513
    3525      11    3513    3525    3528      83    3507    3513    3516      85
    3507    3513    3525      86    3501    3498    3528      88    3501    3507
    3513      90    3498    3492    3540      29    3498    3501    3507      92
    3498    3528    3525      93    3498    3528    3531      79    3492    3498
    3501      94    3492    3498    3528      81    3492    3540    3534      38
    3492    3540    3546       8    3489    3483    3534       4    3489    3492
    3498      40    3489    3492    3540       4    3483    3489    3492      41
    3483    3534    3540      38    3483    3534    3552       4    3474    3483
    3489      45    3474    3483    3534      46    3471    3474    3483      51
    3468    3462    3471       1    3465    3462    3468      52    3465    3462
    3471       1    3462    3471    3474      53    3642    3645    3648       1
    3642    3645    3651       1    3642    3645    3654       2    3630    3624
    3642       4    3624    3630    3636       8    3624    3642    3645       9
    3612    3618    3621      17    3609    3606    3612      17    3606    3612
    3618      68    3600    3606    3609      70    3600    3606    3612      71
    3594    3591    3618      73    3594    3600    3606      75    3591    3585
    3630      29    3591    3594    3600      77    3591    3618    3612      78
    3591    3618    3621      79    3585    3591    3594      80    3585    3591
    3618      81    3585    3630    3624      38    3585    3630    3636       8
    3582    3576    3624       4    3582    3585    3591      40    3582    3585
    3630       4    3576    3582    3585      41    3576    3624    3630      38
    3576    3624    3642       4    3567    3576    3582      45    3567    3576
    3624      46    3564    3567    3576      51    3561    3555    3564       1
    3558    3555    3561      52    3558    3555    3564       1    3555    3564
    3567      53    3741    3744    3747       1    3741    3744    3750       1
    3741    3744    3753       2    3729    3723    3741       4    3723    3729
    3735       8    3723    3741    3744       9    3711    3717    3720      55
    3708    3711    3717      56    3699    3696    3708      11    3696    3693
    3720      57    3696    3708    3711      58    3693    3696    3699      59
    3693    3696    3708      60    3693    3720    3717      23    3690    3693
    3696      61    3690    3693    3720      25    3684    3681    3720      63
    3684    3690    3693      64    3681    3675    3729      29    3681    3684
    3690      66    3681    3720    3693      32    3681    3720    3717      33
    3675    3681    3684      67    3675    3681    3720      37    3675    3729
    3723      38    3675    3729    3735       8    3672    3666    3723       4
    3672    3675    3681      40    3672    3675    3729       4    3666    3672
    3675      41    3666    3723    3729      38    3666    3723    3741       4
    3657    3666    3672      45    3657    3666    3723      46    3654    3657
    3666      51    3651    3645    3654       1    3648    3645    3651      52
    3648    3645    3654       1    3645    3654    3657      53    3834    3837
    3840       1    3834    3837    3843       1    3834    3837    3846       2
    3822    3816    3834       4    3816    3822    3828       8    3816    3834
    3837       9    3807    3810    3813      82    3798    3795    3807      11
    3795    3807    3810      83    3789    3795    3798      85    3789    3795
    3807      86    3783    3780    3810      88    3783    3789    3795      90
    3780    3774    3822      29    3780    3783    3789      92    3780    3810
    3807      93    3780    3810    3813      79    3774    3780    3783      94
    3774    3780    3810      81    3774    3822    3816      38    3774    3822
    3828       8    3771    3765    3816       4    3771    3774    3780      40
    3771    3774    3822       4    3765    3771    3774      41    3765    3816
    3822      38    3765    3816    3834       4    3756    3765    3771      45
    3756    3765    3816      46    3753    3756    3765      51    3750    3744
    3753       1    3747    3744    3750      52    3747    3744    3753       1
    3744    3753    3756      53    3927    3930    3933       1    3927    3930
    3936       1    3927    3930    3939       2    3915    3909    3927       4
    3909    3915    3921       8    3909    3927    3930       9    3900    3903
    3906      82    3891    3888    3900      11    3888    3900    3903      83
    3882    3888    3891      85    3882    3888    3900      86    3876    3873
    3903      88    3876    3882    3888      90    3873    3867    3915      29
    3873    3876    3882      92    3873    3903    3900      93    3873    3903
    3906      79    3867    3873    3876      94    3867    3873    3903      81
    3867    3915    3909      38    3867    3915    3921       8    3864    3858
    3909       4    3864    3867    3873      40    3864    3867    3915       4
    3858    3864    3867      41    3858    3909    3915      38    3858    3909
    3927       4    3849    3858    3864      45    3849    3858    3909      46
    3846    3849    3858      51    3843    3837    3846       1    3840    3837
    3843      52    3840    3837    3846       1    3837    3846    3849      53
    4029    4032    4035       1    4029    4032    4038       1    4029    4032
    4041       2    4017    4011    4029       4    4011    4017    4023       8
    4011    4029    4032       9    3996    3993    4005      11    3993    4005
    4008      13    3987    3993    3996      15    3987    3993    4005      16
    3984    3981    3987      17    3981    3978    4008      18    3981    3987
    3993      20    3978    3981    3984      21    3978    3981    3987      22
    3978    4008    4005      23    3975    3978    3981      24    3975    3978
    4008      25    3969    3966    4008      27    3969    3975    3978      28
    3966    3960    4017      29    3966    3969    3975      31    3966    4008
    3978      32    3966    4008    4005      33    3960    3966    3969      36
    3960    3966    4008      37    3960    4017    4011      38    3960    4017
    4023       8    3957    3951    4011       4    3957    3960    3966      40
    3957    3960    4017       4    3951    3957    3960      41    3951    4011
    4017      38    3951    4011    4029       4    3942    3951    3957      45
    3942    3951    4011      46    3939    3942    3951      51    3936    3930
    3939       1    3933    3930    3936      52    3933    3930    3939       1
    3930    3939    3942      53    4131    4134    4137       1    4131    4134
    4140       1    4131    4134    4143       2    4119    4113    4131       4
    4113    4119    4125       8    4113    4131    4134       9    4098    4095
    4107      11    4095    4107    4110      13    4089    4095    4098      15
    4089    4095    4107      16    4086    4083    4089      17    4083    4080
    4110      18    4083    4089    4095      20    4080    4083    4086      21
    4080    4083    4089      22    4080    4110    4107      23    4077    4080
    4083      24    4077    4080    4110      25    4071    4068    4110      27
    4071    4077    4080      28    4068    4062    4119      29    4068    4071
    4077      31    4068    4110    4080      32    4068    4110    4107      33
    4062    4068    4071      36    4062    4068    4110      37    4062    4119
    4113      38    4062    4119    4125       8    4059    4053    4113       4
    4059    4062    4068      40    4059    4062    4119       4    4053    4059
    4062      41    4053    4113    4119      38    4053    4113    4131       4
    4044    4053    4059      45    4044    4053    4113      46    4041    4044
    4053      51    4038    4032    4041       1    4035    4032    4038      52
    4035    4032    4041       1    4032    4041    4044      53    4233    4236
    4239       1    4233    4236    4242       1    4233    4236    4245       2
    4221    4215    4233       4    4215    4221    4227       8    4215    4233
    4236       9    4200    4197    4209      11    4197    4209    4212      13
    4191    4197    4200      15    4191    4197    4209      16    4188    4185
    4191      17    4185    4182    4212      18    4185    4191    4197      20
    4182    4185    4188      21    4182    4185    4191      22    4182    4212
    4209      23    4179    4182    4185      24    4179    4182    4212      25
    4173    4170    4212      27    4173    4179    4182      28    4170    4164
    4221      29    4170    4173    4179      31    4170    4212    4182      32
    4170    4212    4209      33    4164    4170    4173      36    4164    4170
    4212      37    4164    4221    4215      38    4164    4221    4227       8
    4161    4155    4215       4    4161    4164    4170      40    4161    4164
    4221       4    4155    4161    4164      41    4155    4215    4221      38
    4155    4215    4233       4    4146    4155    4161      45    4146    4155
    4215      46    4143    4146    4155      51    4140    4134    4143       1
    4137    4134    4140      52    4137    4134    4143       1    4134    4143
    4146      53    4326    4329    4332       1    4326    4329    4335       1
    4326    4329    4338       2    4314    4308    4326       4    4308    4314
    4320       8    4308    4326    4329       9    4299    4302    4305      82
    4290    4287    4299      11    4287    4299    4302      83    4281    4287
    4290      85    4281    4287    4299      86    4275    4272    4302      88
    4275    4281    4287      90    4272    4266    4314      29    4272    4275
    4281      92    4272    4302    4299      93    4272    4302    4305      79
    4266    4272    4275      94    4266    4272    4302      81    4266    4314
    4308      38    4266    4314    4320       8    4263    4257    4308       4
    4263    4266    4272      40    4263    4266    4314       4    4257    4263
    4266      41    4257    4308    4314      38    4257    4308    4326       4
    4248    4257    4263      45    4248    4257    4308      46    4245    4248
    4257      51    4242    4236    4245       1    4239    4236    4242      52
    4239    4236    4245       1    4236    4245    4248      53    4425    4428
    4431       1    4425    4428    4434       1    4425    4428    4437       2
    4413    4407    4425       4    4407    4413    4419       8    4407    4425
    4428       9    4395    4401    4404      55    4392    4395    4401      56
    4383    4380    4392      11    4380    4377    4404      57    4380    4392
    4395      58    4377    4380    4383      59    4377    4380    4392      60
    4377    4404    4401      23    4374    4377    4380      61    4374    4377
    4404      25    4368    4365    4404      63    4368    4374    4377      64
    4365    4359    4413      29    4365    4368    4374      66    4365    4404
    4377      32    4365    4404    4401      33    4359    4365    4368      67
    4359    4365    4404      37    4359    4413    4407      38    4359    4413
    4419       8    4356    4350    4407       4    4356    4359    4365      40
    4356    4359    4413       4    4350    4356    4359      41    4350    4407
    4413      38    4350    4407    4425       4    4341    4350    4356      45
    4341    4350    4407      46    4338    4341    4350      51    4335    4329
    4338       1    4332    4329    4335      52    4332    4329    4338       1
    4329    4338    4341      53    4518    4521    4524       1    4518    4521
    4527       1    4518    4521    4530       2    4506    4500    4518       4
    4500    4506    4512       8    4500    4518    4521       9    4491    4494
    4497      82    4482    4479    4491      11    4479    4491    4494      83
    4473    4479    4482      85    4473    4479    4491      86    4467    4464
    4494      88    4467    4473    4479      90    4464    4458    4506      29
    4464    4467    4473      92    4464    4494    4491      93    4464    4494
    4497      79    4458    4464    4467      94    4458    4464    4494      81
    4458    4506    4500      38    4458    4506    4512       8    4455    4449
    4500       4    4455    4458    4464      40    4455    4458    4506       4
    4449    4455    4458      41    4449    4500    4506      38    4449    4500
    4518       4    4440    4449    4455      45    4440    4449    4500      46
    4437    4440    4449      51    4434    4428    4437       1    4431    4428
    4434      52    4431    4428    4437       1    4428    4437    4440      53
    4611    4614    4617       1    4611    4614    4620       1    4611    4614
    4623       2    4599    4593    4611       4    4593    4599    4605       8
    4593    4611    4614       9    4584    4587    4590      82    4575    4572
    4584      11    4572    4584    4587      83    4566    4572    4575      85
    4566    4572    4584      86    4560    4557    4587      88    4560    4566
    4572      90    4557    4551    4599      29    4557    4560    4566      92
    4557    4587    4584      93    4557    4587    4590      79    4551    4557
    4560      94    4551    4557    4587      81    4551    4599    4593      38
    4551    4599    4605       8    4548    4542    4593       4    4548    4551
    4557      40    4548    4551    4599       4    4542    4548    4551      41
    4542    4593    4599      38    4542    4593    4611       4    4533    4542
    4548      45    4533    4542    4593      46    4530    4533    4542      51
    4527    4521    4530       1    4524    4521    4527      52    4524    4521
    4530       1    4521    4530    4533      53    4713    4716    4719       1
    4713    4716    4722       1    4713    4716    4725       2    4701    4695
    4713       4    4695    4701    4707       8    4695    4713    4716       9
    4680    4677    4689      11    4677    4689    4692      13    4671    4677
    4680      15    4671    4677    4689      16    4668    4665    4671      17
    4665    4662    4692      18    4665    4671    4677      20    4662    4665
    4668      21    4662    4665    4671      22    4662    4692    4689      23
    4659    4662    4665      24    4659    4662    4692      25    4653    4650
    4692      27    4653    4659    4662      28    4650    4644    4701      29
    4650    4653    4659      31    4650    4692    4662      32    4650    4692
    4689      33    4644    4650    4653      36    4644    4650    4692      37
    4644    4701    4695      38    4644    4701    4707       8    4641    4635
    4695       4    4641    4644    4650      40    4641    4644    4701       4
    4635    4641    4644      41    4635    4695    4701      38    4635    4695
    4713       4    4626    4635    4641      45    4626    4635    4695      46
    4623    4626    4635      51    4620    4614    4623       1    4617    4614
    4620      52    4617    4614    4623       1    4614    4623    4626      53
    4803    4806    4809       1    4803    4806    4812       1    4803    4806
    4815       2    4791    4785    4803       4    4785    4791    4797       8
    4785    4803    4806       9    4773    4779    4782      17    4770    4767
    4773      17    4767    4773    4779      68    4761    4767    4770      70
    4761    4767    4773      71    4755    4752    4779      73    4755    4761
    4767      75    4752    4746    4791      29    4752    4755    4761      77
    4752    4779    4773      78    4752    4779    4782      79    4746    4752
    4755      80    4746    4752    4779      81    4746    4791    4785      38
    4746    4791    4797       8    4743    4737    4785       4    4743    4746
    4752      40    4743    4746    4791       4    4737    4743    4746      41
    4737    4785    4791      38    4737    4785    4803       4    4728    4737
    4743      45    4728    4737    4785      46    4725    4728    4737      51
    4722    4716    4725       1    4719    4716    4722      52    4719    4716
    4725       1    4716    4725    4728      53    4902    4905    4908       1
    4902    4905    4911       1    4902    4905    4914       2    4890    4884
    4902       4    4884    4890    4896       8    4884    4902    4905       9
    4872    4878    4881      55    4869    4872    4878      56    4860    4857
    4869      11    4857    4854    4881      57    4857    4869    4872      58
    4854    4857    4860      59    4854    4857    4869      60    4854    4881
    4878      23    4851    4854    4857      61    4851    4854    4881      25
    4845    4842    4881      63    4845    4851    4854      64    4842    4836
    4890      29    4842    4845    4851      66    4842    4881    4854      32
    4842    4881    4878      33    4836    4842    4845      67    4836    4842
    4881      37    4836    4890    4884      38    4836    4890    4896       8
    4833    4827    4884       4    4833    4836    4842      40    4833    4836
    4890       4    4827    4833    4836      41    4827    4884    4890      38
    4827    4884    4902       4    4818    4827    4833      45    4818    4827
    4884      46    4815    4818    4827      51    4812    4806    4815       1
    4809    4806    4812      52    4809    4806    4815       1    4806    4815
    4818      53    5001    5004    5007       1    5001    5004    5010       1
    5001    5004    5013       2    4989    4983    5001       4    4983    4989
    4995       8    4983    5001    5004       9    4971    4977    4980      55
    4968    4971    4977      56    4959    4956    4968      11    4956    4953
    4980      57    4956    4968    4971      58    4953    4956    4959      59
    4953    4956    4968      60    4953    4980    4977      23    4950    4953
    4956      61    4950    4953    4980      25    4944    4941    4980      63
    4944    4950    4953      64    4941    4935    4989      29    4941    4944
    4950      66    4941    4980    4953      32    4941    4980    4977      33
    4935    4941    4944      67    4935    4941    4980      37    4935    4989
    4983      38    4935    4989    4995       8    4932    4926    4983       4
    4932    4935    4941      40    4932    4935    4989       4    4926    4932
    4935      41    4926    4983    4989      38    4926    4983    5001       4
    4917    4926    4932      45    4917    4926    4983      46    4914    4917
    4926      51    4911    4905    4914       1    4908    4905    4911      52
    4908    4905    4914       1    4905    4914    4917      53    5100    5103
    5106       1    5100    5103    5109       1    5100    5103    5112       2
    5088    5082    5100       4    5082    5088    5094       8    5082    5100
    5103       9    5070    5076    5079      55    5067    5070    5076      56
    5058    5055    5067      11    5055    5052    5079      57    5055    5067
    5070      58    5052    5055    5058      59    5052    5055    5067      60
    5052    5079    5076      23    5049    5052    5055      61    5049    5052
    5079      25    5043    5040    5079      63    5043    5049    5052      64
    5040    5034    5088      29    5040    5043    5049      66    5040    5079
    5052      32    5040    5079    5076      33    5034    5040    5043      67
    5034    5040    5079      37    5034    5088    5082      38    5034    5088
    5094       8    5031    5025    5082       4    5031    5034    5040      40
    5031    5034    5088       4    5025    5031    5034      41    5025    5082
    5088      38    5025    5082    5100       4    5016    5025    5031      45
    5016    5025    5082      46    5013    5016    5025      51    5010    5004
    5013       1    5007    5004    5010      52    5007    5004    5013       1
    5004    5013    5016      53    5190    5193    5196       1    5190    5193
    5199       1    5190    5193    5202       2    5178    5172    5190       4
    5172    5178    5184       8    5172    5190    5193       9    5160    5166
    5169      17    5157    5154    5160      17    5154    5160    5166      68
    5148    5154    5157      70    5148    5154    5160      71    5142    5139
    5166      73    5142    5148    5154      75    5139    5133    5178      29
    5139    5142    5148      77    5139    5166    5160      78    5139    5166
    5169      79    5133    5139    5142      80    5133    5139    5166      81
    5133    5178    5172      38    5133    5178    5184       8    5130    5124
    5172       4    5130    5133    5139      40    5130    5133    5178       4
    5124    5130    5133      41    5124    5172    5178      38    5124    5172
    5190       4    5115    5124    5130      45    5115    5124    5172      46
    5112    5115    5124      51    5109    5103    5112       1    5106    5103
    5109      52    5106    5103    5112       1    5103    5112    5115      53
    5292    5295    5298       1    5292    5295    5301       1    5292    5295
    5304       2    5280    5274    5292       4    5274    5280    5286       8
    5274    5292    5295       9    5259    5256    5268      11    5256    5268
    5271      13    5250    5256    5259      15    5250    5256    5268      16
    5247    5244    5250      17    5244    5241    5271      18    5244    5250
    5256      20    5241    5244    5247      21    5241    5244    5250      22
    5241    5271    5268      23    5238    5241    5244      24    5238    5241
    5271      25    5232    5229    5271      27    5232    5238    5241      28
    5229    5223    5280      29    5229    5232    5238      31    5229    5271
    5241      32    5229    5271    5268      33    5223    5229    5232      36
    5223    5229    5271      37    5223    5280    5274      38    5223    5280
    5286       8    5220    5214    5274       4    5220    5223    5229      40
    5220    5223    5280       4    5214    5220    5223      41    5214    5274
    5280      38    5214    5274    5292       4    5205    5214    5220      45
    5205    5214    5274      46    5202    5205    5214      51    5199    5193
    5202       1    5196    5193    5199      52    5196    5193    5202       1
    5193    5202    5205      53    5382    5385    5388       1    5382    5385
    5391       1    5382    5385    5394       2    5370    5364    5382       4
    5364    5370    5376       8    5364    5382    5385       9    5352    5358
    5361      17    5349    5346    5352      17    5346    5352    5358      68
    5340    5346    5349      70    5340    5346    5352      71    5334    5331
    5358      73    5334    5340    5346      75    5331    5325    5370      29
    5331    5334    5340      77    5331    5358    5352      78    5331    5358
    5361      79    5325    5331    5334      80    5325    5331    5358      81
    5325    5370    5364      38    5325    5370    5376       8    5322    5316
    5364       4    5322    5325    5331      40    5322    5325    5370       4
    5316    5322    5325      41    5316    5364    5370      38    5316    5364
    5382       4    5307    5316    5322      45    5307    5316    5364      46
    5304    5307    5316      51    5301    5295    5304       1    5298    5295
    5301      52    5298    5295    5304       1    5295    5304    5307      53
    5475    5478    5481       1    5475    5478    5484       1    5475    5478
    5487       2    5463    5457    5475       4    5457    5463    5469       8
    5457    5475    5478       9    5448    5451    5454      82    5439    5436
    5448      11    5436    5448    5451      83    5430    5436    5439      85
    5430    5436    5448      86    5424    5421    5451      88    5424    5430
    5436      90    5421    5415    5463      29    5421    5424    5430      92
    5421    5451    5448      93    5421    5451    5454      79    5415    5421
    5424      94    5415    5421    5451      81    5415    5463    5457      38
    5415    5463    5469       8    5412    5406    5457       4    5412    5415
    5421      40    5412    5415    5463       4    5406    5412    5415      41
    5406    5457    5463      38    5406    5457    5475       4    5397    5406
    5412      45    5397    5406    5457      46    5394    5397    5406      51
    5391    5385    5394       1    5388    5385    5391      52    5388    5385
    5394       1    5385    5394    5397      53    5568    5571    5574       1
    5568    5571    5577       1    5568    5571    5580       2    5556    5550
    5568       4    5550    5556    5562       8    5550    5568    5571       9
    5541    5544    5547      82    5532    5529    5541      11    5529    5541
    5544      83    5523    5529    5532      85    5523    5529    5541      86
    5517    5514    5544      88    5517    5523    5529      90    5514    5508
    5556      29    5514    5517    5523      92    5514    5544    5541      93
    5514    5544    5547      79    5508    5514    5517      94    5508    5514
    5544      81    5508    5556    5550      38    5508    5556    5562       8
    5505    5499    5550       4    5505    5508    5514      40    5505    5508
    5556       4    5499    5505    5508      41    5499    5550    5556      38
    5499    5550    5568       4    5490    5499    5505      45    5490    5499
    5550      46    5487    5490    5499      51    5484    5478    5487       1
    5481    5478    5484      52    5481    5478    5487       1    5478    5487
    5490      53    5670    5673    5676       1    5670    5673    5679       1
    5670    5673    5682       2    5658    5652    5670       4    5652    5658
    5664       8    5652    5670    5673       9    5637    5634    5646      11
    5634    5646    5649      13    5628    5634    5637      15    5628    5634
    5646      16    5625    5622    5628      17    5622    5619    5649      18
    5622    5628    5634      20    5619    5622    5625      21    5619    5622
    5628      22    5619    5649    5646      23    5616    5619    5622      24
    5616    5619    5649      25    5610    5607    5649      27    5610    5616
    5619      28    5607    5601    5658      29    5607    5610    5616      31
    5607    5649    5619      32    5607    5649    5646      33    5601    5607
    5610      36    5601    5607    5649      37    5601    5658    5652      38
    5601    5658    5664       8    5598    5592    5652       4    5598    5601
    5607      40    5598    5601    5658       4    5592    5598    5601      41
    5592    5652    5658      38    5592    5652    5670       4    5583    5592
    5598      45    5583    5592    5652      46    5580    5583    5592      51
    5577    5571    5580       1    5574    5571    5577      52    5574    5571
    5580       1    5571    5580    5583      53    5769    5772    5775       1
    5769    5772    5778       1    5769    5772    5781       2    5757    5751
    5769       4    5751    5757    5763       8    5751    5769    5772       9
    5739    5745    5748      55    5736    5739    5745      56    5727    5724
    5736      11    5724    5721    5748      57    5724    5736    5739      58
    5721    5724    5727      59    5721    5724    5736      60    5721    5748
    5745      23    5718    5721    5724      61    5718    5721    5748      25
    5712    5709    5748      63    5712    5718    5721      64    5709    5703
    5757      29    5709    5712    5718      66    5709    5748    5721      32
    5709    5748    5745      33    5703    5709    5712      67    5703    5709
    5748      37    5703    5757    5751      38    5703    5757    5763       8
    5700    5694    5751       4    5700    5703    5709      40    5700    5703
    5757       4    5694    5700    5703      41    5694    5751    5757      38
    5694    5751    5769       4    5685    5694    5700      45    5685    5694
    5751      46    5682    5685    5694      51    5679    5673    5682       1
    5676    5673    5679      52    5676    5673    5682       1    5673    5682
    5685      53    5862    5865    5868       1    5862    5865    5871       1
    5862    5865    5874       2    5850    5844    5862       4    5844    5850
    5856       8    5844    5862    5865       9    5835    5838    5841      82
    5826    5823    5835      11    5823    5835    5838      83    5817    5823
    5826      85    5817    5823    5835      86    5811    5808    5838      88
    5811    5817    5823      90    5808    5802    5850      29    5808    5811
    5817      92    5808    5838    5835      93    5808    5838    5841      79
    5802    5808    5811      94    5802    5808    5838      81    5802    5850
    5844      38    5802    5850    5856       8    5799    5793    5844       4
    5799    5802    5808      40    5799    5802    5850       4    5793    5799
    5802      41    5793    5844    5850      38    5793    5844    5862       4
    5784    5793    5799      45    5784    5793    5844      46    5781    5784
    5793      51    5778    5772    5781       1    5775    5772    5778      52
    5775    5772    5781       1    5772    5781    5784      53    5952    5955
    5958       1    5952    5955    5961       1    5952    5955    5964       2
    5940    5934    5952       4    5934    5940    5946       8    5934    5952
    5955       9    5922    5928    5931      17    5919    5916    5922      17
    5916    5922    5928      68    5910    5916    5919      70    5910    5916
    5922      71    5904    5901    5928      73    5904    5910    5916      75
    5901    5895    5940      29    5901    5904    5910      77    5901    5928
    5922      78    5901    5928    5931      79    5895    5901    5904      80
    5895    5901    5928      81    5895    5940    5934      38    5895    5940
    5946       8    5892    5886    5934       4    5892    5895    5901      40
    5892    5895    5940       4    5886    5892    5895      41    5886    5934
    5940      38    5886    5934    5952       4    5877    5886    5892      45
    5877    5886    5934      46    5874    5877    5886      51    5871    5865
    5874       1    5868    5865    5871      52    5868    5865    5874       1
    5865    5874    5877      53    6051    6054    6057       1    6051    6054
    6060       1    6051    6054    6063       2    6039    6033    6051       4
    6033    6039    6045       8    6033    6051    6054       9    6021    6027
    6030      55    6018    6021    6027      56    6009    6006    6018      11
    6006    6003    6030      57    6006    6018    6021      58    6003    6006
    6009      59    6003    6006    6018      60    6003    6030    6027      23
    6000    6003    6006      61    6000    6003    6030      25    5994    5991
    6030      63    5994    6000    6003      64    5991    5985    6039      29
    5991    5994    6000      66    5991    6030    6003      32    5991    6030
    6027      33    5985    5991    5994      67    5985    5991    6030      37
    5985    6039    6033      38    5985    6039    6045       8    5982    5976
    6033       4    5982    5985    5991      40    5982    5985    6039       4
    5976    5982    5985      41    5976    6033    6039      38    5976    6033
    6051       4    5967    5976    5982      45    5967    5976    6033      46
    5964    5967    5976      51    5961    5955    5964       1    5958    5955
    5961      52    5958    5955    5964       1    5955    5964    5967      53
    6141    6144    6147       1    6141    6144    6150       1    6141    6144
    6153       2    6129    6123    6141       4    6123    6129    6135       8
    6123    6141    6144       9    6111    6117    6120      17    6108    6105
    6111      17    6105    6111    6117      68    6099    6105    6108      70
    6099    6105    6111      71    6093    6090    6117      73    6093    6099
    6105      75    6090    6084    6129      29    6090    6093    6099      77
    6090    6117    6111      78    6090    6117    6120      79    6084    6090
    6093      80    6084    6090    6117      81    6084    6129    6123      38
    6084    6129    6135       8    6081    6075    6123       4    6081    6084
    6090      40    6081    6084    6129       4    6075    6081    6084      41
    6075    6123    6129      38    6075    6123    6141       4    6066    6075
    6081      45    6066    6075    6123      46    6063    6066    6075      51
    6060    6054    6063       1    6057    6054    6060      52    6057    6054
    6063       1    6054    6063    6066      53    6243    6246    6249       1
    6243    6246    6252       1    6243    6246    6255       2    6231    6225
    6243       4    6225    6231    6237       8    6225    6243    6246       9
    6210    6207    6219      11    6207    6219    6222      13    6201    6207
    6210      15    6201    6207    6219      16    6198    6195    6201      17
    6195    6192    6222      18    6195    6201    6207      20    6192    6195
    6198      21    6192    6195    6201      22    6192    6222    6219      23
    6189    6192    6195      24    6189    6192    6222      25    6183    6180
    6222      27    6183    6189    6192      28    6180    6174    6231      29
    6180    6183    6189      31    6180    6222    6192      32    6180    6222
    6219      33    6174    6180    6183      36    6174    6180    6222      37
    6174    6231    6225      38    6174    6231    6237       8    6171    6165
    6225       4    6171    6174    6180      40    6171    6174    6231       4
    6165    6171    6174      41    6165    6225    6231      38    6165    6225
    6243       4    6156    6165    6171      45    6156    6165    6225      46
    6153    6156    6165      51    6150    6144    6153       1    6147    6144
    6150      52    6147    6144    6153       1    6144    6153    6156      53
    6345    6348    6351       1    6345    6348    6354       1    6345    6348
    6357       2    6333    6327    6345       4    6327    6333    6339       8
    6327    6345    6348       9    6312    6309    6321      11    6309    6321
    6324      13    6303    6309    6312      15    6303    6309    6321      16
    6300    6297    6303      17    6297    6294    6324      18    6297    6303
    6309      20    6294    6297    6300      21    6294    6297    6303      22
    6294    6324    6321      23    6291    6294    6297      24    6291    6294
    6324      25    6285    6282    6324      27    6285    6291    6294      28
    6282    6276    6333      29    6282    6285    6291      31    6282    6324
    6294      32    6282    6324    6321      33    6276    6282    6285      36
    6276    6282    6324      37    6276    6333    6327      38    6276    6333
    6339       8    6273    6267    6327       4    6273    6276    6282      40
    6273    6276    6333       4    6267    6273    6276      41    6267    6327
    6333      38    6267    6327    6345       4    6258    6267    6273      45
    6258    6267    6327      46    6255    6258    6267      51    6252    6246
    6255       1    6249    6246    6252      52    6249    6246    6255       1
    6246    6255    6258      53    6435    6438    6441       1    6435    6438
    6444       1    6435    6438    6447       2    6423    6417    6435       4
    6417    6423    6429       8    6417    6435    6438       9    6405    6411
    6414      17    6402    6399    6405      17    6399    6405    6411      68
    6393    6399    6402      70    6393    6399    6405      71    6387    6384
    6411      73    6387    6393    6399      75    6384    6378    6423      29
    6384    6387    6393      77    6384    6411    6405      78    6384    6411
    6414      79    6378    6384    6387      80    6378    6384    6411      81
    6378    6423    6417      38    6378    6423    6429       8    6375    6369
    6417       4    6375    6378    6384      40    6375    6378    6423       4
    6369    6375    6378      41    6369    6417    6423      38    6369    6417
    6435       4    6360    6369    6375      45    6360    6369    6417      46
    6357    6360    6369      51    6354    6348    6357       1    6351    6348
    6354      52    6351    6348    6357       1    6348    6357    6360      53
    6516    6510    6528       8    6510    6516    6522       8    6501    6504
    6507      82    6492    6489    6501      11    6489    6501    6504      83
    6483    6489    6492      85    6483    6489    6501      86    6477    6474
    6504      88    6477    6483    6489      90    6474    6468    6516      29
    6474    6477    6483      92    6474    6504    6501      93    6474    6504
    6507      79    6468    6474    6477      94    6468    6474    6504      81
    6468    6516    6510      38    6468    6516    6522       8    6465    6459
    6510       4    6465    6468    6474      40    6465    6468    6516       4
    6459    6465    6468      41    6459    6510    6516      38    6459    6510
    6528       8    6450    6459    6465      45    6450    6459    6510      46
    6447    6450    6459      51    6444    6438    6447       1    6441    6438
    6444      52    6441    6438    6447       1    6438    6447    6450      53
    6960    6963    6966      97    6957    6954    6966      99    6957    6960
    6963     100    6954    6957    6960     101    6954    6966    6963     102
    6951    6954    6957     103    6951    6954    6966     104    6945    6939
    6948     105    6942    6939    6945     105    6942    6939    6948     105
    6939    6936    6951     106    6936    6939    6942     108    6936    6939
    6945     108    6936    6939    6948     108    6936    6951    6954     109
    6933    6930    6957     110    6933    6936    6939     111    6933    6936
    6951     112    6930    6933    6936     113    6930    6957    6954     115
    6930    6957    6960     116    6927    6930    6933     117    6927    6930
    6957     118
%FLAG DIHEDRALS_INC_HYDROGEN                                                    
%FORMAT(10I8)                                                                   
      84      81      75      93       6      84      81     -75      93       7
      84      81      87      90       8      78      75      81      84      10
      78      75      81      87       6      78      75     -81      87       7
      78      75      93      96       9      75      81      87      90       6
      75      81     -87      90      11      66      60      57      69      15
      63      60      57      69      15      54      51      57      60      17
      54      51      57      69      17      51      57      60      63      15
      51      57      60      66      15      48      45      51      54      19
      42      45      51      54      19      36      33      30      72      22
      36      33      39      42      23      30      24      81      84      10
      27      24      30      33      14      27      24      30      72      14
      27      24      81      75      10      27      24      81      84      10
      27      24      81      87      10      24      30      33      36      22
      24      81      75      78      10      24      81      87      90       6
      24      81     -87      90      11      21      15      75      78       6
      21      15     -75      78       7      21      24      81      84       6
      21      24     -81      84       7      18      15      21      24       9
      18      15      75      78      10      18      15      75      81      10
      18      15      75      93       6      18      15     -75      93       7
      15      21      24      27       9      15      75      81      84      10
      12       6      15      18      10      12       6      15      21       6
      12       6     -15      21       7      12       6      15      75      10
       9       6      15      18      10       9       6      15      21       6
       9       6     -15      21       7       9       6      15      75      10
       6      15      75      78      10       3       6      15      18       6
       3       6     -15      18       7       0       3       6       9       8
       0       3       6      12       8       0       3       6      15       8
     186     183     177     195       6     186     183    -177     195       7
     186     183     189     192       8     180     177     183     186      10
     180     177     183     189       6     180     177    -183     189       7
     180     177     195     198       9     177     183     189     192       6
     177     183    -189     192      11     168     162     159     171      15
     165     162     159     171      15     156     153     159     162      17
     156     153     159     171      17     153     159     162     165      15
     153     159     162     168      15     150     147     153     156      19
     144     147     153     156      19     138     135     132     174      22
     138     135     141     144      23     132     126     183     186      10
     129     126     132     135      14     129     126     132     174      14
     129     126     183     177      10     129     126     183     186      10
     129     126     183     189      10     126     132     135     138      22
     126     183     177     180      10     126     183     189     192       6
     126     183    -189     192      11     123     117     177     180       6
     123     117    -177     180       7     123     126     183     186       6
     123     126    -183     186       7     120     117     123     126       9
     120     117     177     180      10     120     117     177     183      10
     120     117     177     195       6     120     117    -177     195       7
     117     123     126     129       9     117     177     183     186      10
     114     108     117     120      10     114     108     117     123       6
     114     108    -117     123       7     114     108     117     177      10
     111     108     117     120      10     111     108     117     123       6
     111     108    -117     123       7     111     108     117     177      10
     108     117     177     180      10     105     108     117     120       6
     105     108    -117     120       7      96     105     108     111       9
      96     105     108     114       9     285     282     276     294       6
     285     282    -276     294       7     285     282     288     291       8
     279     276     282     285      10     279     276     282     288       6
     279     276    -282     288       7     279     276     294     297       9
     276     282     288     291       6     276     282    -288     291      11
     267     264     270     273      39     258     252     249     261      15
     255     252     249     261      15     249     261     264     267      39
     246     249     252     255      15     246     249     252     258      15
     240     237     234     273      22     240     237     243     246      23
     234     228     282     285      10     231     228     234     237      14
     231     228     234     273      14     231     228     282     276      10
     231     228     282     285      10     231     228     282     288      10
     228     234     237     240      22     228     282     276     279      10
     228     282     288     291       6     228     282    -288     291      11
     225     219     276     279       6     225     219    -276     279       7
     225     228     282     285       6     225     228    -282     285       7
     222     219     225     228       9     222     219     276     279      10
     222     219     276     282      10     222     219     276     294       6
     222     219    -276     294       7     219     225     228     231       9
     219     276     282     285      10     216     210     219     222      10
     216     210     219     225       6     216     210    -219     225       7
     216     210     219     276      10     213     210     219     222      10
     213     210     219     225       6     213     210    -219     225       7
     213     210     219     276      10     210     219     276     279      10
     207     210     219     222       6     207     210    -219     222       7
     198     207     210     213       9     198     207     210     216       9
     375     372     366     384       6     375     372    -366     384       7
     375     372     378     381       8     369     366     372     375      10
     369     366     372     378       6     369     366    -372     378       7
     369     366     384     387       9     366     372     378     381       6
     366     372    -378     381      11     357     354     360     363      19
     351     348     354     357      19     345     342     348     351      45
     345     342     348     354      45     342     348     354     357      19
     339     336     333     360      46     339     336     342     345      47
     339     336     342     348      47     333     327     372     375      10
     333     336     342     345      47     333     360     354     357      19
     330     327     333     336      14     330     327     333     360      14
     330     327     372     366      10     330     327     372     375      10
     330     327     372     378      10     327     333     336     339      46
     327     372     366     369      10     327     372     378     381       6
     327     372    -378     381      11     324     318     366     369       6
     324     318    -366     369       7     324     327     372     375       6
     324     327    -372     375       7     321     318     324     327       9
     321     318     366     369      10     321     318     366     372      10
     321     318     366     384       6     321     318    -366     384       7
     318     324     327     330       9     318     366     372     375      10
     315     309     318     321      10     315     309     318     324       6
     315     309    -318     324       7     315     309     318     366      10
     312     309     318     321      10     312     309     318     324       6
     312     309    -318     324       7     312     309     318     366      10
     309     318     366     369      10     306     309     318     321       6
     306     309    -318     321       7     297     306     309     312       9
     297     306     309     315       9     468     465     459     477       6
     468     465    -459     477       7     468     465     471     474       8
     462     459     465     468      10     462     459     465     471       6
     462     459    -465     471       7     462     459     477     480       9
     459     465     471     474       6     459     465    -471     474      11
     447     441     438     450      15     444     441     438     450      15
     435     432     438     441      25     435     432     438     450      25
     432     438     441     444      15     432     438     441     447      15
     429     426     423     453      46     429     426     432     435      47
     429     426     432     438      47     423     417     465     468      10
     423     426     432     435      47     420     417     423     426      14
     420     417     423     453      14     420     417     465     459      10
     420     417     465     468      10     420     417     465     471      10
     417     423     426     429      46     417     465     459     462      10
     417     465     471     474       6     417     465    -471     474      11
     414     408     459     462       6     414     408    -459     462       7
     414     417     465     468       6     414     417    -465     468       7
     411     408     414     417       9     411     408     459     462      10
     411     408     459     465      10     411     408     459     477       6
     411     408    -459     477       7     408     414     417     420       9
     408     459     465     468      10     405     399     408     411      10
     405     399     408     414       6     405     399    -408     414       7
     405     399     408     459      10     402     399     408     411      10
     402     399     408     414       6     402     399    -408     414       7
     402     399     408     459      10     399     408     459     462      10
     396     399     408     411       6     396     399    -408     411       7
     387     396     399     402       9     387     396     399     405       9
     567     564     558     576       6     567     564    -558     576       7
     567     564     570     573       8     561     558     564     567      10
     561     558     564     570       6     561     558    -564     570       7
     561     558     576     579       9     558     564     570     573       6
     558     564    -570     573      11     549     546     552     555      39
     540     534     531     543      15     537     534     531     543      15
     531     543     546     549      39     528     531     534     537      15
     528     531     534     540      15     522     519     516     555      22
     522     519     525     528      23     516     510     564     567      10
     513     510     516     519      14     513     510     516     555      14
     513     510     564     558      10     513     510     564     567      10
     513     510     564     570      10     510     516     519     522      22
     510     564     558     561      10     510     564     570     573       6
     510     564    -570     573      11     507     501     558     561       6
     507     501    -558     561       7     507     510     564     567       6
     507     510    -564     567       7     504     501     507     510       9
     504     501     558     561      10     504     501     558     564      10
     504     501     558     576       6     504     501    -558     576       7
     501     507     510     513       9     501     558     564     567      10
     498     492     501     504      10     498     492     501     507       6
     498     492    -501     507       7     498     492     501     558      10
     495     492     501     504      10     495     492     501     507       6
     495     492    -501     507       7     495     492     501     558      10
     492     501     558     561      10     489     492     501     504       6
     489     492    -501     504       7     480     489     492     495       9
     480     489     492     498       9     657     654     648     666       6
     657     654    -648     666       7     657     654     660     663       8
     651     648     654     657      10     651     648     654     660       6
     651     648    -654     660       7     651     648     666     669       9
     648     654     660     663       6     648     654    -660     663      11
     639     636     642     645      19     633     630     636     639      19
     627     624     630     633      45     627     624     630     636      45
     624     630     636     639      19     621     618     615     642      46
     621     618     624     627      47     621     618     624     630      47
     615     609     654     657      10     615     618     624     627      47
     615     642     636     639      19     612     609     615     618      14
     612     609     615     642      14     612     609     654     648      10
     612     609     654     657      10     612     609     654     660      10
     609     615     618     621      46     609     654     648     651      10
     609     654     660     663       6     609     654    -660     663      11
     606     600     648     651       6     606     600    -648     651       7
     606     609     654     657       6     606     609    -654     657       7
     603     600     606     609       9     603     600     648     651      10
     603     600     648     654      10     603     600     648     666       6
     603     600    -648     666       7     600     606     609     612       9
     600     648     654     657      10     597     591     600     603      10
     597     591     600     606       6     597     591    -600     606       7
     597     591     600     648      10     594     591     600     603      10
     594     591     600     606       6     594     591    -600     606       7
     594     591     600     648      10     591     600     648     651      10
     588     591     600     603       6     588     591    -600     603       7
     579     588     591     594       9     579     588     591     597       9
     756     753     747     765       6     756     753    -747     765       7
     756     753     759     762       8     750     747     753     756      10
     750     747     753     759       6     750     747    -753     759       7
     750     747     765     768       9     747     753     759     762       6
     747     753    -759     762      11     738     735     741     744      39
     729     723     720     732      15     726     723     720     732      15
     720     732     735     738      39     717     720     723     726      15
     717     720     723     729      15     711     708     705     744      22
     711     708     714     717      23     705     699     753     756      10
     702     699     705     708      14     702     699     705     744      14
     702     699     753     747      10     702     699     753     756      10
     702     699     753     759      10     699     705     708     711      22
     699     753     747     750      10     699     753     759     762       6
     699     753    -759     762      11     696     690     747     750       6
     696     690    -747     750       7     696     699     753     756       6
     696     699    -753     756       7     693     690     696     699       9
     693     690     747     750      10     693     690     747     753      10
     693     690     747     765       6     693     690    -747     765       7
     690     696     699     702       9     690     747     753     756      10
     687     681     690     693      10     687     681     690     696       6
     687     681    -690     696       7     687     681     690     747      10
     684     681     690     693      10     684     681     690     696       6
     684     681    -690     696       7     684     681     690     747      10
     681     690     747     750      10     678     681     690     693       6
     678     681    -690     693       7     669     678     681     684       9
     669     678     681     687       9     846     843     837     855       6
     846     843    -837     855       7     846     843     849     852       8
     840     837     843     846      10     840     837     843     849       6
     840     837    -843     849       7     840     837     855     858       9
     837     843     849     852       6     837     843    -849     852      11
     828     825     831     834      19     822     819     825     828      19
     816     813     819     822      45     816     813     819     825      45
     813     819     825     828      19     810     807     804     831      46
     810     807     813     816      47     810     807     813     819      47
     804     798     843     846      10     804     807     813     816      47
     804     831     825     828      19     801     798     804     807      14
     801     798     804     831      14     801     798     843     837      10
     801     798     843     846      10     801     798     843     849      10
     798     804     807     810      46     798     843     837     840      10
     798     843     849     852       6     798     843    -849     852      11
     795     789     837     840       6     795     789    -837     840       7
     795     798     843     846       6     795     798    -843     846       7
     792     789     795     798       9     792     789     837     840      10
     792     789     837     843      10     792     789     837     855       6
     792     789    -837     855       7     789     795     798     801       9
     789     837     843     846      10     786     780     789     792      10
     786     780     789     795       6     786     780    -789     795       7
     786     780     789     837      10     783     780     789     792      10
     783     780     789     795       6     783     780    -789     795       7
     783     780     789     837      10     780     789     837     840      10
     777     780     789     792       6     777     780    -789     792       7
     768     777     780     783       9     768     777     780     786       9
     945     942     936     954       6     945     942    -936     954       7
     945     942     948     951       8     939     936     942     945      10
     939     936     942     948       6     939     936    -942     948       7
     939     936     954     957       9     936     942     948     951       6
     936     942    -948     951      11     927     924     930     933      39
     918     912     909     921      15     915     912     909     921      15
     909     921     924     927      39     906     909     912     915      15
     906     909     912     918      15     900     897     894     933      22
     900     897     903     906      23     894     888     942     945      10
     891     888     894     897      14     891     888     894     933      14
     891     888     942     936      10     891     888     942     945      10
     891     888     942     948      10     888     894     897     900      22
     888     942     936     939      10     888     942     948     951       6
     888     942    -948     951      11     885     879     936     939       6
     885     879    -936     939       7     885     888     942     945       6
     885     888    -942     945       7     882     879     885     888       9
     882     879     936     939      10     882     879     936     942      10
     882     879     936     954       6     882     879    -936     954       7
     879     885     888     891       9     879     936     942     945      10
     876     870     879     882      10     876     870     879     885       6
     876     870    -879     885       7     876     870     879     936      10
     873     870     879     882      10     873     870     879     885       6
     873     870    -879     885       7     873     870     879     936      10
     870     879     936     939      10     867     870     879     882       6
     867     870    -879     882       7     858     867     870     873       9
     858     867     870     876       9    1044    1041    1035    1053       6
    1044    1041   -1035    1053       7    1044    1041    1047    1050       8
    1038    1035    1041    1044      10    1038    1035    1041    1047       6
    1038    1035   -1041    1047       7    1038    1035    1053    1056       9
    1035    1041    1047    1050       6    1035    1041   -1047    1050      11
    1026    1023    1029    1032      39    1017    1011    1008    1020      15
    1014    1011    1008    1020      15    1008    1020    1023    1026      39
    1005    1008    1011    1014      15    1005    1008    1011    1017      15
     999     996     993    1032      22     999     996    1002    1005      23
     993     987    1041    1044      10     990     987     993     996      14
     990     987     993    1032      14     990     987    1041    1035      10
     990     987    1041    1044      10     990     987    1041    1047      10
     987     993     996     999      22     987    1041    1035    1038      10
     987    1041    1047    1050       6     987    1041   -1047    1050      11
     984     978    1035    1038       6     984     978   -1035    1038       7
     984     987    1041    1044       6     984     987   -1041    1044       7
     981     978     984     987       9     981     978    1035    1038      10
     981     978    1035    1041      10     981     978    1035    1053       6
     981     978   -1035    1053       7     978     984     987     990       9
     978    1035    1041    1044      10     975     969     978     981      10
     975     969     978     984       6     975     969    -978     984       7
     975     969     978    1035      10     972     969     978     981      10
     972     969     978     984       6     972     969    -978     984       7
     972     969     978    1035      10     969     978    1035    1038      10
     966     969     978     981       6     966     969    -978     981       7
     957     966     969     972       9     957     966     969     975       9
    1134    1131    1125    1143       6    1134    1131   -1125    1143       7
    1134    1131    1137    1140       8    1128    1125    1131    1134      10
    1128    1125    1131    1137       6    1128    1125   -1131    1137       7
    1128    1125    1143    1146       9    1125    1131    1137    1140       6
    1125    1131   -1137    1140      11    1116    1113    1119    1122      19
    1110    1107    1113    1116      19    1104    1101    1107    1110      45
    1104    1101    1107    1113      45    1101    1107    1113    1116      19
    1098    1095    1092    1119      46    1098    1095    1101    1104      47
    1098    1095    1101    1107      47    1092    1086    1131    1134      10
    1092    1095    1101    1104      47    1092    1119    1113    1116      19
    1089    1086    1092    1095      14    1089    1086    1092    1119      14
    1089    1086    1131    1125      10    1089    1086    1131    1134      10
    1089    1086    1131    1137      10    1086    1092    1095    1098      46
    1086    1131    1125    1128      10    1086    1131    1137    1140       6
    1086    1131   -1137    1140      11    1083    1077    1125    1128       6
    1083    1077   -1125    1128       7    1083    1086    1131    1134       6
    1083    1086   -1131    1134       7    1080    1077    1083    1086       9
    1080    1077    1125    1128      10    1080    1077    1125    1131      10
    1080    1077    1125    1143       6    1080    1077   -1125    1143       7
    1077    1083    1086    1089       9    1077    1125    1131    1134      10
    1074    1068    1077    1080      10    1074    1068    1077    1083       6
    1074    1068   -1077    1083       7    1074    1068    1077    1125      10
    1071    1068    1077    1080      10    1071    1068    1077    1083       6
    1071    1068   -1077    1083       7    1071    1068    1077    1125      10
    1068    1077    1125    1128      10    1065    1068    1077    1080       6
    1065    1068   -1077    1080       7    1056    1065    1068    1071       9
    1056    1065    1068    1074       9    1227    1224    1218    1236       6
    1227    1224   -1218    1236       7    1227    1224    1230    1233       8
    1221    1218    1224    1227      10    1221    1218    1224    1230       6
    1221    1218   -1224    1230       7    1221    1218    1236    1239       9
    1218    1224    1230    1233       6    1218    1224   -1230    1233      11
    1206    1200    1197    1209      15    1203    1200    1197    1209      15
    1194    1191    1197    1200      25    1194    1191    1197    1209      25
    1191    1197    1200    1203      15    1191    1197    1200    1206      15
    1188    1185    1182    1212      46    1188    1185    1191    1194      47
    1188    1185    1191    1197      47    1182    1176    1224    1227      10
    1182    1185    1191    1194      47    1179    1176    1182    1185      14
    1179    1176    1182    1212      14    1179    1176    1224    1218      10
    1179    1176    1224    1227      10    1179    1176    1224    1230      10
    1176    1182    1185    1188      46    1176    1224    1218    1221      10
    1176    1224    1230    1233       6    1176    1224   -1230    1233      11
    1173    1167    1218    1221       6    1173    1167   -1218    1221       7
    1173    1176    1224    1227       6    1173    1176   -1224    1227       7
    1170    1167    1173    1176       9    1170    1167    1218    1221      10
    1170    1167    1218    1224      10    1170    1167    1218    1236       6
    1170    1167   -1218    1236       7    1167    1173    1176    1179       9
    1167    1218    1224    1227      10    1164    1158    1167    1170      10
    1164    1158    1167    1173       6    1164    1158   -1167    1173       7
    1164    1158    1167    1218      10    1161    1158    1167    1170      10
    1161    1158    1167    1173       6    1161    1158   -1167    1173       7
    1161    1158    1167    1218      10    1158    1167    1218    1221      10
    1155    1158    1167    1170       6    1155    1158   -1167    1170       7
    1146    1155    1158    1161       9    1146    1155    1158    1164       9
    1329    1326    1320    1338       6    1329    1326   -1320    1338       7
    1329    1326    1332    1335       8    1323    1320    1326    1329      10
    1323    1320    1326    1332       6    1323    1320   -1326    1332       7
    1323    1320    1338    1341       9    1320    1326    1332    1335       6
    1320    1326   -1332    1335      11    1311    1305    1302    1314      15
    1308    1305    1302    1314      15    1299    1296    1302    1305      17
    1299    1296    1302    1314      17    1296    1302    1305    1308      15
    1296    1302    1305    1311      15    1293    1290    1296    1299      19
    1287    1290    1296    1299      19    1281    1278    1275    1317      22
    1281    1278    1284    1287      23    1275    1269    1326    1329      10
    1272    1269    1275    1278      14    1272    1269    1275    1317      14
    1272    1269    1326    1320      10    1272    1269    1326    1329      10
    1272    1269    1326    1332      10    1269    1275    1278    1281      22
    1269    1326    1320    1323      10    1269    1326    1332    1335       6
    1269    1326   -1332    1335      11    1266    1260    1320    1323       6
    1266    1260   -1320    1323       7    1266    1269    1326    1329       6
    1266    1269   -1326    1329       7    1263    1260    1266    1269       9
    1263    1260    1320    1323      10    1263    1260    1320    1326      10
    1263    1260    1320    1338       6    1263    1260   -1320    1338       7
    1260    1266    1269    1272       9    1260    1320    1326    1329      10
    1257    1251    1260    1263      10    1257    1251    1260    1266       6
    1257    1251   -1260    1266       7    1257    1251    1260    1320      10
    1254    1251    1260    1263      10    1254    1251    1260    1266       6
    1254    1251   -1260    1266       7    1254    1251    1260    1320      10
    1251    1260    1320    1323      10    1248    1251    1260    1263       6
    1248    1251   -1260    1263       7    1239    1248    1251    1254       9
    1239    1248    1251    1257       9    1422    1419    1413    1431       6
    1422    1419   -1413    1431       7    1422    1419    1425    1428       8
    1416    1413    1419    1422      10    1416    1413    1419    1425       6
    1416    1413   -1419    1425       7    1416    1413    1431    1434       9
    1413    1419    1425    1428       6    1413    1419   -1425    1428      11
    1401    1395    1392    1404      15    1398    1395    1392    1404      15
    1389    1386    1392    1395      25    1389    1386    1392    1404      25
    1386    1392    1395    1398      15    1386    1392    1395    1401      15
    1383    1380    1377    1407      46    1383    1380    1386    1389      47
    1383    1380    1386    1392      47    1377    1371    1419    1422      10
    1377    1380    1386    1389      47    1374    1371    1377    1380      14
    1374    1371    1377    1407      14    1374    1371    1419    1413      10
    1374    1371    1419    1422      10    1374    1371    1419    1425      10
    1371    1377    1380    1383      46    1371    1419    1413    1416      10
    1371    1419    1425    1428       6    1371    1419   -1425    1428      11
    1368    1362    1413    1416       6    1368    1362   -1413    1416       7
    1368    1371    1419    1422       6    1368    1371   -1419    1422       7
    1365    1362    1368    1371       9    1365    1362    1413    1416      10
    1365    1362    1413    1419      10    1365    1362    1413    1431       6
    1365    1362   -1413    1431       7    1362    1368    1371    1374       9
    1362    1413    1419    1422      10    1359    1353    1362    1365      10
    1359    1353    1362    1368       6    1359    1353   -1362    1368       7
    1359    1353    1362    1413      10    1356    1353    1362    1365      10
    1356    1353    1362    1368       6    1356    1353   -1362    1368       7
    1356    1353    1362    1413      10    1353    1362    1413    1416      10
    1350    1353    1362    1365       6    1350    1353   -1362    1365       7
    1341    1350    1353    1356       9    1341    1350    1353    1359       9
    1524    1521    1515    1533       6    1524    1521   -1515    1533       7
    1524    1521    1527    1530       8    1518    1515    1521    1524      10
    1518    1515    1521    1527       6    1518    1515   -1521    1527       7
    1518    1515    1533    1536       9    1515    1521    1527    1530       6
    1515    1521   -1527    1530      11    1506    1500    1497    1509      15
    1503    1500    1497    1509      15    1494    1491    1497    1500      17
    1494    1491    1497    1509      17    1491    1497    1500    1503      15
    1491    1497    1500    1506      15    1488    1485    1491    1494      19
    1482    1485    1491    1494      19    1476    1473    1470    1512      22
    1476    1473    1479    1482      23    1470    1464    1521    1524      10
    1467    1464    1470    1473      14    1467    1464    1470    1512      14
    1467    1464    1521    1515      10    1467    1464    1521    1524      10
    1467    1464    1521    1527      10    1464    1470    1473    1476      22
    1464    1521    1515    1518      10    1464    1521    1527    1530       6
    1464    1521   -1527    1530      11    1461    1455    1515    1518       6
    1461    1455   -1515    1518       7    1461    1464    1521    1524       6
    1461    1464   -1521    1524       7    1458    1455    1461    1464       9
    1458    1455    1515    1518      10    1458    1455    1515    1521      10
    1458    1455    1515    1533       6    1458    1455   -1515    1533       7
    1455    1461    1464    1467       9    1455    1515    1521    1524      10
    1452    1446    1455    1458      10    1452    1446    1455    1461       6
    1452    1446   -1455    1461       7    1452    1446    1455    1515      10
    1449    1446    1455    1458      10    1449    1446    1455    1461       6
    1449    1446   -1455    1461       7    1449    1446    1455    1515      10
    1446    1455    1515    1518      10    1443    1446    1455    1458       6
    1443    1446   -1455    1458       7    1434    1443    1446    1449       9
    1434    1443    1446    1452       9    1614    1611    1605    1623       6
    1614    1611   -1605    1623       7    1614    1611    1617    1620       8
    1608    1605    1611    1614      10    1608    1605    1611    1617       6
    1608    1605   -1611    1617       7    1608    1605    1623    1626       9
    1605    1611    1617    1620       6    1605    1611   -1617    1620      11
    1596    1593    1599    1602      19    1590    1587    1593    1596      19
    1584    1581    1587    1590      45    1584    1581    1587    1593      45
    1581    1587    1593    1596      19    1578    1575    1572    1599      46
    1578    1575    1581    1584      47    1578    1575    1581    1587      47
    1572    1566    1611    1614      10    1572    1575    1581    1584      47
    1572    1599    1593    1596      19    1569    1566    1572    1575      14
    1569    1566    1572    1599      14    1569    1566    1611    1605      10
    1569    1566    1611    1614      10    1569    1566    1611    1617      10
    1566    1572    1575    1578      46    1566    1611    1605    1608      10
    1566    1611    1617    1620       6    1566    1611   -1617    1620      11
    1563    1557    1605    1608       6    1563    1557   -1605    1608       7
    1563    1566    1611    1614       6    1563    1566   -1611    1614       7
    1560    1557    1563    1566       9    1560    1557    1605    1608      10
    1560    1557    1605    1611      10    1560    1557    1605    1623       6
    1560    1557   -1605    1623       7    1557    1563    1566    1569       9
    1557    1605    1611    1614      10    1554    1548    1557    1560      10
    1554    1548    1557    1563       6    1554    1548   -1557    1563       7
    1554    1548    1557    1605      10    1551    1548    1557    1560      10
    1551    1548    1557    1563       6    1551    1548   -1557    1563       7
    1551    1548    1557    1605      10    1548    1557    1605    1608      10
    1545    1548    1557    1560       6    1545    1548   -1557    1560       7
    1536    1545    1548    1551       9    1536    1545    1548    1554       9
    1716    1713    1707    1725       6    1716    1713   -1707    1725       7
    1716    1713    1719    1722       8    1710    1707    1713    1716      10
    1710    1707    1713    1719       6    1710    1707   -1713    1719       7
    1710    1707    1725    1728       9    1707    1713    1719    1722       6
    1707    1713   -1719    1722      11    1698    1692    1689    1701      15
    1695    1692    1689    1701      15    1686    1683    1689    1692      17
    1686    1683    1689    1701      17    1683    1689    1692    1695      15
    1683    1689    1692    1698      15    1680    1677    1683    1686      19
    1674    1677    1683    1686      19    1668    1665    1662    1704      22
    1668    1665    1671    1674      23    1662    1656    1713    1716      10
    1659    1656    1662    1665      14    1659    1656    1662    1704      14
    1659    1656    1713    1707      10    1659    1656    1713    1716      10
    1659    1656    1713    1719      10    1656    1662    1665    1668      22
    1656    1713    1707    1710      10    1656    1713    1719    1722       6
    1656    1713   -1719    1722      11    1653    1647    1707    1710       6
    1653    1647   -1707    1710       7    1653    1656    1713    1716       6
    1653    1656   -1713    1716       7    1650    1647    1653    1656       9
    1650    1647    1707    1710      10    1650    1647    1707    1713      10
    1650    1647    1707    1725       6    1650    1647   -1707    1725       7
    1647    1653    1656    1659       9    1647    1707    1713    1716      10
    1644    1638    1647    1650      10    1644    1638    1647    1653       6
    1644    1638   -1647    1653       7    1644    1638    1647    1707      10
    1641    1638    1647    1650      10    1641    1638    1647    1653       6
    1641    1638   -1647    1653       7    1641    1638    1647    1707      10
    1638    1647    1707    1710      10    1635    1638    1647    1650       6
    1635    1638   -1647    1650       7    1626    1635    1638    1641       9
    1626    1635    1638    1644       9    1818    1815    1809    1827       6
    1818    1815   -1809    1827       7    1818    1815    1821    1824       8
    1812    1809    1815    1818      10    1812    1809    1815    1821       6
    1812    1809   -1815    1821       7    1812    1809    1827    1830       9
    1809    1815    1821    1824       6    1809    1815   -1821    1824      11
    1800    1794    1791    1803      15    1797    1794    1791    1803      15
    1788    1785    1791    1794      17    1788    1785    1791    1803      17
    1785    1791    1794    1797      15    1785    1791    1794    1800      15
    1782    1779    1785    1788      19    1776    1779    1785    1788      19
    1770    1767    1764    1806      22    1770    1767    1773    1776      23
    1764    1758    1815    1818      10    1761    1758    1764    1767      14
    1761    1758    1764    1806      14    1761    1758    1815    1809      10
    1761    1758    1815    1818      10    1761    1758    1815    1821      10
    1758    1764    1767    1770      22    1758    1815    1809    1812      10
    1758    1815    1821    1824       6    1758    1815   -1821    1824      11
    1755    1749    1809    1812       6    1755    1749   -1809    1812       7
    1755    1758    1815    1818       6    1755    1758   -1815    1818       7
    1752    1749    1755    1758       9    1752    1749    1809    1812      10
    1752    1749    1809    1815      10    1752    1749    1809    1827       6
    1752    1749   -1809    1827       7    1749    1755    1758    1761       9
    1749    1809    1815    1818      10    1746    1740    1749    1752      10
    1746    1740    1749    1755       6    1746    1740   -1749    1755       7
    1746    1740    1749    1809      10    1743    1740    1749    1752      10
    1743    1740    1749    1755       6    1743    1740   -1749    1755       7
    1743    1740    1749    1809      10    1740    1749    1809    1812      10
    1737    1740    1749    1752       6    1737    1740   -1749    1752       7
    1728    1737    1740    1743       9    1728    1737    1740    1746       9
    1917    1914    1908    1926       6    1917    1914   -1908    1926       7
    1917    1914    1920    1923       8    1911    1908    1914    1917      10
    1911    1908    1914    1920       6    1911    1908   -1914    1920       7
    1911    1908    1926    1929       9    1908    1914    1920    1923       6
    1908    1914   -1920    1923      11    1899    1896    1902    1905      39
    1890    1884    1881    1893      15    1887    1884    1881    1893      15
    1881    1893    1896    1899      39    1878    1881    1884    1887      15
    1878    1881    1884    1890      15    1872    1869    1866    1905      22
    1872    1869    1875    1878      23    1866    1860    1914    1917      10
    1863    1860    1866    1869      14    1863    1860    1866    1905      14
    1863    1860    1914    1908      10    1863    1860    1914    1917      10
    1863    1860    1914    1920      10    1860    1866    1869    1872      22
    1860    1914    1908    1911      10    1860    1914    1920    1923       6
    1860    1914   -1920    1923      11    1857    1851    1908    1911       6
    1857    1851   -1908    1911       7    1857    1860    1914    1917       6
    1857    1860   -1914    1917       7    1854    1851    1857    1860       9
    1854    1851    1908    1911      10    1854    1851    1908    1914      10
    1854    1851    1908    1926       6    1854    1851   -1908    1926       7
    1851    1857    1860    1863       9    1851    1908    1914    1917      10
    1848    1842    1851    1854      10    1848    1842    1851    1857       6
    1848    1842   -1851    1857       7    1848    1842    1851    1908      10
    1845    1842    1851    1854      10    1845    1842    1851    1857       6
    1845    1842   -1851    1857       7    1845    1842    1851    1908      10
    1842    1851    1908    1911      10    1839    1842    1851    1854       6
    1839    1842   -1851    1854       7    1830    1839    1842    1845       9
    1830    1839    1842    1848       9    2007    2004    1998    2016       6
    2007    2004   -1998    2016       7    2007    2004    2010    2013       8
    2001    1998    2004    2007      10    2001    1998    2004    2010       6
    2001    1998   -2004    2010       7    2001    1998    2016    2019       9
    1998    2004    2010    2013       6    1998    2004   -2010    2013      11
    1989    1986    1992    1995      19    1983    1980    1986    1989      19
    1977    1974    1980    1983      45    1977    1974    1980    1986      45
    1974    1980    1986    1989      19    1971    1968    1965    1992      46
    1971    1968    1974    1977      47    1971    1968    1974    1980      47
    1965    1959    2004    2007      10    1965    1968    1974    1977      47
    1965    1992    1986    1989      19    1962    1959    1965    1968      14
    1962    1959    1965    1992      14    1962    1959    2004    1998      10
    1962    1959    2004    2007      10    1962    1959    2004    2010      10
    1959    1965    1968    1971      46    1959    2004    1998    2001      10
    1959    2004    2010    2013       6    1959    2004   -2010    2013      11
    1956    1950    1998    2001       6    1956    1950   -1998    2001       7
    1956    1959    2004    2007       6    1956    1959   -2004    2007       7
    1953    1950    1956    1959       9    1953    1950    1998    2001      10
    1953    1950    1998    2004      10    1953    1950    1998    2016       6
    1953    1950   -1998    2016       7    1950    1956    1959    1962       9
    1950    1998    2004    2007      10    1947    1941    1950    1953      10
    1947    1941    1950    1956       6    1947    1941   -1950    1956       7
    1947    1941    1950    1998      10    1944    1941    1950    1953      10
    1944    1941    1950    1956       6    1944    1941   -1950    1956       7
    1944    1941    1950    1998      10    1941    1950    1998    2001      10
    1938    1941    1950    1953       6    1938    1941   -1950    1953       7
    1929    1938    1941    1944       9    1929    1938    1941    1947       9
    2106    2103    2097    2115       6    2106    2103   -2097    2115       7
    2106    2103    2109    2112       8    2100    2097    2103    2106      10
    2100    2097    2103    2109       6    2100    2097   -2103    2109       7
    2100    2097    2115    2118       9    2097    2103    2109    2112       6
    2097    2103   -2109    2112      11    2088    2085    2091    2094      39
    2079    2073    2070    2082      15    2076    2073    2070    2082      15
    2070    2082    2085    2088      39    2067    2070    2073    2076      15
    2067    2070    2073    2079      15    2061    2058    2055    2094      22
    2061    2058    2064    2067      23    2055    2049    2103    2106      10
    2052    2049    2055    2058      14    2052    2049    2055    2094      14
    2052    2049    2103    2097      10    2052    2049    2103    2106      10
    2052    2049    2103    2109      10    2049    2055    2058    2061      22
    2049    2103    2097    2100      10    2049    2103    2109    2112       6
    2049    2103   -2109    2112      11    2046    2040    2097    2100       6
    2046    2040   -2097    2100       7    2046    2049    2103    2106       6
    2046    2049   -2103    2106       7    2043    2040    2046    2049       9
    2043    2040    2097    2100      10    2043    2040    2097    2103      10
    2043    2040    2097    2115       6    2043    2040   -2097    2115       7
    2040    2046    2049    2052       9    2040    2097    2103    2106      10
    2037    2031    2040    2043      10    2037    2031    2040    2046       6
    2037    2031   -2040    2046       7    2037    2031    2040    2097      10
    2034    2031    2040    2043      10    2034    2031    2040    2046       6
    2034    2031   -2040    2046       7    2034    2031    2040    2097      10
    2031    2040    2097    2100      10    2028    2031    2040    2043       6
    2028    2031   -2040    2043       7    2019    2028    2031    2034       9
    2019    2028    2031    2037       9    2196    2193    2187    2205       6
    2196    2193   -2187    2205       7    2196    2193    2199    2202       8
    2190    2187    2193    2196      10    2190    2187    2193    2199       6
    2190    2187   -2193    2199       7    2190    2187    2205    2208       9
    2187    2193    2199    2202       6    2187    2193   -2199    2202      11
    2178    2175    2181    2184      19    2172    2169    2175    2178      19
    2166    2163    2169    2172      45    2166    2163    2169    2175      45
    2163    2169    2175    2178      19    2160    2157    2154    2181      46
    2160    2157    2163    2166      47    2160    2157    2163    2169      47
    2154    2148    2193    2196      10    2154    2157    2163    2166      47
    2154    2181    2175    2178      19    2151    2148    2154    2157      14
    2151    2148    2154    2181      14    2151    2148    2193    2187      10
    2151    2148    2193    2196      10    2151    2148    2193    2199      10
    2148    2154    2157    2160      46    2148    2193    2187    2190      10
    2148    2193    2199    2202       6    2148    2193   -2199    2202      11
    2145    2139    2187    2190       6    2145    2139   -2187    2190       7
    2145    2148    2193    2196       6    2145    2148   -2193    2196       7
    2142    2139    2145    2148       9    2142    2139    2187    2190      10
    2142    2139    2187    2193      10    2142    2139    2187    2205       6
    2142    2139   -2187    2205       7    2139    2145    2148    2151       9
    2139    2187    2193    2196      10    2136    2130    2139    2142      10
    2136    2130    2139    2145       6    2136    2130   -2139    2145       7
    2136    2130    2139    2187      10    2133    2130    2139    2142      10
    2133    2130    2139    2145       6    2133    2130   -2139    2145       7
    2133    2130    2139    2187      10    2130    2139    2187    2190      10
    2127    2130    2139    2142       6    2127    2130   -2139    2142       7
    2118    2127    2130    2133       9    2118    2127    2130    2136       9
    2298    2295    2289    2307       6    2298    2295   -2289    2307       7
    2298    2295    2301    2304       8    2292    2289    2295    2298      10
    2292    2289    2295    2301       6    2292    2289   -2295    2301       7
    2292    2289    2307    2310       9    2289    2295    2301    2304       6
    2289    2295   -2301    2304      11    2280    2274    2271    2283      15
    2277    2274    2271    2283      15    2268    2265    2271    2274      17
    2268    2265    2271    2283      17    2265    2271    2274    2277      15
    2265    2271    2274    2280      15    2262    2259    2265    2268      19
    2256    2259    2265    2268      19    2250    2247    2244    2286      22
    2250    2247    2253    2256      23    2244    2238    2295    2298      10
    2241    2238    2244    2247      14    2241    2238    2244    2286      14
    2241    2238    2295    2289      10    2241    2238    2295    2298      10
    2241    2238    2295    2301      10    2238    2244    2247    2250      22
    2238    2295    2289    2292      10    2238    2295    2301    2304       6
    2238    2295   -2301    2304      11    2235    2229    2289    2292       6
    2235    2229   -2289    2292       7    2235    2238    2295    2298       6
    2235    2238   -2295    2298       7    2232    2229    2235    2238       9
    2232    2229    2289    2292      10    2232    2229    2289    2295      10
    2232    2229    2289    2307       6    2232    2229   -2289    2307       7
    2229    2235    2238    2241       9    2229    2289    2295    2298      10
    2226    2220    2229    2232      10    2226    2220    2229    2235       6
    2226    2220   -2229    2235       7    2226    2220    2229    2289      10
    2223    2220    2229    2232      10    2223    2220    2229    2235       6
    2223    2220   -2229    2235       7    2223    2220    2229    2289      10
    2220    2229    2289    2292      10    2217    2220    2229    2232       6
    2217    2220   -2229    2232       7    2208    2217    2220    2223       9
    2208    2217    2220    2226       9    2400    2397    2391    2409       6
    2400    2397   -2391    2409       7    2400    2397    2403    2406       8
    2394    2391    2397    2400      10    2394    2391    2397    2403       6
    2394    2391   -2397    2403       7    2394    2391    2409    2412       9
    2391    2397    2403    2406       6    2391    2397   -2403    2406      11
    2382    2376    2373    2385      15    2379    2376    2373    2385      15
    2370    2367    2373    2376      17    2370    2367    2373    2385      17
    2367    2373    2376    2379      15    2367    2373    2376    2382      15
    2364    2361    2367    2370      19    2358    2361    2367    2370      19
    2352    2349    2346    2388      22    2352    2349    2355    2358      23
    2346    2340    2397    2400      10    2343    2340    2346    2349      14
    2343    2340    2346    2388      14    2343    2340    2397    2391      10
    2343    2340    2397    2400      10    2343    2340    2397    2403      10
    2340    2346    2349    2352      22    2340    2397    2391    2394      10
    2340    2397    2403    2406       6    2340    2397   -2403    2406      11
    2337    2331    2391    2394       6    2337    2331   -2391    2394       7
    2337    2340    2397    2400       6    2337    2340   -2397    2400       7
    2334    2331    2337    2340       9    2334    2331    2391    2394      10
    2334    2331    2391    2397      10    2334    2331    2391    2409       6
    2334    2331   -2391    2409       7    2331    2337    2340    2343       9
    2331    2391    2397    2400      10    2328    2322    2331    2334      10
    2328    2322    2331    2337       6    2328    2322   -2331    2337       7
    2328    2322    2331    2391      10    2325    2322    2331    2334      10
    2325    2322    2331    2337       6    2325    2322   -2331    2337       7
    2325    2322    2331    2391      10    2322    2331    2391    2394      10
    2319    2322    2331    2334       6    2319    2322   -2331    2334       7
    2310    2319    2322    2325       9    2310    2319    2322    2328       9
    2493    2490    2484    2502       6    2493    2490   -2484    2502       7
    2493    2490    2496    2499       8    2487    2484    2490    2493      10
    2487    2484    2490    2496       6    2487    2484   -2490    2496       7
    2487    2484    2502    2505       9    2484    2490    2496    2499       6
    2484    2490   -2496    2499      11    2472    2466    2463    2475      15
    2469    2466    2463    2475      15    2460    2457    2463    2466      25
    2460    2457    2463    2475      25    2457    2463    2466    2469      15
    2457    2463    2466    2472      15    2454    2451    2448    2478      46
    2454    2451    2457    2460      47    2454    2451    2457    2463      47
    2448    2442    2490    2493      10    2448    2451    2457    2460      47
    2445    2442    2448    2451      14    2445    2442    2448    2478      14
    2445    2442    2490    2484      10    2445    2442    2490    2493      10
    2445    2442    2490    2496      10    2442    2448    2451    2454      46
    2442    2490    2484    2487      10    2442    2490    2496    2499       6
    2442    2490   -2496    2499      11    2439    2433    2484    2487       6
    2439    2433   -2484    2487       7    2439    2442    2490    2493       6
    2439    2442   -2490    2493       7    2436    2433    2439    2442       9
    2436    2433    2484    2487      10    2436    2433    2484    2490      10
    2436    2433    2484    2502       6    2436    2433   -2484    2502       7
    2433    2439    2442    2445       9    2433    2484    2490    2493      10
    2430    2424    2433    2436      10    2430    2424    2433    2439       6
    2430    2424   -2433    2439       7    2430    2424    2433    2484      10
    2427    2424    2433    2436      10    2427    2424    2433    2439       6
    2427    2424   -2433    2439       7    2427    2424    2433    2484      10
    2424    2433    2484    2487      10    2421    2424    2433    2436       6
    2421    2424   -2433    2436       7    2412    2421    2424    2427       9
    2412    2421    2424    2430       9    2592    2589    2583    2601       6
    2592    2589   -2583    2601       7    2592    2589    2595    2598       8
    2586    2583    2589    2592      10    2586    2583    2589    2595       6
    2586    2583   -2589    2595       7    2586    2583    2601    2604       9
    2583    2589    2595    2598       6    2583    2589   -2595    2598      11
    2574    2571    2577    2580      39    2565    2559    2556    2568      15
    2562    2559    2556    2568      15    2556    2568    2571    2574      39
    2553    2556    2559    2562      15    2553    2556    2559    2565      15
    2547    2544    2541    2580      22    2547    2544    2550    2553      23
    2541    2535    2589    2592      10    2538    2535    2541    2544      14
    2538    2535    2541    2580      14    2538    2535    2589    2583      10
    2538    2535    2589    2592      10    2538    2535    2589    2595      10
    2535    2541    2544    2547      22    2535    2589    2583    2586      10
    2535    2589    2595    2598       6    2535    2589   -2595    2598      11
    2532    2526    2583    2586       6    2532    2526   -2583    2586       7
    2532    2535    2589    2592       6    2532    2535   -2589    2592       7
    2529    2526    2532    2535       9    2529    2526    2583    2586      10
    2529    2526    2583    2589      10    2529    2526    2583    2601       6
    2529    2526   -2583    2601       7    2526    2532    2535    2538       9
    2526    2583    2589    2592      10    2523    2517    2526    2529      10
    2523    2517    2526    2532       6    2523    2517   -2526    2532       7
    2523    2517    2526    2583      10    2520    2517    2526    2529      10
    2520    2517    2526    2532       6    2520    2517   -2526    2532       7
    2520    2517    2526    2583      10    2517    2526    2583    2586      10
    2514    2517    2526    2529       6    2514    2517   -2526    2529       7
    2505    2514    2517    2520       9    2505    2514    2517    2523       9
    2685    2682    2676    2694       6    2685    2682   -2676    2694       7
    2685    2682    2688    2691       8    2679    2676    2682    2685      10
    2679    2676    2682    2688       6    2679    2676   -2682    2688       7
    2679    2676    2694    2697       9    2676    2682    2688    2691       6
    2676    2682   -2688    2691      11    2664    2658    2655    2667      15
    2661    2658    2655    2667      15    2652    2649    2655    2658      25
    2652    2649    2655    2667      25    2649    2655    2658    2661      15
    2649    2655    2658    2664      15    2646    2643    2640    2670      46
    2646    2643    2649    2652      47    2646    2643    2649    2655      47
    2640    2634    2682    2685      10    2640    2643    2649    2652      47
    2637    2634    2640    2643      14    2637    2634    2640    2670      14
    2637    2634    2682    2676      10    2637    2634    2682    2685      10
    2637    2634    2682    2688      10    2634    2640    2643    2646      46
    2634    2682    2676    2679      10    2634    2682    2688    2691       6
    2634    2682   -2688    2691      11    2631    2625    2676    2679       6
    2631    2625   -2676    2679       7    2631    2634    2682    2685       6
    2631    2634   -2682    2685       7    2628    2625    2631    2634       9
    2628    2625    2676    2679      10    2628    2625    2676    2682      10
    2628    2625    2676    2694       6    2628    2625   -2676    2694       7
    2625    2631    2634    2637       9    2625    2676    2682    2685      10
    2622    2616    2625    2628      10    2622    2616    2625    2631       6
    2622    2616   -2625    2631       7    2622    2616    2625    2676      10
    2619    2616    2625    2628      10    2619    2616    2625    2631       6
    2619    2616   -2625    2631       7    2619    2616    2625    2676      10
    2616    2625    2676    2679      10    2613    2616    2625    2628       6
    2613    2616   -2625    2628       7    2604    2613    2616    2619       9
    2604    2613    2616    2622       9    2787    2784    2778    2796       6
    2787    2784   -2778    2796       7    2787    2784    2790    2793       8
    2781    2778    2784    2787      10    2781    2778    2784    2790       6
    2781    2778   -2784    2790       7    2781    2778    2796    2799       9
    2778    2784    2790    2793       6    2778    2784   -2790    2793      11
    2769    2763    2760    2772      15    2766    2763    2760    2772      15
    2757    2754    2760    2763      17    2757    2754    2760    2772      17
    2754    2760    2763    2766      15    2754    2760    2763    2769      15
    2751    2748    2754    2757      19    2745    2748    2754    2757      19
    2739    2736    2733    2775      22    2739    2736    2742    2745      23
    2733    2727    2784    2787      10    2730    2727    2733    2736      14
    2730    2727    2733    2775      14    2730    2727    2784    2778      10
    2730    2727    2784    2787      10    2730    2727    2784    2790      10
    2727    2733    2736    2739      22    2727    2784    2778    2781      10
    2727    2784    2790    2793       6    2727    2784   -2790    2793      11
    2724    2718    2778    2781       6    2724    2718   -2778    2781       7
    2724    2727    2784    2787       6    2724    2727   -2784    2787       7
    2721    2718    2724    2727       9    2721    2718    2778    2781      10
    2721    2718    2778    2784      10    2721    2718    2778    2796       6
    2721    2718   -2778    2796       7    2718    2724    2727    2730       9
    2718    2778    2784    2787      10    2715    2709    2718    2721      10
    2715    2709    2718    2724       6    2715    2709   -2718    2724       7
    2715    2709    2718    2778      10    2712    2709    2718    2721      10
    2712    2709    2718    2724       6    2712    2709   -2718    2724       7
    2712    2709    2718    2778      10    2709    2718    2778    2781      10
    2706    2709    2718    2721       6    2706    2709   -2718    2721       7
    2697    2706    2709    2712       9    2697    2706    2709    2715       9
    2880    2877    2871    2889       6    2880    2877   -2871    2889       7
    2880    2877    2883    2886       8    2874    2871    2877    2880      10
    2874    2871    2877    2883       6    2874    2871   -2877    2883       7
    2874    2871    2889    2892       9    2871    2877    2883    2886       6
    2871    2877   -2883    2886      11    2859    2853    2850    2862      15
    2856    2853    2850    2862      15    2847    2844    2850    2853      25
    2847    2844    2850    2862      25    2844    2850    2853    2856      15
    2844    2850    2853    2859      15    2841    2838    2835    2865      46
    2841    2838    2844    2847      47    2841    2838    2844    2850      47
    2835    2829    2877    2880      10    2835    2838    2844    2847      47
    2832    2829    2835    2838      14    2832    2829    2835    2865      14
    2832    2829    2877    2871      10    2832    2829    2877    2880      10
    2832    2829    2877    2883      10    2829    2835    2838    2841      46
    2829    2877    2871    2874      10    2829    2877    2883    2886       6
    2829    2877   -2883    2886      11    2826    2820    2871    2874       6
    2826    2820   -2871    2874       7    2826    2829    2877    2880       6
    2826    2829   -2877    2880       7    2823    2820    2826    2829       9
    2823    2820    2871    2874      10    2823    2820    2871    2877      10
    2823    2820    2871    2889       6    2823    2820   -2871    2889       7
    2820    2826    2829    2832       9    2820    2871    2877    2880      10
    2817    2811    2820    2823      10    2817    2811    2820    2826       6
    2817    2811   -2820    2826       7    2817    2811    2820    2871      10
    2814    2811    2820    2823      10    2814    2811    2820    2826       6
    2814    2811   -2820    2826       7    2814    2811    2820    2871      10
    2811    2820    2871    2874      10    2808    2811    2820    2823       6
    2808    2811   -2820    2823       7    2799    2808    2811    2814       9
    2799    2808    2811    2817       9    2979    2976    2970    2988       6
    2979    2976   -2970    2988       7    2979    2976    2982    2985       8
    2973    2970    2976    2979      10    2973    2970    2976    2982       6
    2973    2970   -2976    2982       7    2973    2970    2988    2991       9
    2970    2976    2982    2985       6    2970    2976   -2982    2985      11
    2961    2958    2964    2967      39    2952    2946    2943    2955      15
    2949    2946    2943    2955      15    2943    2955    2958    2961      39
    2940    2943    2946    2949      15    2940    2943    2946    2952      15
    2934    2931    2928    2967      22    2934    2931    2937    2940      23
    2928    2922    2976    2979      10    2925    2922    2928    2931      14
    2925    2922    2928    2967      14    2925    2922    2976    2970      10
    2925    2922    2976    2979      10    2925    2922    2976    2982      10
    2922    2928    2931    2934      22    2922    2976    2970    2973      10
    2922    2976    2982    2985       6    2922    2976   -2982    2985      11
    2919    2913    2970    2973       6    2919    2913   -2970    2973       7
    2919    2922    2976    2979       6    2919    2922   -2976    2979       7
    2916    2913    2919    2922       9    2916    2913    2970    2973      10
    2916    2913    2970    2976      10    2916    2913    2970    2988       6
    2916    2913   -2970    2988       7    2913    2919    2922    2925       9
    2913    2970    2976    2979      10    2910    2904    2913    2916      10
    2910    2904    2913    2919       6    2910    2904   -2913    2919       7
    2910    2904    2913    2970      10    2907    2904    2913    2916      10
    2907    2904    2913    2919       6    2907    2904   -2913    2919       7
    2907    2904    2913    2970      10    2904    2913    2970    2973      10
    2901    2904    2913    2916       6    2901    2904   -2913    2916       7
    2892    2901    2904    2907       9    2892    2901    2904    2910       9
    3078    3075    3069    3087       6    3078    3075   -3069    3087       7
    3078    3075    3081    3084       8    3072    3069    3075    3078      10
    3072    3069    3075    3081       6    3072    3069   -3075    3081       7
    3072    3069    3087    3090       9    3069    3075    3081    3084       6
    3069    3075   -3081    3084      11    3060    3057    3063    3066      39
    3051    3045    3042    3054      15    3048    3045    3042    3054      15
    3042    3054    3057    3060      39    3039    3042    3045    3048      15
    3039    3042    3045    3051      15    3033    3030    3027    3066      22
    3033    3030    3036    3039      23    3027    3021    3075    3078      10
    3024    3021    3027    3030      14    3024    3021    3027    3066      14
    3024    3021    3075    3069      10    3024    3021    3075    3078      10
    3024    3021    3075    3081      10    3021    3027    3030    3033      22
    3021    3075    3069    3072      10    3021    3075    3081    3084       6
    3021    3075   -3081    3084      11    3018    3012    3069    3072       6
    3018    3012   -3069    3072       7    3018    3021    3075    3078       6
    3018    3021   -3075    3078       7    3015    3012    3018    3021       9
    3015    3012    3069    3072      10    3015    3012    3069    3075      10
    3015    3012    3069    3087       6    3015    3012   -3069    3087       7
    3012    3018    3021    3024       9    3012    3069    3075    3078      10
    3009    3003    3012    3015      10    3009    3003    3012    3018       6
    3009    3003   -3012    3018       7    3009    3003    3012    3069      10
    3006    3003    3012    3015      10    3006    3003    3012    3018       6
    3006    3003   -3012    3018       7    3006    3003    3012    3069      10
    3003    3012    3069    3072      10    3000    3003    3012    3015       6
    3000    3003   -3012    3015       7    2991    3000    3003    3006       9
    2991    3000    3003    3009       9    3180    3177    3171    3189       6
    3180    3177   -3171    3189       7    3180    3177    3183    3186       8
    3174    3171    3177    3180      10    3174    3171    3177    3183       6
    3174    3171   -3177    3183       7    3174    3171    3189    3192       9
    3171    3177    3183    3186       6    3171    3177   -3183    3186      11
    3162    3156    3153    3165      15    3159    3156    3153    3165      15
    3150    3147    3153    3156      17    3150    3147    3153    3165      17
    3147    3153    3156    3159      15    3147    3153    3156    3162      15
    3144    3141    3147    3150      19    3138    3141    3147    3150      19
    3132    3129    3126    3168      22    3132    3129    3135    3138      23
    3126    3120    3177    3180      10    3123    3120    3126    3129      14
    3123    3120    3126    3168      14    3123    3120    3177    3171      10
    3123    3120    3177    3180      10    3123    3120    3177    3183      10
    3120    3126    3129    3132      22    3120    3177    3171    3174      10
    3120    3177    3183    3186       6    3120    3177   -3183    3186      11
    3117    3111    3171    3174       6    3117    3111   -3171    3174       7
    3117    3120    3177    3180       6    3117    3120   -3177    3180       7
    3114    3111    3117    3120       9    3114    3111    3171    3174      10
    3114    3111    3171    3177      10    3114    3111    3171    3189       6
    3114    3111   -3171    3189       7    3111    3117    3120    3123       9
    3111    3171    3177    3180      10    3108    3102    3111    3114      10
    3108    3102    3111    3117       6    3108    3102   -3111    3117       7
    3108    3102    3111    3171      10    3105    3102    3111    3114      10
    3105    3102    3111    3117       6    3105    3102   -3111    3117       7
    3105    3102    3111    3171      10    3102    3111    3171    3174      10
    3099    3102    3111    3114       6    3099    3102   -3111    3114       7
    3090    3099    3102    3105       9    3090    3099    3102    3108       9
    3270    3267    3261    3279       6    3270    3267   -3261    3279       7
    3270    3267    3273    3276       8    3264    3261    3267    3270      10
    3264    3261    3267    3273       6    3264    3261   -3267    3273       7
    3264    3261    3279    3282       9    3261    3267    3273    3276       6
    3261    3267   -3273    3276      11    3252    3249    3255    3258      19
    3246    3243    3249    3252      19    3240    3237    3243    3246      45
    3240    3237    3243    3249      45    3237    3243    3249    3252      19
    3234    3231    3228    3255      46    3234    3231    3237    3240      47
    3234    3231    3237    3243      47    3228    3222    3267    3270      10
    3228    3231    3237    3240      47    3228    3255    3249    3252      19
    3225    3222    3228    3231      14    3225    3222    3228    3255      14
    3225    3222    3267    3261      10    3225    3222    3267    3270      10
    3225    3222    3267    3273      10    3222    3228    3231    3234      46
    3222    3267    3261    3264      10    3222    3267    3273    3276       6
    3222    3267   -3273    3276      11    3219    3213    3261    3264       6
    3219    3213   -3261    3264       7    3219    3222    3267    3270       6
    3219    3222   -3267    3270       7    3216    3213    3219    3222       9
    3216    3213    3261    3264      10    3216    3213    3261    3267      10
    3216    3213    3261    3279       6    3216    3213   -3261    3279       7
    3213    3219    3222    3225       9    3213    3261    3267    3270      10
    3210    3204    3213    3216      10    3210    3204    3213    3219       6
    3210    3204   -3213    3219       7    3210    3204    3213    3261      10
    3207    3204    3213    3216      10    3207    3204    3213    3219       6
    3207    3204   -3213    3219       7    3207    3204    3213    3261      10
    3204    3213    3261    3264      10    3201    3204    3213    3216       6
    3201    3204   -3213    3216       7    3192    3201    3204    3207       9
    3192    3201    3204    3210       9    3360    3357    3351    3369       6
    3360    3357   -3351    3369       7    3360    3357    3363    3366       8
    3354    3351    3357    3360      10    3354    3351    3357    3363       6
    3354    3351   -3357    3363       7    3354    3351    3369    3372       9
    3351    3357    3363    3366       6    3351    3357   -3363    3366      11
    3342    3339    3345    3348      19    3336    3333    3339    3342      19
    3330    3327    3333    3336      45    3330    3327    3333    3339      45
    3327    3333    3339    3342      19    3324    3321    3318    3345      46
    3324    3321    3327    3330      47    3324    3321    3327    3333      47
    3318    3312    3357    3360      10    3318    3321    3327    3330      47
    3318    3345    3339    3342      19    3315    3312    3318    3321      14
    3315    3312    3318    3345      14    3315    3312    3357    3351      10
    3315    3312    3357    3360      10    3315    3312    3357    3363      10
    3312    3318    3321    3324      46    3312    3357    3351    3354      10
    3312    3357    3363    3366       6    3312    3357   -3363    3366      11
    3309    3303    3351    3354       6    3309    3303   -3351    3354       7
    3309    3312    3357    3360       6    3309    3312   -3357    3360       7
    3306    3303    3309    3312       9    3306    3303    3351    3354      10
    3306    3303    3351    3357      10    3306    3303    3351    3369       6
    3306    3303   -3351    3369       7    3303    3309    3312    3315       9
    3303    3351    3357    3360      10    3300    3294    3303    3306      10
    3300    3294    3303    3309       6    3300    3294   -3303    3309       7
    3300    3294    3303    3351      10    3297    3294    3303    3306      10
    3297    3294    3303    3309       6    3297    3294   -3303    3309       7
    3297    3294    3303    3351      10    3294    3303    3351    3354      10
    3291    3294    3303    3306       6    3291    3294   -3303    3306       7
    3282    3291    3294    3297       9    3282    3291    3294    3300       9
    3450    3447    3441    3459       6    3450    3447   -3441    3459       7
    3450    3447    3453    3456       8    3444    3441    3447    3450      10
    3444    3441    3447    3453       6    3444    3441   -3447    3453       7
    3444    3441    3459    3462       9    3441    3447    3453    3456       6
    3441    3447   -3453    3456      11    3432    3429    3435    3438      19
    3426    3423    3429    3432      19    3420    3417    3423    3426      45
    3420    3417    3423    3429      45    3417    3423    3429    3432      19
    3414    3411    3408    3435      46    3414    3411    3417    3420      47
    3414    3411    3417    3423      47    3408    3402    3447    3450      10
    3408    3411    3417    3420      47    3408    3435    3429    3432      19
    3405    3402    3408    3411      14    3405    3402    3408    3435      14
    3405    3402    3447    3441      10    3405    3402    3447    3450      10
    3405    3402    3447    3453      10    3402    3408    3411    3414      46
    3402    3447    3441    3444      10    3402    3447    3453    3456       6
    3402    3447   -3453    3456      11    3399    3393    3441    3444       6
    3399    3393   -3441    3444       7    3399    3402    3447    3450       6
    3399    3402   -3447    3450       7    3396    3393    3399    3402       9
    3396    3393    3441    3444      10    3396    3393    3441    3447      10
    3396    3393    3441    3459       6    3396    3393   -3441    3459       7
    3393    3399    3402    3405       9    3393    3441    3447    3450      10
    3390    3384    3393    3396      10    3390    3384    3393    3399       6
    3390    3384   -3393    3399       7    3390    3384    3393    3441      10
    3387    3384    3393    3396      10    3387    3384    3393    3399       6
    3387    3384   -3393    3399       7    3387    3384    3393    3441      10
    3384    3393    3441    3444      10    3381    3384    3393    3396       6
    3381    3384   -3393    3396       7    3372    3381    3384    3387       9
    3372    3381    3384    3390       9    3543    3540    3534    3552       6
    3543    3540   -3534    3552       7    3543    3540    3546    3549       8
    3537    3534    3540    3543      10    3537    3534    3540    3546       6
    3537    3534   -3540    3546       7    3537    3534    3552    3555       9
    3534    3540    3546    3549       6    3534    3540   -3546    3549      11
    3522    3516    3513    3525      15    3519    3516    3513    3525      15
    3510    3507    3513    3516      25    3510    3507    3513    3525      25
    3507    3513    3516    3519      15    3507    3513    3516    3522      15
    3504    3501    3498    3528      46    3504    3501    3507    3510      47
    3504    3501    3507    3513      47    3498    3492    3540    3543      10
    3498    3501    3507    3510      47    3495    3492    3498    3501      14
    3495    3492    3498    3528      14    3495    3492    3540    3534      10
    3495    3492    3540    3543      10    3495    3492    3540    3546      10
    3492    3498    3501    3504      46    3492    3540    3534    3537      10
    3492    3540    3546    3549       6    3492    3540   -3546    3549      11
    3489    3483    3534    3537       6    3489    3483   -3534    3537       7
    3489    3492    3540    3543       6    3489    3492   -3540    3543       7
    3486    3483    3489    3492       9    3486    3483    3534    3537      10
    3486    3483    3534    3540      10    3486    3483    3534    3552       6
    3486    3483   -3534    3552       7    3483    3489    3492    3495       9
    3483    3534    3540    3543      10    3480    3474    3483    3486      10
    3480    3474    3483    3489       6    3480    3474   -3483    3489       7
    3480    3474    3483    3534      10    3477    3474    3483    3486      10
    3477    3474    3483    3489       6    3477    3474   -3483    3489       7
    3477    3474    3483    3534      10    3474    3483    3534    3537      10
    3471    3474    3483    3486       6    3471    3474   -3483    3486       7
    3462    3471    3474    3477       9    3462    3471    3474    3480       9
    3633    3630    3624    3642       6    3633    3630   -3624    3642       7
    3633    3630    3636    3639       8    3627    3624    3630    3633      10
    3627    3624    3630    3636       6    3627    3624   -3630    3636       7
    3627    3624    3642    3645       9    3624    3630    3636    3639       6
    3624    3630   -3636    3639      11    3615    3612    3618    3621      19
    3609    3606    3612    3615      19    3603    3600    3606    3609      45
    3603    3600    3606    3612      45    3600    3606    3612    3615      19
    3597    3594    3591    3618      46    3597    3594    3600    3603      47
    3597    3594    3600    3606      47    3591    3585    3630    3633      10
    3591    3594    3600    3603      47    3591    3618    3612    3615      19
    3588    3585    3591    3594      14    3588    3585    3591    3618      14
    3588    3585    3630    3624      10    3588    3585    3630    3633      10
    3588    3585    3630    3636      10    3585    3591    3594    3597      46
    3585    3630    3624    3627      10    3585    3630    3636    3639       6
    3585    3630   -3636    3639      11    3582    3576    3624    3627       6
    3582    3576   -3624    3627       7    3582    3585    3630    3633       6
    3582    3585   -3630    3633       7    3579    3576    3582    3585       9
    3579    3576    3624    3627      10    3579    3576    3624    3630      10
    3579    3576    3624    3642       6    3579    3576   -3624    3642       7
    3576    3582    3585    3588       9    3576    3624    3630    3633      10
    3573    3567    3576    3579      10    3573    3567    3576    3582       6
    3573    3567   -3576    3582       7    3573    3567    3576    3624      10
    3570    3567    3576    3579      10    3570    3567    3576    3582       6
    3570    3567   -3576    3582       7    3570    3567    3576    3624      10
    3567    3576    3624    3627      10    3564    3567    3576    3579       6
    3564    3567   -3576    3579       7    3555    3564    3567    3570       9
    3555    3564    3567    3573       9    3732    3729    3723    3741       6
    3732    3729   -3723    3741       7    3732    3729    3735    3738       8
    3726    3723    3729    3732      10    3726    3723    3729    3735       6
    3726    3723   -3729    3735       7    3726    3723    3741    3744       9
    3723    3729    3735    3738       6    3723    3729   -3735    3738      11
    3714    3711    3717    3720      39    3705    3699    3696    3708      15
    3702    3699    3696    3708      15    3696    3708    3711    3714      39
    3693    3696    3699    3702      15    3693    3696    3699    3705      15
    3687    3684    3681    3720      22    3687    3684    3690    3693      23
    3681    3675    3729    3732      10    3678    3675    3681    3684      14
    3678    3675    3681    3720      14    3678    3675    3729    3723      10
    3678    3675    3729    3732      10    3678    3675    3729    3735      10
    3675    3681    3684    3687      22    3675    3729    3723    3726      10
    3675    3729    3735    3738       6    3675    3729   -3735    3738      11
    3672    3666    3723    3726       6    3672    3666   -3723    3726       7
    3672    3675    3729    3732       6    3672    3675   -3729    3732       7
    3669    3666    3672    3675       9    3669    3666    3723    3726      10
    3669    3666    3723    3729      10    3669    3666    3723    3741       6
    3669    3666   -3723    3741       7    3666    3672    3675    3678       9
    3666    3723    3729    3732      10    3663    3657    3666    3669      10
    3663    3657    3666    3672       6    3663    3657   -3666    3672       7
    3663    3657    3666    3723      10    3660    3657    3666    3669      10
    3660    3657    3666    3672       6    3660    3657   -3666    3672       7
    3660    3657    3666    3723      10    3657    3666    3723    3726      10
    3654    3657    3666    3669       6    3654    3657   -3666    3669       7
    3645    3654    3657    3660       9    3645    3654    3657    3663       9
    3825    3822    3816    3834       6    3825    3822   -3816    3834       7
    3825    3822    3828    3831       8    3819    3816    3822    3825      10
    3819    3816    3822    3828       6    3819    3816   -3822    3828       7
    3819    3816    3834    3837       9    3816    3822    3828    3831       6
    3816    3822   -3828    3831      11    3804    3798    3795    3807      15
    3801    3798    3795    3807      15    3792    3789    3795    3798      25
    3792    3789    3795    3807      25    3789    3795    3798    3801      15
    3789    3795    3798    3804      15    3786    3783    3780    3810      46
    3786    3783    3789    3792      47    3786    3783    3789    3795      47
    3780    3774    3822    3825      10    3780    3783    3789    3792      47
    3777    3774    3780    3783      14    3777    3774    3780    3810      14
    3777    3774    3822    3816      10    3777    3774    3822    3825      10
    3777    3774    3822    3828      10    3774    3780    3783    3786      46
    3774    3822    3816    3819      10    3774    3822    3828    3831       6
    3774    3822   -3828    3831      11    3771    3765    3816    3819       6
    3771    3765   -3816    3819       7    3771    3774    3822    3825       6
    3771    3774   -3822    3825       7    3768    3765    3771    3774       9
    3768    3765    3816    3819      10    3768    3765    3816    3822      10
    3768    3765    3816    3834       6    3768    3765   -3816    3834       7
    3765    3771    3774    3777       9    3765    3816    3822    3825      10
    3762    3756    3765    3768      10    3762    3756    3765    3771       6
    3762    3756   -3765    3771       7    3762    3756    3765    3816      10
    3759    3756    3765    3768      10    3759    3756    3765    3771       6
    3759    3756   -3765    3771       7    3759    3756    3765    3816      10
    3756    3765    3816    3819      10    3753    3756    3765    3768       6
    3753    3756   -3765    3768       7    3744    3753    3756    3759       9
    3744    3753    3756    3762       9    3918    3915    3909    3927       6
    3918    3915   -3909    3927       7    3918    3915    3921    3924       8
    3912    3909    3915    3918      10    3912    3909    3915    3921       6
    3912    3909   -3915    3921       7    3912    3909    3927    3930       9
    3909    3915    3921    3924       6    3909    3915   -3921    3924      11
    3897    3891    3888    3900      15    3894    3891    3888    3900      15
    3885    3882    3888    3891      25    3885    3882    3888    3900      25
    3882    3888    3891    3894      15    3882    3888    3891    3897      15
    3879    3876    3873    3903      46    3879    3876    3882    3885      47
    3879    3876    3882    3888      47    3873    3867    3915    3918      10
    3873    3876    3882    3885      47    3870    3867    3873    3876      14
    3870    3867    3873    3903      14    3870    3867    3915    3909      10
    3870    3867    3915    3918      10    3870    3867    3915    3921      10
    3867    3873    3876    3879      46    3867    3915    3909    3912      10
    3867    3915    3921    3924       6    3867    3915   -3921    3924      11
    3864    3858    3909    3912       6    3864    3858   -3909    3912       7
    3864    3867    3915    3918       6    3864    3867   -3915    3918       7
    3861    3858    3864    3867       9    3861    3858    3909    3912      10
    3861    3858    3909    3915      10    3861    3858    3909    3927       6
    3861    3858   -3909    3927       7    3858    3864    3867    3870       9
    3858    3909    3915    3918      10    3855    3849    3858    3861      10
    3855    3849    3858    3864       6    3855    3849   -3858    3864       7
    3855    3849    3858    3909      10    3852    3849    3858    3861      10
    3852    3849    3858    3864       6    3852    3849   -3858    3864       7
    3852    3849    3858    3909      10    3849    3858    3909    3912      10
    3846    3849    3858    3861       6    3846    3849   -3858    3861       7
    3837    3846    3849    3852       9    3837    3846    3849    3855       9
    4020    4017    4011    4029       6    4020    4017   -4011    4029       7
    4020    4017    4023    4026       8    4014    4011    4017    4020      10
    4014    4011    4017    4023       6    4014    4011   -4017    4023       7
    4014    4011    4029    4032       9    4011    4017    4023    4026       6
    4011    4017   -4023    4026      11    4002    3996    3993    4005      15
    3999    3996    3993    4005      15    3990    3987    3993    3996      17
    3990    3987    3993    4005      17    3987    3993    3996    3999      15
    3987    3993    3996    4002      15    3984    3981    3987    3990      19
    3978    3981    3987    3990      19    3972    3969    3966    4008      22
    3972    3969    3975    3978      23    3966    3960    4017    4020      10
    3963    3960    3966    3969      14    3963    3960    3966    4008      14
    3963    3960    4017    4011      10    3963    3960    4017    4020      10
    3963    3960    4017    4023      10    3960    3966    3969    3972      22
    3960    4017    4011    4014      10    3960    4017    4023    4026       6
    3960    4017   -4023    4026      11    3957    3951    4011    4014       6
    3957    3951   -4011    4014       7    3957    3960    4017    4020       6
    3957    3960   -4017    4020       7    3954    3951    3957    3960       9
    3954    3951    4011    4014      10    3954    3951    4011    4017      10
    3954    3951    4011    4029       6    3954    3951   -4011    4029       7
    3951    3957    3960    3963       9    3951    4011    4017    4020      10
    3948    3942    3951    3954      10    3948    3942    3951    3957       6
    3948    3942   -3951    3957       7    3948    3942    3951    4011      10
    3945    3942    3951    3954      10    3945    3942    3951    3957       6
    3945    3942   -3951    3957       7    3945    3942    3951    4011      10
    3942    3951    4011    4014      10    3939    3942    3951    3954       6
    3939    3942   -3951    3954       7    3930    3939    3942    3945       9
    3930    3939    3942    3948       9    4122    4119    4113    4131       6
    4122    4119   -4113    4131       7    4122    4119    4125    4128       8
    4116    4113    4119    4122      10    4116    4113    4119    4125       6
    4116    4113   -4119    4125       7    4116    4113    4131    4134       9
    4113    4119    4125    4128       6    4113    4119   -4125    4128      11
    4104    4098    4095    4107      15    4101    4098    4095    4107      15
    4092    4089    4095    4098      17    4092    4089    4095    4107      17
    4089    4095    4098    4101      15    4089    4095    4098    4104      15
    4086    4083    4089    4092      19    4080    4083    4089    4092      19
    4074    4071    4068    4110      22    4074    4071    4077    4080      23
    4068    4062    4119    4122      10    4065    4062    4068    4071      14
    4065    4062    4068    4110      14    4065    4062    4119    4113      10
    4065    4062    4119    4122      10    4065    4062    4119    4125      10
    4062    4068    4071    4074      22    4062    4119    4113    4116      10
    4062    4119    4125    4128       6    4062    4119   -4125    4128      11
    4059    4053    4113    4116       6    4059    4053   -4113    4116       7
    4059    4062    4119    4122       6    4059    4062   -4119    4122       7
    4056    4053    4059    4062       9    4056    4053    4113    4116      10
    4056    4053    4113    4119      10    4056    4053    4113    4131       6
    4056    4053   -4113    4131       7    4053    4059    4062    4065       9
    4053    4113    4119    4122      10    4050    4044    4053    4056      10
    4050    4044    4053    4059       6    4050    4044   -4053    4059       7
    4050    4044    4053    4113      10    4047    4044    4053    4056      10
    4047    4044    4053    4059       6    4047    4044   -4053    4059       7
    4047    4044    4053    4113      10    4044    4053    4113    4116      10
    4041    4044    4053    4056       6    4041    4044   -4053    4056       7
    4032    4041    4044    4047       9    4032    4041    4044    4050       9
    4224    4221    4215    4233       6    4224    4221   -4215    4233       7
    4224    4221    4227    4230       8    4218    4215    4221    4224      10
    4218    4215    4221    4227       6    4218    4215   -4221    4227       7
    4218    4215    4233    4236       9    4215    4221    4227    4230       6
    4215    4221   -4227    4230      11    4206    4200    4197    4209      15
    4203    4200    4197    4209      15    4194    4191    4197    4200      17
    4194    4191    4197    4209      17    4191    4197    4200    4203      15
    4191    4197    4200    4206      15    4188    4185    4191    4194      19
    4182    4185    4191    4194      19    4176    4173    4170    4212      22
    4176    4173    4179    4182      23    4170    4164    4221    4224      10
    4167    4164    4170    4173      14    4167    4164    4170    4212      14
    4167    4164    4221    4215      10    4167    4164    4221    4224      10
    4167    4164    4221    4227      10    4164    4170    4173    4176      22
    4164    4221    4215    4218      10    4164    4221    4227    4230       6
    4164    4221   -4227    4230      11    4161    4155    4215    4218       6
    4161    4155   -4215    4218       7    4161    4164    4221    4224       6
    4161    4164   -4221    4224       7    4158    4155    4161    4164       9
    4158    4155    4215    4218      10    4158    4155    4215    4221      10
    4158    4155    4215    4233       6    4158    4155   -4215    4233       7
    4155    4161    4164    4167       9    4155    4215    4221    4224      10
    4152    4146    4155    4158      10    4152    4146    4155    4161       6
    4152    4146   -4155    4161       7    4152    4146    4155    4215      10
    4149    4146    4155    4158      10    4149    4146    4155    4161       6
    4149    4146   -4155    4161       7    4149    4146    4155    4215      10
    4146    4155    4215    4218      10    4143    4146    4155    4158       6
    4143    4146   -4155    4158       7    4134    4143    4146    4149       9
    4134    4143    4146    4152       9    4317    4314    4308    4326       6
    4317    4314   -4308    4326       7    4317    4314    4320    4323       8
    4311    4308    4314    4317      10    4311    4308    4314    4320       6
    4311    4308   -4314    4320       7    4311    4308    4326    4329       9
    4308    4314    4320    4323       6    4308    4314   -4320    4323      11
    4296    4290    4287    4299      15    4293    4290    4287    4299      15
    4284    4281    4287    4290      25    4284    4281    4287    4299      25
    4281    4287    4290    4293      15    4281    4287    4290    4296      15
    4278    4275    4272    4302      46    4278    4275    4281    4284      47
    4278    4275    4281    4287      47    4272    4266    4314    4317      10
    4272    4275    4281    4284      47    4269    4266    4272    4275      14
    4269    4266    4272    4302      14    4269    4266    4314    4308      10
    4269    4266    4314    4317      10    4269    4266    4314    4320      10
    4266    4272    4275    4278      46    4266    4314    4308    4311      10
    4266    4314    4320    4323       6    4266    4314   -4320    4323      11
    4263    4257    4308    4311       6    4263    4257   -4308    4311       7
    4263    4266    4314    4317       6    4263    4266   -4314    4317       7
    4260    4257    4263    4266       9    4260    4257    4308    4311      10
    4260    4257    4308    4314      10    4260    4257    4308    4326       6
    4260    4257   -4308    4326       7    4257    4263    4266    4269       9
    4257    4308    4314    4317      10    4254    4248    4257    4260      10
    4254    4248    4257    4263       6    4254    4248   -4257    4263       7
    4254    4248    4257    4308      10    4251    4248    4257    4260      10
    4251    4248    4257    4263       6    4251    4248   -4257    4263       7
    4251    4248    4257    4308      10    4248    4257    4308    4311      10
    4245    4248    4257    4260       6    4245    4248   -4257    4260       7
    4236    4245    4248    4251       9    4236    4245    4248    4254       9
    4416    4413    4407    4425       6    4416    4413   -4407    4425       7
    4416    4413    4419    4422       8    4410    4407    4413    4416      10
    4410    4407    4413    4419       6    4410    4407   -4413    4419       7
    4410    4407    4425    4428       9    4407    4413    4419    4422       6
    4407    4413   -4419    4422      11    4398    4395    4401    4404      39
    4389    4383    4380    4392      15    4386    4383    4380    4392      15
    4380    4392    4395    4398      39    4377    4380    4383    4386      15
    4377    4380    4383    4389      15    4371    4368    4365    4404      22
    4371    4368    4374    4377      23    4365    4359    4413    4416      10
    4362    4359    4365    4368      14    4362    4359    4365    4404      14
    4362    4359    4413    4407      10    4362    4359    4413    4416      10
    4362    4359    4413    4419      10    4359    4365    4368    4371      22
    4359    4413    4407    4410      10    4359    4413    4419    4422       6
    4359    4413   -4419    4422      11    4356    4350    4407    4410       6
    4356    4350   -4407    4410       7    4356    4359    4413    4416       6
    4356    4359   -4413    4416       7    4353    4350    4356    4359       9
    4353    4350    4407    4410      10    4353    4350    4407    4413      10
    4353    4350    4407    4425       6    4353    4350   -4407    4425       7
    4350    4356    4359    4362       9    4350    4407    4413    4416      10
    4347    4341    4350    4353      10    4347    4341    4350    4356       6
    4347    4341   -4350    4356       7    4347    4341    4350    4407      10
    4344    4341    4350    4353      10    4344    4341    4350    4356       6
    4344    4341   -4350    4356       7    4344    4341    4350    4407      10
    4341    4350    4407    4410      10    4338    4341    4350    4353       6
    4338    4341   -4350    4353       7    4329    4338    4341    4344       9
    4329    4338    4341    4347       9    4509    4506    4500    4518       6
    4509    4506   -4500    4518       7    4509    4506    4512    4515       8
    4503    4500    4506    4509      10    4503    4500    4506    4512       6
    4503    4500   -4506    4512       7    4503    4500    4518    4521       9
    4500    4506    4512    4515       6    4500    4506   -4512    4515      11
    4488    4482    4479    4491      15    4485    4482    4479    4491      15
    4476    4473    4479    4482      25    4476    4473    4479    4491      25
    4473    4479    4482    4485      15    4473    4479    4482    4488      15
    4470    4467    4464    4494      46    4470    4467    4473    4476      47
    4470    4467    4473    4479      47    4464    4458    4506    4509      10
    4464    4467    4473    4476      47    4461    4458    4464    4467      14
    4461    4458    4464    4494      14    4461    4458    4506    4500      10
    4461    4458    4506    4509      10    4461    4458    4506    4512      10
    4458    4464    4467    4470      46    4458    4506    4500    4503      10
    4458    4506    4512    4515       6    4458    4506   -4512    4515      11
    4455    4449    4500    4503       6    4455    4449   -4500    4503       7
    4455    4458    4506    4509       6    4455    4458   -4506    4509       7
    4452    4449    4455    4458       9    4452    4449    4500    4503      10
    4452    4449    4500    4506      10    4452    4449    4500    4518       6
    4452    4449   -4500    4518       7    4449    4455    4458    4461       9
    4449    4500    4506    4509      10    4446    4440    4449    4452      10
    4446    4440    4449    4455       6    4446    4440   -4449    4455       7
    4446    4440    4449    4500      10    4443    4440    4449    4452      10
    4443    4440    4449    4455       6    4443    4440   -4449    4455       7
    4443    4440    4449    4500      10    4440    4449    4500    4503      10
    4437    4440    4449    4452       6    4437    4440   -4449    4452       7
    4428    4437    4440    4443       9    4428    4437    4440    4446       9
    4602    4599    4593    4611       6    4602    4599   -4593    4611       7
    4602    4599    4605    4608       8    4596    4593    4599    4602      10
    4596    4593    4599    4605       6    4596    4593   -4599    4605       7
    4596    4593    4611    4614       9    4593    4599    4605    4608       6
    4593    4599   -4605    4608      11    4581    4575    4572    4584      15
    4578    4575    4572    4584      15    4569    4566    4572    4575      25
    4569    4566    4572    4584      25    4566    4572    4575    4578      15
    4566    4572    4575    4581      15    4563    4560    4557    4587      46
    4563    4560    4566    4569      47    4563    4560    4566    4572      47
    4557    4551    4599    4602      10    4557    4560    4566    4569      47
    4554    4551    4557    4560      14    4554    4551    4557    4587      14
    4554    4551    4599    4593      10    4554    4551    4599    4602      10
    4554    4551    4599    4605      10    4551    4557    4560    4563      46
    4551    4599    4593    4596      10    4551    4599    4605    4608       6
    4551    4599   -4605    4608      11    4548    4542    4593    4596       6
    4548    4542   -4593    4596       7    4548    4551    4599    4602       6
    4548    4551   -4599    4602       7    4545    4542    4548    4551       9
    4545    4542    4593    4596      10    4545    4542    4593    4599      10
    4545    4542    4593    4611       6    4545    4542   -4593    4611       7
    4542    4548    4551    4554       9    4542    4593    4599    4602      10
    4539    4533    4542    4545      10    4539    4533    4542    4548       6
    4539    4533   -4542    4548       7    4539    4533    4542    4593      10
    4536    4533    4542    4545      10    4536    4533    4542    4548       6
    4536    4533   -4542    4548       7    4536    4533    4542    4593      10
    4533    4542    4593    4596      10    4530    4533    4542    4545       6
    4530    4533   -4542    4545       7    4521    4530    4533    4536       9
    4521    4530    4533    4539       9    4704    4701    4695    4713       6
    4704    4701   -4695    4713       7    4704    4701    4707    4710       8
    4698    4695    4701    4704      10    4698    4695    4701    4707       6
    4698    4695   -4701    4707       7    4698    4695    4713    4716       9
    4695    4701    4707    4710       6    4695    4701   -4707    4710      11
    4686    4680    4677    4689      15    4683    4680    4677    4689      15
    4674    4671    4677    4680      17    4674    4671    4677    4689      17
    4671    4677    4680    4683      15    4671    4677    4680    4686      15
    4668    4665    4671    4674      19    4662    4665    4671    4674      19
    4656    4653    4650    4692      22    4656    4653    4659    4662      23
    4650    4644    4701    4704      10    4647    4644    4650    4653      14
    4647    4644    4650    4692      14    4647    4644    4701    4695      10
    4647    4644    4701    4704      10    4647    4644    4701    4707      10
    4644    4650    4653    4656      22    4644    4701    4695    4698      10
    4644    4701    4707    4710       6    4644    4701   -4707    4710      11
    4641    4635    4695    4698       6    4641    4635   -4695    4698       7
    4641    4644    4701    4704       6    4641    4644   -4701    4704       7
    4638    4635    4641    4644       9    4638    4635    4695    4698      10
    4638    4635    4695    4701      10    4638    4635    4695    4713       6
    4638    4635   -4695    4713       7    4635    4641    4644    4647       9
    4635    4695    4701    4704      10    4632    4626    4635    4638      10
    4632    4626    4635    4641       6    4632    4626   -4635    4641       7
    4632    4626    4635    4695      10    4629    4626    4635    4638      10
    4629    4626    4635    4641       6    4629    4626   -4635    4641       7
    4629    4626    4635    4695      10    4626    4635    4695    4698      10
    4623    4626    4635    4638       6    4623    4626   -4635    4638       7
    4614    4623    4626    4629       9    4614    4623    4626    4632       9
    4794    4791    4785    4803       6    4794    4791   -4785    4803       7
    4794    4791    4797    4800       8    4788    4785    4791    4794      10
    4788    4785    4791    4797       6    4788    4785   -4791    4797       7
    4788    4785    4803    4806       9    4785    4791    4797    4800       6
    4785    4791   -4797    4800      11    4776    4773    4779    4782      19
    4770    4767    4773    4776      19    4764    4761    4767    4770      45
    4764    4761    4767    4773      45    4761    4767    4773    4776      19
    4758    4755    4752    4779      46    4758    4755    4761    4764      47
    4758    4755    4761    4767      47    4752    4746    4791    4794      10
    4752    4755    4761    4764      47    4752    4779    4773    4776      19
    4749    4746    4752    4755      14    4749    4746    4752    4779      14
    4749    4746    4791    4785      10    4749    4746    4791    4794      10
    4749    4746    4791    4797      10    4746    4752    4755    4758      46
    4746    4791    4785    4788      10    4746    4791    4797    4800       6
    4746    4791   -4797    4800      11    4743    4737    4785    4788       6
    4743    4737   -4785    4788       7    4743    4746    4791    4794       6
    4743    4746   -4791    4794       7    4740    4737    4743    4746       9
    4740    4737    4785    4788      10    4740    4737    4785    4791      10
    4740    4737    4785    4803       6    4740    4737   -4785    4803       7
    4737    4743    4746    4749       9    4737    4785    4791    4794      10
    4734    4728    4737    4740      10    4734    4728    4737    4743       6
    4734    4728   -4737    4743       7    4734    4728    4737    4785      10
    4731    4728    4737    4740      10    4731    4728    4737    4743       6
    4731    4728   -4737    4743       7    4731    4728    4737    4785      10
    4728    4737    4785    4788      10    4725    4728    4737    4740       6
    4725    4728   -4737    4740       7    4716    4725    4728    4731       9
    4716    4725    4728    4734       9    4893    4890    4884    4902       6
    4893    4890   -4884    4902       7    4893    4890    4896    4899       8
    4887    4884    4890    4893      10    4887    4884    4890    4896       6
    4887    4884   -4890    4896       7    4887    4884    4902    4905       9
    4884    4890    4896    4899       6    4884    4890   -4896    4899      11
    4875    4872    4878    4881      39    4866    4860    4857    4869      15
    4863    4860    4857    4869      15    4857    4869    4872    4875      39
    4854    4857    4860    4863      15    4854    4857    4860    4866      15
    4848    4845    4842    4881      22    4848    4845    4851    4854      23
    4842    4836    4890    4893      10    4839    4836    4842    4845      14
    4839    4836    4842    4881      14    4839    4836    4890    4884      10
    4839    4836    4890    4893      10    4839    4836    4890    4896      10
    4836    4842    4845    4848      22    4836    4890    4884    4887      10
    4836    4890    4896    4899       6    4836    4890   -4896    4899      11
    4833    4827    4884    4887       6    4833    4827   -4884    4887       7
    4833    4836    4890    4893       6    4833    4836   -4890    4893       7
    4830    4827    4833    4836       9    4830    4827    4884    4887      10
    4830    4827    4884    4890      10    4830    4827    4884    4902       6
    4830    4827   -4884    4902       7    4827    4833    4836    4839       9
    4827    4884    4890    4893      10    4824    4818    4827    4830      10
    4824    4818    4827    4833       6    4824    4818   -4827    4833       7
    4824    4818    4827    4884      10    4821    4818    4827    4830      10
    4821    4818    4827    4833       6    4821    4818   -4827    4833       7
    4821    4818    4827    4884      10    4818    4827    4884    4887      10
    4815    4818    4827    4830       6    4815    4818   -4827    4830       7
    4806    4815    4818    4821       9    4806    4815    4818    4824       9
    4992    4989    4983    5001       6    4992    4989   -4983    5001       7
    4992    4989    4995    4998       8    4986    4983    4989    4992      10
    4986    4983    4989    4995       6    4986    4983   -4989    4995       7
    4986    4983    5001    5004       9    4983    4989    4995    4998       6
    4983    4989   -4995    4998      11    4974    4971    4977    4980      39
    4965    4959    4956    4968      15    4962    4959    4956    4968      15
    4956    4968    4971    4974      39    4953    4956    4959    4962      15
    4953    4956    4959    4965      15    4947    4944    4941    4980      22
    4947    4944    4950    4953      23    4941    4935    4989    4992      10
    4938    4935    4941    4944      14    4938    4935    4941    4980      14
    4938    4935    4989    4983      10    4938    4935    4989    4992      10
    4938    4935    4989    4995      10    4935    4941    4944    4947      22
    4935    4989    4983    4986      10    4935    4989    4995    4998       6
    4935    4989   -4995    4998      11    4932    4926    4983    4986       6
    4932    4926   -4983    4986       7    4932    4935    4989    4992       6
    4932    4935   -4989    4992       7    4929    4926    4932    4935       9
    4929    4926    4983    4986      10    4929    4926    4983    4989      10
    4929    4926    4983    5001       6    4929    4926   -4983    5001       7
    4926    4932    4935    4938       9    4926    4983    4989    4992      10
    4923    4917    4926    4929      10    4923    4917    4926    4932       6
    4923    4917   -4926    4932       7    4923    4917    4926    4983      10
    4920    4917    4926    4929      10    4920    4917    4926    4932       6
    4920    4917   -4926    4932       7    4920    4917    4926    4983      10
    4917    4926    4983    4986      10    4914    4917    4926    4929       6
    4914    4917   -4926    4929       7    4905    4914    4917    4920       9
    4905    4914    4917    4923       9    5091    5088    5082    5100       6
    5091    5088   -5082    5100       7    5091    5088    5094    5097       8
    5085    5082    5088    5091      10    5085    5082    5088    5094       6
    5085    5082   -5088    5094       7    5085    5082    5100    5103       9
    5082    5088    5094    5097       6    5082    5088   -5094    5097      11
    5073    5070    5076    5079      39    5064    5058    5055    5067      15
    5061    5058    5055    5067      15    5055    5067    5070    5073      39
    5052    5055    5058    5061      15    5052    5055    5058    5064      15
    5046    5043    5040    5079      22    5046    5043    5049    5052      23
    5040    5034    5088    5091      10    5037    5034    5040    5043      14
    5037    5034    5040    5079      14    5037    5034    5088    5082      10
    5037    5034    5088    5091      10    5037    5034    5088    5094      10
    5034    5040    5043    5046      22    5034    5088    5082    5085      10
    5034    5088    5094    5097       6    5034    5088   -5094    5097      11
    5031    5025    5082    5085       6    5031    5025   -5082    5085       7
    5031    5034    5088    5091       6    5031    5034   -5088    5091       7
    5028    5025    5031    5034       9    5028    5025    5082    5085      10
    5028    5025    5082    5088      10    5028    5025    5082    5100       6
    5028    5025   -5082    5100       7    5025    5031    5034    5037       9
    5025    5082    5088    5091      10    5022    5016    5025    5028      10
    5022    5016    5025    5031       6    5022    5016   -5025    5031       7
    5022    5016    5025    5082      10    5019    5016    5025    5028      10
    5019    5016    5025    5031       6    5019    5016   -5025    5031       7
    5019    5016    5025    5082      10    5016    5025    5082    5085      10
    5013    5016    5025    5028       6    5013    5016   -5025    5028       7
    5004    5013    5016    5019       9    5004    5013    5016    5022       9
    5181    5178    5172    5190       6    5181    5178   -5172    5190       7
    5181    5178    5184    5187       8    5175    5172    5178    5181      10
    5175    5172    5178    5184       6    5175    5172   -5178    5184       7
    5175    5172    5190    5193       9    5172    5178    5184    5187       6
    5172    5178   -5184    5187      11    5163    5160    5166    5169      19
    5157    5154    5160    5163      19    5151    5148    5154    5157      45
    5151    5148    5154    5160      45    5148    5154    5160    5163      19
    5145    5142    5139    5166      46    5145    5142    5148    5151      47
    5145    5142    5148    5154      47    5139    5133    5178    5181      10
    5139    5142    5148    5151      47    5139    5166    5160    5163      19
    5136    5133    5139    5142      14    5136    5133    5139    5166      14
    5136    5133    5178    5172      10    5136    5133    5178    5181      10
    5136    5133    5178    5184      10    5133    5139    5142    5145      46
    5133    5178    5172    5175      10    5133    5178    5184    5187       6
    5133    5178   -5184    5187      11    5130    5124    5172    5175       6
    5130    5124   -5172    5175       7    5130    5133    5178    5181       6
    5130    5133   -5178    5181       7    5127    5124    5130    5133       9
    5127    5124    5172    5175      10    5127    5124    5172    5178      10
    5127    5124    5172    5190       6    5127    5124   -5172    5190       7
    5124    5130    5133    5136       9    5124    5172    5178    5181      10
    5121    5115    5124    5127      10    5121    5115    5124    5130       6
    5121    5115   -5124    5130       7    5121    5115    5124    5172      10
    5118    5115    5124    5127      10    5118    5115    5124    5130       6
    5118    5115   -5124    5130       7    5118    5115    5124    5172      10
    5115    5124    5172    5175      10    5112    5115    5124    5127       6
    5112    5115   -5124    5127       7    5103    5112    5115    5118       9
    5103    5112    5115    5121       9    5283    5280    5274    5292       6
    5283    5280   -5274    5292       7    5283    5280    5286    5289       8
    5277    5274    5280    5283      10    5277    5274    5280    5286       6
    5277    5274   -5280    5286       7    5277    5274    5292    5295       9
    5274    5280    5286    5289       6    5274    5280   -5286    5289      11
    5265    5259    5256    5268      15    5262    5259    5256    5268      15
    5253    5250    5256    5259      17    5253    5250    5256    5268      17
    5250    5256    5259    5262      15    5250    5256    5259    5265      15
    5247    5244    5250    5253      19    5241    5244    5250    5253      19
    5235    5232    5229    5271      22    5235    5232    5238    5241      23
    5229    5223    5280    5283      10    5226    5223    5229    5232      14
    5226    5223    5229    5271      14    5226    5223    5280    5274      10
    5226    5223    5280    5283      10    5226    5223    5280    5286      10
    5223    5229    5232    5235      22    5223    5280    5274    5277      10
    5223    5280    5286    5289       6    5223    5280   -5286    5289      11
    5220    5214    5274    5277       6    5220    5214   -5274    5277       7
    5220    5223    5280    5283       6    5220    5223   -5280    5283       7
    5217    5214    5220    5223       9    5217    5214    5274    5277      10
    5217    5214    5274    5280      10    5217    5214    5274    5292       6
    5217    5214   -5274    5292       7    5214    5220    5223    5226       9
    5214    5274    5280    5283      10    5211    5205    5214    5217      10
    5211    5205    5214    5220       6    5211    5205   -5214    5220       7
    5211    5205    5214    5274      10    5208    5205    5214    5217      10
    5208    5205    5214    5220       6    5208    5205   -5214    5220       7
    5208    5205    5214    5274      10    5205    5214    5274    5277      10
    5202    5205    5214    5217       6    5202    5205   -5214    5217       7
    5193    5202    5205    5208       9    5193    5202    5205    5211       9
    5373    5370    5364    5382       6    5373    5370   -5364    5382       7
    5373    5370    5376    5379       8    5367    5364    5370    5373      10
    5367    5364    5370    5376       6    5367    5364   -5370    5376       7
    5367    5364    5382    5385       9    5364    5370    5376    5379       6
    5364    5370   -5376    5379      11    5355    5352    5358    5361      19
    5349    5346    5352    5355      19    5343    5340    5346    5349      45
    5343    5340    5346    5352      45    5340    5346    5352    5355      19
    5337    5334    5331    5358      46    5337    5334    5340    5343      47
    5337    5334    5340    5346      47    5331    5325    5370    5373      10
    5331    5334    5340    5343      47    5331    5358    5352    5355      19
    5328    5325    5331    5334      14    5328    5325    5331    5358      14
    5328    5325    5370    5364      10    5328    5325    5370    5373      10
    5328    5325    5370    5376      10    5325    5331    5334    5337      46
    5325    5370    5364    5367      10    5325    5370    5376    5379       6
    5325    5370   -5376    5379      11    5322    5316    5364    5367       6
    5322    5316   -5364    5367       7    5322    5325    5370    5373       6
    5322    5325   -5370    5373       7    5319    5316    5322    5325       9
    5319    5316    5364    5367      10    5319    5316    5364    5370      10
    5319    5316    5364    5382       6    5319    5316   -5364    5382       7
    5316    5322    5325    5328       9    5316    5364    5370    5373      10
    5313    5307    5316    5319      10    5313    5307    5316    5322       6
    5313    5307   -5316    5322       7    5313    5307    5316    5364      10
    5310    5307    5316    5319      10    5310    5307    5316    5322       6
    5310    5307   -5316    5322       7    5310    5307    5316    5364      10
    5307    5316    5364    5367      10    5304    5307    5316    5319       6
    5304    5307   -5316    5319       7    5295    5304    5307    5310       9
    5295    5304    5307    5313       9    5466    5463    5457    5475       6
    5466    5463   -5457    5475       7    5466    5463    5469    5472       8
    5460    5457    5463    5466      10    5460    5457    5463    5469       6
    5460    5457   -5463    5469       7    5460    5457    5475    5478       9
    5457    5463    5469    5472       6    5457    5463   -5469    5472      11
    5445    5439    5436    5448      15    5442    5439    5436    5448      15
    5433    5430    5436    5439      25    5433    5430    5436    5448      25
    5430    5436    5439    5442      15    5430    5436    5439    5445      15
    5427    5424    5421    5451      46    5427    5424    5430    5433      47
    5427    5424    5430    5436      47    5421    5415    5463    5466      10
    5421    5424    5430    5433      47    5418    5415    5421    5424      14
    5418    5415    5421    5451      14    5418    5415    5463    5457      10
    5418    5415    5463    5466      10    5418    5415    5463    5469      10
    5415    5421    5424    5427      46    5415    5463    5457    5460      10
    5415    5463    5469    5472       6    5415    5463   -5469    5472      11
    5412    5406    5457    5460       6    5412    5406   -5457    5460       7
    5412    5415    5463    5466       6    5412    5415   -5463    5466       7
    5409    5406    5412    5415       9    5409    5406    5457    5460      10
    5409    5406    5457    5463      10    5409    5406    5457    5475       6
    5409    5406   -5457    5475       7    5406    5412    5415    5418       9
    5406    5457    5463    5466      10    5403    5397    5406    5409      10
    5403    5397    5406    5412       6    5403    5397   -5406    5412       7
    5403    5397    5406    5457      10    5400    5397    5406    5409      10
    5400    5397    5406    5412       6    5400    5397   -5406    5412       7
    5400    5397    5406    5457      10    5397    5406    5457    5460      10
    5394    5397    5406    5409       6    5394    5397   -5406    5409       7
    5385    5394    5397    5400       9    5385    5394    5397    5403       9
    5559    5556    5550    5568       6    5559    5556   -5550    5568       7
    5559    5556    5562    5565       8    5553    5550    5556    5559      10
    5553    5550    5556    5562       6    5553    5550   -5556    5562       7
    5553    5550    5568    5571       9    5550    5556    5562    5565       6
    5550    5556   -5562    5565      11    5538    5532    5529    5541      15
    5535    5532    5529    5541      15    5526    5523    5529    5532      25
    5526    5523    5529    5541      25    5523    5529    5532    5535      15
    5523    5529    5532    5538      15    5520    5517    5514    5544      46
    5520    5517    5523    5526      47    5520    5517    5523    5529      47
    5514    5508    5556    5559      10    5514    5517    5523    5526      47
    5511    5508    5514    5517      14    5511    5508    5514    5544      14
    5511    5508    5556    5550      10    5511    5508    5556    5559      10
    5511    5508    5556    5562      10    5508    5514    5517    5520      46
    5508    5556    5550    5553      10    5508    5556    5562    5565       6
    5508    5556   -5562    5565      11    5505    5499    5550    5553       6
    5505    5499   -5550    5553       7    5505    5508    5556    5559       6
    5505    5508   -5556    5559       7    5502    5499    5505    5508       9
    5502    5499    5550    5553      10    5502    5499    5550    5556      10
    5502    5499    5550    5568       6    5502    5499   -5550    5568       7
    5499    5505    5508    5511       9    5499    5550    5556    5559      10
    5496    5490    5499    5502      10    5496    5490    5499    5505       6
    5496    5490   -5499    5505       7    5496    5490    5499    5550      10
    5493    5490    5499    5502      10    5493    5490    5499    5505       6
    5493    5490   -5499    5505       7    5493    5490    5499    5550      10
    5490    5499    5550    5553      10    5487    5490    5499    5502       6
    5487    5490   -5499    5502       7    5478    5487    5490    5493       9
    5478    5487    5490    5496       9    5661    5658    5652    5670       6
    5661    5658   -5652    5670       7    5661    5658    5664    5667       8
    5655    5652    5658    5661      10    5655    5652    5658    5664       6
    5655    5652   -5658    5664       7    5655    5652    5670    5673       9
    5652    5658    5664    5667       6    5652    5658   -5664    5667      11
    5643    5637    5634    5646      15    5640    5637    5634    5646      15
    5631    5628    5634    5637      17    5631    5628    5634    5646      17
    5628    5634    5637    5640      15    5628    5634    5637    5643      15
    5625    5622    5628    5631      19    5619    5622    5628    5631      19
    5613    5610    5607    5649      22    5613    5610    5616    5619      23
    5607    5601    5658    5661      10    5604    5601    5607    5610      14
    5604    5601    5607    5649      14    5604    5601    5658    5652      10
    5604    5601    5658    5661      10    5604    5601    5658    5664      10
    5601    5607    5610    5613      22    5601    5658    5652    5655      10
    5601    5658    5664    5667       6    5601    5658   -5664    5667      11
    5598    5592    5652    5655       6    5598    5592   -5652    5655       7
    5598    5601    5658    5661       6    5598    5601   -5658    5661       7
    5595    5592    5598    5601       9    5595    5592    5652    5655      10
    5595    5592    5652    5658      10    5595    5592    5652    5670       6
    5595    5592   -5652    5670       7    5592    5598    5601    5604       9
    5592    5652    5658    5661      10    5589    5583    5592    5595      10
    5589    5583    5592    5598       6    5589    5583   -5592    5598       7
    5589    5583    5592    5652      10    5586    5583    5592    5595      10
    5586    5583    5592    5598       6    5586    5583   -5592    5598       7
    5586    5583    5592    5652      10    5583    5592    5652    5655      10
    5580    5583    5592    5595       6    5580    5583   -5592    5595       7
    5571    5580    5583    5586       9    5571    5580    5583    5589       9
    5760    5757    5751    5769       6    5760    5757   -5751    5769       7
    5760    5757    5763    5766       8    5754    5751    5757    5760      10
    5754    5751    5757    5763       6    5754    5751   -5757    5763       7
    5754    5751    5769    5772       9    5751    5757    5763    5766       6
    5751    5757   -5763    5766      11    5742    5739    5745    5748      39
    5733    5727    5724    5736      15    5730    5727    5724    5736      15
    5724    5736    5739    5742      39    5721    5724    5727    5730      15
    5721    5724    5727    5733      15    5715    5712    5709    5748      22
    5715    5712    5718    5721      23    5709    5703    5757    5760      10
    5706    5703    5709    5712      14    5706    5703    5709    5748      14
    5706    5703    5757    5751      10    5706    5703    5757    5760      10
    5706    5703    5757    5763      10    5703    5709    5712    5715      22
    5703    5757    5751    5754      10    5703    5757    5763    5766       6
    5703    5757   -5763    5766      11    5700    5694    5751    5754       6
    5700    5694   -5751    5754       7    5700    5703    5757    5760       6
    5700    5703   -5757    5760       7    5697    5694    5700    5703       9
    5697    5694    5751    5754      10    5697    5694    5751    5757      10
    5697    5694    5751    5769       6    5697    5694   -5751    5769       7
    5694    5700    5703    5706       9    5694    5751    5757    5760      10
    5691    5685    5694    5697      10    5691    5685    5694    5700       6
    5691    5685   -5694    5700       7    5691    5685    5694    5751      10
    5688    5685    5694    5697      10    5688    5685    5694    5700       6
    5688    5685   -5694    5700       7    5688    5685    5694    5751      10
    5685    5694    5751    5754      10    5682    5685    5694    5697       6
    5682    5685   -5694    5697       7    5673    5682    5685    5688       9
    5673    5682    5685    5691       9    5853    5850    5844    5862       6
    5853    5850   -5844    5862       7    5853    5850    5856    5859       8
    5847    5844    5850    5853      10    5847    5844    5850    5856       6
    5847    5844   -5850    5856       7    5847    5844    5862    5865       9
    5844    5850    5856    5859       6    5844    5850   -5856    5859      11
    5832    5826    5823    5835      15    5829    5826    5823    5835      15
    5820    5817    5823    5826      25    5820    5817    5823    5835      25
    5817    5823    5826    5829      15    5817    5823    5826    5832      15
    5814    5811    5808    5838      46    5814    5811    5817    5820      47
    5814    5811    5817    5823      47    5808    5802    5850    5853      10
    5808    5811    5817    5820      47    5805    5802    5808    5811      14
    5805    5802    5808    5838      14    5805    5802    5850    5844      10
    5805    5802    5850    5853      10    5805    5802    5850    5856      10
    5802    5808    5811    5814      46    5802    5850    5844    5847      10
    5802    5850    5856    5859       6    5802    5850   -5856    5859      11
    5799    5793    5844    5847       6    5799    5793   -5844    5847       7
    5799    5802    5850    5853       6    5799    5802   -5850    5853       7
    5796    5793    5799    5802       9    5796    5793    5844    5847      10
    5796    5793    5844    5850      10    5796    5793    5844    5862       6
    5796    5793   -5844    5862       7    5793    5799    5802    5805       9
    5793    5844    5850    5853      10    5790    5784    5793    5796      10
    5790    5784    5793    5799       6    5790    5784   -5793    5799       7
    5790    5784    5793    5844      10    5787    5784    5793    5796      10
    5787    5784    5793    5799       6    5787    5784   -5793    5799       7
    5787    5784    5793    5844      10    5784    5793    5844    5847      10
    5781    5784    5793    5796       6    5781    5784   -5793    5796       7
    5772    5781    5784    5787       9    5772    5781    5784    5790       9
    5943    5940    5934    5952       6    5943    5940   -5934    5952       7
    5943    5940    5946    5949       8    5937    5934    5940    5943      10
    5937    5934    5940    5946       6    5937    5934   -5940    5946       7
    5937    5934    5952    5955       9    5934    5940    5946    5949       6
    5934    5940   -5946    5949      11    5925    5922    5928    5931      19
    5919    5916    5922    5925      19    5913    5910    5916    5919      45
    5913    5910    5916    5922      45    5910    5916    5922    5925      19
    5907    5904    5901    5928      46    5907    5904    5910    5913      47
    5907    5904    5910    5916      47    5901    5895    5940    5943      10
    5901    5904    5910    5913      47    5901    5928    5922    5925      19
    5898    5895    5901    5904      14    5898    5895    5901    5928      14
    5898    5895    5940    5934      10    5898    5895    5940    5943      10
    5898    5895    5940    5946      10    5895    5901    5904    5907      46
    5895    5940    5934    5937      10    5895    5940    5946    5949       6
    5895    5940   -5946    5949      11    5892    5886    5934    5937       6
    5892    5886   -5934    5937       7    5892    5895    5940    5943       6
    5892    5895   -5940    5943       7    5889    5886    5892    5895       9
    5889    5886    5934    5937      10    5889    5886    5934    5940      10
    5889    5886    5934    5952       6    5889    5886   -5934    5952       7
    5886    5892    5895    5898       9    5886    5934    5940    5943      10
    5883    5877    5886    5889      10    5883    5877    5886    5892       6
    5883    5877   -5886    5892       7    5883    5877    5886    5934      10
    5880    5877    5886    5889      10    5880    5877    5886    5892       6
    5880    5877   -5886    5892       7    5880    5877    5886    5934      10
    5877    5886    5934    5937      10    5874    5877    5886    5889       6
    5874    5877   -5886    5889       7    5865    5874    5877    5880       9
    5865    5874    5877    5883       9    6042    6039    6033    6051       6
    6042    6039   -6033    6051       7    6042    6039    6045    6048       8
    6036    6033    6039    6042      10    6036    6033    6039    6045       6
    6036    6033   -6039    6045       7    6036    6033    6051    6054       9
    6033    6039    6045    6048       6    6033    6039   -6045    6048      11
    6024    6021    6027    6030      39    6015    6009    6006    6018      15
    6012    6009    6006    6018      15    6006    6018    6021    6024      39
    6003    6006    6009    6012      15    6003    6006    6009    6015      15
    5997    5994    5991    6030      22    5997    5994    6000    6003      23
    5991    5985    6039    6042      10    5988    5985    5991    5994      14
    5988    5985    5991    6030      14    5988    5985    6039    6033      10
    5988    5985    6039    6042      10    5988    5985    6039    6045      10
    5985    5991    5994    5997      22    5985    6039    6033    6036      10
    5985    6039    6045    6048       6    5985    6039   -6045    6048      11
    5982    5976    6033    6036       6    5982    5976   -6033    6036       7
    5982    5985    6039    6042       6    5982    5985   -6039    6042       7
    5979    5976    5982    5985       9    5979    5976    6033    6036      10
    5979    5976    6033    6039      10    5979    5976    6033    6051       6
    5979    5976   -6033    6051       7    5976    5982    5985    5988       9
    5976    6033    6039    6042      10    5973    5967    5976    5979      10
    5973    5967    5976    5982       6    5973    5967   -5976    5982       7
    5973    5967    5976    6033      10    5970    5967    5976    5979      10
    5970    5967    5976    5982       6    5970    5967   -5976    5982       7
    5970    5967    5976    6033      10    5967    5976    6033    6036      10
    5964    5967    5976    5979       6    5964    5967   -5976    5979       7
    5955    5964    5967    5970       9    5955    5964    5967    5973       9
    6132    6129    6123    6141       6    6132    6129   -6123    6141       7
    6132    6129    6135    6138       8    6126    6123    6129    6132      10
    6126    6123    6129    6135       6    6126    6123   -6129    6135       7
    6126    6123    6141    6144       9    6123    6129    6135    6138       6
    6123    6129   -6135    6138      11    6114    6111    6117    6120      19
    6108    6105    6111    6114      19    6102    6099    6105    6108      45
    6102    6099    6105    6111      45    6099    6105    6111    6114      19
    6096    6093    6090    6117      46    6096    6093    6099    6102      47
    6096    6093    6099    6105      47    6090    6084    6129    6132      10
    6090    6093    6099    6102      47    6090    6117    6111    6114      19
    6087    6084    6090    6093      14    6087    6084    6090    6117      14
    6087    6084    6129    6123      10    6087    6084    6129    6132      10
    6087    6084    6129    6135      10    6084    6090    6093    6096      46
    6084    6129    6123    6126      10    6084    6129    6135    6138       6
    6084    6129   -6135    6138      11    6081    6075    6123    6126       6
    6081    6075   -6123    6126       7    6081    6084    6129    6132       6
    6081    6084   -6129    6132       7    6078    6075    6081    6084       9
    6078    6075    6123    6126      10    6078    6075    6123    6129      10
    6078    6075    6123    6141       6    6078    6075   -6123    6141       7
    6075    6081    6084    6087       9    6075    6123    6129    6132      10
    6072    6066    6075    6078      10    6072    6066    6075    6081       6
    6072    6066   -6075    6081       7    6072    6066    6075    6123      10
    6069    6066    6075    6078      10    6069    6066    6075    6081       6
    6069    6066   -6075    6081       7    6069    6066    6075    6123      10
    6066    6075    6123    6126      10    6063    6066    6075    6078       6
    6063    6066   -6075    6078       7    6054    6063    6066    6069       9
    6054    6063    6066    6072       9    6234    6231    6225    6243       6
    6234    6231   -6225    6243       7    6234    6231    6237    6240       8
    6228    6225    6231    6234      10    6228    6225    6231    6237       6
    6228    6225   -6231    6237       7    6228    6225    6243    6246       9
    6225    6231    6237    6240       6    6225    6231   -6237    6240      11
    6216    6210    6207    6219      15    6213    6210    6207    6219      15
    6204    6201    6207    6210      17    6204    6201    6207    6219      17
    6201    6207    6210    6213      15    6201    6207    6210    6216      15
    6198    6195    6201    6204      19    6192    6195    6201    6204      19
    6186    6183    6180    6222      22    6186    6183    6189    6192      23
    6180    6174    6231    6234      10    6177    6174    6180    6183      14
    6177    6174    6180    6222      14    6177    6174    6231    6225      10
    6177    6174    6231    6234      10    6177    6174    6231    6237      10
    6174    6180    6183    6186      22    6174    6231    6225    6228      10
    6174    6231    6237    6240       6    6174    6231   -6237    6240      11
    6171    6165    6225    6228       6    6171    6165   -6225    6228       7
    6171    6174    6231    6234       6    6171    6174   -6231    6234       7
    6168    6165    6171    6174       9    6168    6165    6225    6228      10
    6168    6165    6225    6231      10    6168    6165    6225    6243       6
    6168    6165   -6225    6243       7    6165    6171    6174    6177       9
    6165    6225    6231    6234      10    6162    6156    6165    6168      10
    6162    6156    6165    6171       6    6162    6156   -6165    6171       7
    6162    6156    6165    6225      10    6159    6156    6165    6168      10
    6159    6156    6165    6171       6    6159    6156   -6165    6171       7
    6159    6156    6165    6225      10    6156    6165    6225    6228      10
    6153    6156    6165    6168       6    6153    6156   -6165    6168       7
    6144    6153    6156    6159       9    6144    6153    6156    6162       9
    6336    6333    6327    6345       6    6336    6333   -6327    6345       7
    6336    6333    6339    6342       8    6330    6327    6333    6336      10
    6330    6327    6333    6339       6    6330    6327   -6333    6339       7
    6330    6327    6345    6348       9    6327    6333    6339    6342       6
    6327    6333   -6339    6342      11    6318    6312    6309    6321      15
    6315    6312    6309    6321      15    6306    6303    6309    6312      17
    6306    6303    6309    6321      17    6303    6309    6312    6315      15
    6303    6309    6312    6318      15    6300    6297    6303    6306      19
    6294    6297    6303    6306      19    6288    6285    6282    6324      22
    6288    6285    6291    6294      23    6282    6276    6333    6336      10
    6279    6276    6282    6285      14    6279    6276    6282    6324      14
    6279    6276    6333    6327      10    6279    6276    6333    6336      10
    6279    6276    6333    6339      10    6276    6282    6285    6288      22
    6276    6333    6327    6330      10    6276    6333    6339    6342       6
    6276    6333   -6339    6342      11    6273    6267    6327    6330       6
    6273    6267   -6327    6330       7    6273    6276    6333    6336       6
    6273    6276   -6333    6336       7    6270    6267    6273    6276       9
    6270    6267    6327    6330      10    6270    6267    6327    6333      10
    6270    6267    6327    6345       6    6270    6267   -6327    6345       7
    6267    6273    6276    6279       9    6267    6327    6333    6336      10
    6264    6258    6267    6270      10    6264    6258    6267    6273       6
    6264    6258   -6267    6273       7    6264    6258    6267    6327      10
    6261    6258    6267    6270      10    6261    6258    6267    6273       6
    6261    6258   -6267    6273       7    6261    6258    6267    6327      10
    6258    6267    6327    6330      10    6255    6258    6267    6270       6
    6255    6258   -6267    6270       7    6246    6255    6258    6261       9
    6246    6255    6258    6264       9    6426    6423    6417    6435       6
    6426    6423   -6417    6435       7    6426    6423    6429    6432       8
    6420    6417    6423    6426      10    6420    6417    6423    6429       6
    6420    6417   -6423    6429       7    6420    6417    6435    6438       9
    6417    6423    6429    6432       6    6417    6423   -6429    6432      11
    6408    6405    6411    6414      19    6402    6399    6405    6408      19
    6396    6393    6399    6402      45    6396    6393    6399    6405      45
    6393    6399    6405    6408      19    6390    6387    6384    6411      46
    6390    6387    6393    6396      47    6390    6387    6393    6399      47
    6384    6378    6423    6426      10    6384    6387    6393    6396      47
    6384    6411    6405    6408      19    6381    6378    6384    6387      14
    6381    6378    6384    6411      14    6381    6378    6423    6417      10
    6381    6378    6423    6426      10    6381    6378    6423    6429      10
    6378    6384    6387    6390      46    6378    6423    6417    6420      10
    6378    6423    6429    6432       6    6378    6423   -6429    6432      11
    6375    6369    6417    6420       6    6375    6369   -6417    6420       7
    6375    6378    6423    6426       6    6375    6378   -6423    6426       7
    6372    6369    6375    6378       9    6372    6369    6417    6420      10
    6372    6369    6417    6423      10    6372    6369    6417    6435       6
    6372    6369   -6417    6435       7    6369    6375    6378    6381       9
    6369    6417    6423    6426      10    6366    6360    6369    6372      10
    6366    6360    6369    6375       6    6366    6360   -6369    6375       7
    6366    6360    6369    6417      10    6363    6360    6369    6372      10
    6363    6360    6369    6375       6    6363    6360   -6369    6375       7
    6363    6360    6369    6417      10    6360    6369    6417    6420      10
    6357    6360    6369    6372       6    6357    6360   -6369    6372       7
    6348    6357    6360    6363       9    6348    6357    6360    6366       9
    6519    6516    6510    6528       6    6519    6516   -6510    6528       7
    6519    6516    6522    6525       8    6516    6510    6528    6531       6
    6516    6510   -6528    6531      11    6513    6510    6516    6519      10
    6513    6510    6516    6522       6    6513    6510   -6516    6522       7
    6513    6510    6528    6531       8    6510    6516    6522    6525       6
    6510    6516   -6522    6525      11    6498    6492    6489    6501      15
    6495    6492    6489    6501      15    6486    6483    6489    6492      25
    6486    6483    6489    6501      25    6483    6489    6492    6495      15
    6483    6489    6492    6498      15    6480    6477    6474    6504      46
    6480    6477    6483    6486      47    6480    6477    6483    6489      47
    6474    6468    6516    6519      10    6474    6477    6483    6486      47
    6471    6468    6474    6477      14    6471    6468    6474    6504      14
    6471    6468    6516    6510      10    6471    6468    6516    6519      10
    6471    6468    6516    6522      10    6468    6474    6477    6480      46
    6468    6516    6510    6513      10    6468    6516    6522    6525       6
    6468    6516   -6522    6525      11    6465    6459    6510    6513       6
    6465    6459   -6510    6513       7    6465    6468    6516    6519       6
    6465    6468   -6516    6519       7    6462    6459    6465    6468       9
    6462    6459    6510    6513      10    6462    6459    6510    6516      10
    6462    6459    6510    6528       6    6462    6459   -6510    6528       7
    6459    6465    6468    6471       9    6459    6510    6516    6519      10
    6459    6510    6528    6531       6    6459    6510   -6528    6531      11
    6456    6450    6459    6462      10    6456    6450    6459    6465       6
    6456    6450   -6459    6465       7    6456    6450    6459    6510      10
    6453    6450    6459    6462      10    6453    6450    6459    6465       6
    6453    6450   -6459    6465       7    6453    6450    6459    6510      10
    6450    6459    6510    6513      10    6447    6450    6459    6462       6
    6447    6450   -6459    6462       7    6438    6447    6450    6453       9
    6438    6447    6450    6456       9    6972    6963    6966    6975      22
    6960    6963    6966    6975      22    6957    6930    6933    6969      59
    6957    6954    6966    6975      22    6957    6960    6963    6972      60
    6954    6966    6963    6972      22    6951    6936    6933    6969      24
    6951    6954    6966    6975      22    6939    6936    6933    6969      24
    6927    6930    6933    6969      62    6927    6930   -6933    6969      59
      57      63     -60     -66      64      45      57     -51     -54      64
      30      39     -33     -36      65     159     165    -162    -168      64
     147     159    -153    -156      64     132     141    -135    -138      65
     261     270    -264    -267      65     249     255    -252    -258      64
     234     243    -237    -240      65     348     360    -354    -357      64
     336     348    -342    -345      65     333     342    -336    -339      65
     438     444    -441    -447      64     426     438    -432    -435      65
     423     432    -426    -429      65     543     552    -546    -549      65
     531     537    -534    -540      64     516     525    -519    -522      65
     630     642    -636    -639      64     618     630    -624    -627      65
     615     624    -618    -621      65     732     741    -735    -738      65
     720     726    -723    -729      64     705     714    -708    -711      65
     819     831    -825    -828      64     807     819    -813    -816      65
     804     813    -807    -810      65     921     930    -924    -927      65
     909     915    -912    -918      64     894     903    -897    -900      65
    1020    1029   -1023   -1026      65    1008    1014   -1011   -1017      64
     993    1002    -996    -999      65    1107    1119   -1113   -1116      64
    1095    1107   -1101   -1104      65    1092    1101   -1095   -1098      65
    1197    1203   -1200   -1206      64    1185    1197   -1191   -1194      65
    1182    1191   -1185   -1188      65    1302    1308   -1305   -1311      64
    1290    1302   -1296   -1299      64    1275    1284   -1278   -1281      65
    1392    1398   -1395   -1401      64    1380    1392   -1386   -1389      65
    1377    1386   -1380   -1383      65    1497    1503   -1500   -1506      64
    1485    1497   -1491   -1494      64    1470    1479   -1473   -1476      65
    1587    1599   -1593   -1596      64    1575    1587   -1581   -1584      65
    1572    1581   -1575   -1578      65    1689    1695   -1692   -1698      64
    1677    1689   -1683   -1686      64    1662    1671   -1665   -1668      65
    1791    1797   -1794   -1800      64    1779    1791   -1785   -1788      64
    1764    1773   -1767   -1770      65    1893    1902   -1896   -1899      65
    1881    1887   -1884   -1890      64    1866    1875   -1869   -1872      65
    1980    1992   -1986   -1989      64    1968    1980   -1974   -1977      65
    1965    1974   -1968   -1971      65    2082    2091   -2085   -2088      65
    2070    2076   -2073   -2079      64    2055    2064   -2058   -2061      65
    2169    2181   -2175   -2178      64    2157    2169   -2163   -2166      65
    2154    2163   -2157   -2160      65    2271    2277   -2274   -2280      64
    2259    2271   -2265   -2268      64    2244    2253   -2247   -2250      65
    2373    2379   -2376   -2382      64    2361    2373   -2367   -2370      64
    2346    2355   -2349   -2352      65    2463    2469   -2466   -2472      64
    2451    2463   -2457   -2460      65    2448    2457   -2451   -2454      65
    2568    2577   -2571   -2574      65    2556    2562   -2559   -2565      64
    2541    2550   -2544   -2547      65    2655    2661   -2658   -2664      64
    2643    2655   -2649   -2652      65    2640    2649   -2643   -2646      65
    2760    2766   -2763   -2769      64    2748    2760   -2754   -2757      64
    2733    2742   -2736   -2739      65    2850    2856   -2853   -2859      64
    2838    2850   -2844   -2847      65    2835    2844   -2838   -2841      65
    2955    2964   -2958   -2961      65    2943    2949   -2946   -2952      64
    2928    2937   -2931   -2934      65    3054    3063   -3057   -3060      65
    3042    3048   -3045   -3051      64    3027    3036   -3030   -3033      65
    3153    3159   -3156   -3162      64    3141    3153   -3147   -3150      64
    3126    3135   -3129   -3132      65    3243    3255   -3249   -3252      64
    3231    3243   -3237   -3240      65    3228    3237   -3231   -3234      65
    3333    3345   -3339   -3342      64    3321    3333   -3327   -3330      65
    3318    3327   -3321   -3324      65    3423    3435   -3429   -3432      64
    3411    3423   -3417   -3420      65    3408    3417   -3411   -3414      65
    3513    3519   -3516   -3522      64    3501    3513   -3507   -3510      65
    3498    3507   -3501   -3504      65    3606    3618   -3612   -3615      64
    3594    3606   -3600   -3603      65    3591    3600   -3594   -3597      65
    3708    3717   -3711   -3714      65    3696    3702   -3699   -3705      64
    3681    3690   -3684   -3687      65    3795    3801   -3798   -3804      64
    3783    3795   -3789   -3792      65    3780    3789   -3783   -3786      65
    3888    3894   -3891   -3897      64    3876    3888   -3882   -3885      65
    3873    3882   -3876   -3879      65    3993    3999   -3996   -4002      64
    3981    3993   -3987   -3990      64    3966    3975   -3969   -3972      65
    4095    4101   -4098   -4104      64    4083    4095   -4089   -4092      64
    4068    4077   -4071   -4074      65    4197    4203   -4200   -4206      64
    4185    4197   -4191   -4194      64    4170    4179   -4173   -4176      65
    4287    4293   -4290   -4296      64    4275    4287   -4281   -4284      65
    4272    4281   -4275   -4278      65    4392    4401   -4395   -4398      65
    4380    4386   -4383   -4389      64    4365    4374   -4368   -4371      65
    4479    4485   -4482   -4488      64    4467    4479   -4473   -4476      65
    4464    4473   -4467   -4470      65    4572    4578   -4575   -4581      64
    4560    4572   -4566   -4569      65    4557    4566   -4560   -4563      65
    4677    4683   -4680   -4686      64    4665    4677   -4671   -4674      64
    4650    4659   -4653   -4656      65    4767    4779   -4773   -4776      64
    4755    4767   -4761   -4764      65    4752    4761   -4755   -4758      65
    4869    4878   -4872   -4875      65    4857    4863   -4860   -4866      64
    4842    4851   -4845   -4848      65    4968    4977   -4971   -4974      65
    4956    4962   -4959   -4965      64    4941    4950   -4944   -4947      65
    5067    5076   -5070   -5073      65    5055    5061   -5058   -5064      64
    5040    5049   -5043   -5046      65    5154    5166   -5160   -5163      64
    5142    5154   -5148   -5151      65    5139    5148   -5142   -5145      65
    5256    5262   -5259   -5265      64    5244    5256   -5250   -5253      64
    5229    5238   -5232   -5235      65    5346    5358   -5352   -5355      64
    5334    5346   -5340   -5343      65    5331    5340   -5334   -5337      65
    5436    5442   -5439   -5445      64    5424    5436   -5430   -5433      65
    5421    5430   -5424   -5427      65    5529    5535   -5532   -5538      64
    5517    5529   -5523   -5526      65    5514    5523   -5517   -5520      65
    5634    5640   -5637   -5643      64    5622    5634   -5628   -5631      64
    5607    5616   -5610   -5613      65    5736    5745   -5739   -5742      65
    5724    5730   -5727   -5733      64    5709    5718   -5712   -5715      65
    5823    5829   -5826   -5832      64    5811    5823   -5817   -5820      65
    5808    5817   -5811   -5814      65    5916    5928   -5922   -5925      64
    5904    5916   -5910   -5913      65    5901    5910   -5904   -5907      65
    6018    6027   -6021   -6024      65    6006    6012   -6009   -6015      64
    5991    6000   -5994   -5997      65    6105    6117   -6111   -6114      64
    6093    6105   -6099   -6102      65    6090    6099   -6093   -6096      65
    6207    6213   -6210   -6216      64    6195    6207   -6201   -6204      64
    6180    6189   -6183   -6186      65    6309    6315   -6312   -6318      64
    6297    6309   -6303   -6306      64    6282    6291   -6285   -6288      65
    6399    6411   -6405   -6408      64    6387    6399   -6393   -6396      65
    6384    6393   -6387   -6390      65    6489    6495   -6492   -6498      64
    6477    6489   -6483   -6486      65    6474    6483   -6477   -6480      65
    6954    6963   -6966   -6975      65    6972    6966   -6963   -6960      65
    6930    6936   -6933   -6969      65
%FLAG DIHEDRALS_WITHOUT_HYDROGEN                                                
%FORMAT(10I8)                                                                   
      93      96     105     108       1      93      96    -105     108       2
      93      96    -105     108       3      87      81      75      93       4
      87      81     -75      93       5      81      75      93      96       9
      75      93      96      99      12      75      93      96     102      12
      75      93      96     105      13      75      93     -96     105      12
      72      30      24      81      14      60      57      69      72      16
      51      45      42      72      18      51      57     -69      72      16
      48      45      42      72      18      48      45      51      57      19
      45      42      72      69      20      45      51      57      60      17
      45      51     -57      69      17      42      45      51      57      19
      42      72     -69      57      21      39      33     -30      72      22
      39      42      45      48      18      39      42      45      51      18
      39      42      72      69      20      33      30      24      81      14
      33      30     -72      42      24      33      30      72      69      24
      33      39      42      45      25      33      39     -42      72      25
      30      24      81      75      10      30      24      81      87      10
      30      33     -39      42      23      30      72     -42      39      20
      30      72      42      45      20      30      72      69      57      21
      24      21     -15      75      26      24      21     -15      75      27
      24      30      33      39      22      24      30      72      42      24
      24      30      72      69      24      24      81      75      93      10
      21      15     -75      81      10      21      15      75      93       4
      21      15     -75      93       5      21      24      30      33      28
      21      24     -30      33      29      21      24     -30      33      30
      21      24     -30      33      31      21      24      30      72      14
      21      24     -81      75      10      21      24      81      87       4
      21      24     -81      87       5      15      21      24      30      32
      15      21     -24      30      27      15      21     -24      81      26
      15      21     -24      81      27      15      75     -81      24      33
      15      75     -81      24      34      15      75     -81      24      35
      15      75      81      87      10      15      75      93      96       9
       6      15      21      24      26       6      15     -21      24      27
       6      15      75      81      33       6      15     -75      81      34
       6      15     -75      81      35       6      15      75      93      10
       3       6      15      21      10       3       6      15      75      36
       3       6     -15      75      37       3       6     -15      75      38
     195     198     207     210       1     195     198    -207     210       2
     195     198    -207     210       3     189     183     177     195       4
     189     183    -177     195       5     183     177     195     198       9
     177     195     198     201      12     177     195     198     204      12
     177     195     198     207      13     177     195    -198     207      12
     174     132     126     183      14     162     159     171     174      16
     153     147     144     174      18     153     159    -171     174      16
     150     147     144     174      18     150     147     153     159      19
     147     144     174     171      20     147     153     159     162      17
     147     153    -159     171      17     144     147     153     159      19
     144     174    -171     159      21     141     135    -132     174      22
     141     144     147     150      18     141     144     147     153      18
     141     144     174     171      20     135     132     126     183      14
     135     132    -174     144      24     135     132     174     171      24
     135     141     144     147      25     135     141    -144     174      25
     132     126     183     177      10     132     126     183     189      10
     132     135    -141     144      23     132     174    -144     141      20
     132     174     144     147      20     132     174     171     159      21
     126     123    -117     177      26     126     123    -117     177      27
     126     132     135     141      22     126     132     174     144      24
     126     132     174     171      24     126     183     177     195      10
     123     117    -177     183      10     123     117     177     195       4
     123     117    -177     195       5     123     126     132     135      28
     123     126    -132     135      29     123     126    -132     135      30
     123     126    -132     135      31     123     126     132     174      14
     123     126    -183     177      10     123     126     183     189       4
     123     126    -183     189       5     117     123     126     132      32
     117     123    -126     132      27     117     123    -126     183      26
     117     123    -126     183      27     117     177    -183     126      33
     117     177    -183     126      34     117     177    -183     126      35
     117     177     183     189      10     117     177     195     198       9
     108     117     123     126      26     108     117    -123     126      27
     108     117     177     183      33     108     117    -177     183      34
     108     117    -177     183      35     108     117     177     195      10
     105     108     117     123      10     105     108     117     177      36
     105     108    -117     177      37     105     108    -117     177      38
     102      96     105     108      12      99      96     105     108      12
      96     105     108     117       9     294     297     306     309       1
     294     297    -306     309       2     294     297    -306     309       3
     288     282     276     294       4     288     282    -276     294       5
     282     276     294     297       9     276     294     297     300      12
     276     294     297     303      12     276     294     297     306      13
     276     294    -297     306      12     273     234     228     282      14
     261     249     246     273      40     261     264    -270     273      39
     252     249     246     273      40     252     249     261     264      16
     249     246     273     270      20     249     261    -264     270      39
     246     249     261     264      16     246     273    -270     264      21
     243     237    -234     273      22     243     246     249     252      40
     243     246     249     261      40     243     246     273     270      20
     237     234     228     282      14     237     234    -273     246      24
     237     234     273     270      24     237     243     246     249      25
     237     243    -246     273      25     234     228     282     276      10
     234     228     282     288      10     234     237    -243     246      23
     234     273    -246     243      20     234     273     246     249      20
     234     273     270     264      21     228     225    -219     276      26
     228     225    -219     276      27     228     234     237     243      22
     228     234     273     246      24     228     234     273     270      24
     228     282     276     294      10     225     219    -276     282      10
     225     219     276     294       4     225     219    -276     294       5
     225     228     234     237      41     225     228    -234     237      42
     225     228    -234     237      43     225     228    -234     237      44
     225     228     234     273      14     225     228    -282     276      10
     225     228     282     288       4     225     228    -282     288       5
     219     225     228     234      32     219     225    -228     234      27
     219     225    -228     282      26     219     225    -228     282      27
     219     276    -282     228      33     219     276    -282     228      34
     219     276    -282     228      35     219     276     282     288      10
     219     276     294     297       9     210     219     225     228      26
     210     219    -225     228      27     210     219     276     282      33
     210     219    -276     282      34     210     219    -276     282      35
     210     219     276     294      10     207     210     219     225      10
     207     210     219     276      36     207     210    -219     276      37
     207     210    -219     276      38     204     198     207     210      12
     201     198     207     210      12     198     207     210     219       9
     384     387     396     399       1     384     387    -396     399       2
     384     387    -396     399       3     378     372     366     384       4
     378     372    -366     384       5     372     366     384     387       9
     366     384     387     390      12     366     384     387     393      12
     366     384     387     396      13     366     384    -387     396      12
     360     333     327     372      14     351     348     354     360      19
     348     354     360     363      19     342     336     333     360      46
     342     348    -354     360      19     336     333     327     372      14
     336     333     360     354      48     336     333     360     363      48
     336     342     348     351      45     336     342    -348     351      49
     336     342    -348     354      45     333     327     372     366      10
     333     327     372     378      10     333     336     342     348      47
     333     360    -354     348      19     327     324    -318     366      26
     327     324    -318     366      27     327     333     336     342      46
     327     333     360     354      48     327     333     360     363      48
     327     372     366     384      10     324     318    -366     372      10
     324     318     366     384       4     324     318    -366     384       5
     324     327     333     336      50     324     327    -333     336      51
     324     327    -333     336      52     324     327    -333     336      53
     324     327     333     360      14     324     327    -372     366      10
     324     327     372     378       4     324     327    -372     378       5
     318     324     327     333      32     318     324    -327     333      27
     318     324    -327     372      26     318     324    -327     372      27
     318     366    -372     327      33     318     366    -372     327      34
     318     366    -372     327      35     318     366     372     378      10
     318     366     384     387       9     309     318     324     327      26
     309     318    -324     327      27     309     318     366     372      33
     309     318    -366     372      34     309     318    -366     372      35
     309     318     366     384      10     306     309     318     324      10
     306     309     318     366      36     306     309    -318     366      37
     306     309    -318     366      38     303     297     306     309      12
     300     297     306     309      12     297     306     309     318       9
     477     480     489     492       1     477     480    -489     492       2
     477     480    -489     492       3     471     465     459     477       4
     471     465    -459     477       5     465     459     477     480       9
     459     477     480     483      12     459     477     480     486      12
     459     477     480     489      13     459     477    -480     489      12
     453     423     417     465      14     441     438     450     453      16
     438     450     453     456      54     432     426     423     453      46
     432     438    -450     453      16     426     423     417     465      14
     426     423     453     450      48     426     423     453     456      48
     426     432     438     441      25     426     432    -438     450      25
     423     417     465     459      10     423     417     465     471      10
     423     426     432     438      47     423     453    -450     438      54
     417     414    -408     459      26     417     414    -408     459      27
     417     423     426     432      46     417     423     453     450      48
     417     423     453     456      48     417     465     459     477      10
     414     408    -459     465      10     414     408     459     477       4
     414     408    -459     477       5     414     417     423     426      55
     414     417    -423     426      56     414     417    -423     426      57
     414     417    -423     426      58     414     417     423     453      14
     414     417    -465     459      10     414     417     465     471       4
     414     417    -465     471       5     408     414     417     423      32
     408     414    -417     423      27     408     414    -417     465      26
     408     414    -417     465      27     408     459    -465     417      33
     408     459    -465     417      34     408     459    -465     417      35
     408     459     465     471      10     408     459     477     480       9
     399     408     414     417      26     399     408    -414     417      27
     399     408     459     465      33     399     408    -459     465      34
     399     408    -459     465      35     399     408     459     477      10
     396     399     408     414      10     396     399     408     459      36
     396     399    -408     459      37     396     399    -408     459      38
     393     387     396     399      12     390     387     396     399      12
     387     396     399     408       9     576     579     588     591       1
     576     579    -588     591       2     576     579    -588     591       3
     570     564     558     576       4     570     564    -558     576       5
     564     558     576     579       9     558     576     579     582      12
     558     576     579     585      12     558     576     579     588      13
     558     576    -579     588      12     555     516     510     564      14
     543     531     528     555      40     543     546    -552     555      39
     534     531     528     555      40     534     531     543     546      16
     531     528     555     552      20     531     543    -546     552      39
     528     531     543     546      16     528     555    -552     546      21
     525     519    -516     555      22     525     528     531     534      40
     525     528     531     543      40     525     528     555     552      20
     519     516     510     564      14     519     516    -555     528      24
     519     516     555     552      24     519     525     528     531      25
     519     525    -528     555      25     516     510     564     558      10
     516     510     564     570      10     516     519    -525     528      23
     516     555    -528     525      20     516     555     528     531      20
     516     555     552     546      21     510     507    -501     558      26
     510     507    -501     558      27     510     516     519     525      22
     510     516     555     528      24     510     516     555     552      24
     510     564     558     576      10     507     501    -558     564      10
     507     501     558     576       4     507     501    -558     576       5
     507     510     516     519      41     507     510    -516     519      42
     507     510    -516     519      43     507     510    -516     519      44
     507     510     516     555      14     507     510    -564     558      10
     507     510     564     570       4     507     510    -564     570       5
     501     507     510     516      32     501     507    -510     516      27
     501     507    -510     564      26     501     507    -510     564      27
     501     558    -564     510      33     501     558    -564     510      34
     501     558    -564     510      35     501     558     564     570      10
     501     558     576     579       9     492     501     507     510      26
     492     501    -507     510      27     492     501     558     564      33
     492     501    -558     564      34     492     501    -558     564      35
     492     501     558     576      10     489     492     501     507      10
     489     492     501     558      36     489     492    -501     558      37
     489     492    -501     558      38     486     480     489     492      12
     483     480     489     492      12     480     489     492     501       9
     666     669     678     681       1     666     669    -678     681       2
     666     669    -678     681       3     660     654     648     666       4
     660     654    -648     666       5     654     648     666     669       9
     648     666     669     672      12     648     666     669     675      12
     648     666     669     678      13     648     666    -669     678      12
     642     615     609     654      14     633     630     636     642      19
     630     636     642     645      19     624     618     615     642      46
     624     630    -636     642      19     618     615     609     654      14
     618     615     642     636      48     618     615     642     645      48
     618     624     630     633      45     618     624    -630     633      49
     618     624    -630     636      45     615     609     654     648      10
     615     609     654     660      10     615     618     624     630      47
     615     642    -636     630      19     609     606    -600     648      26
     609     606    -600     648      27     609     615     618     624      46
     609     615     642     636      48     609     615     642     645      48
     609     654     648     666      10     606     600    -648     654      10
     606     600     648     666       4     606     600    -648     666       5
     606     609     615     618      50     606     609    -615     618      51
     606     609    -615     618      52     606     609    -615     618      53
     606     609     615     642      14     606     609    -654     648      10
     606     609     654     660       4     606     609    -654     660       5
     600     606     609     615      32     600     606    -609     615      27
     600     606    -609     654      26     600     606    -609     654      27
     600     648    -654     609      33     600     648    -654     609      34
     600     648    -654     609      35     600     648     654     660      10
     600     648     666     669       9     591     600     606     609      26
     591     600    -606     609      27     591     600     648     654      33
     591     600    -648     654      34     591     600    -648     654      35
     591     600     648     666      10     588     591     600     606      10
     588     591     600     648      36     588     591    -600     648      37
     588     591    -600     648      38     585     579     588     591      12
     582     579     588     591      12     579     588     591     600       9
     765     768     777     780       1     765     768    -777     780       2
     765     768    -777     780       3     759     753     747     765       4
     759     753    -747     765       5     753     747     765     768       9
     747     765     768     771      12     747     765     768     774      12
     747     765     768     777      13     747     765    -768     777      12
     744     705     699     753      14     732     720     717     744      40
     732     735    -741     744      39     723     720     717     744      40
     723     720     732     735      16     720     717     744     741      20
     720     732    -735     741      39     717     720     732     735      16
     717     744    -741     735      21     714     708    -705     744      22
     714     717     720     723      40     714     717     720     732      40
     714     717     744     741      20     708     705     699     753      14
     708     705    -744     717      24     708     705     744     741      24
     708     714     717     720      25     708     714    -717     744      25
     705     699     753     747      10     705     699     753     759      10
     705     708    -714     717      23     705     744    -717     714      20
     705     744     717     720      20     705     744     741     735      21
     699     696    -690     747      26     699     696    -690     747      27
     699     705     708     714      22     699     705     744     717      24
     699     705     744     741      24     699     753     747     765      10
     696     690    -747     753      10     696     690     747     765       4
     696     690    -747     765       5     696     699     705     708      41
     696     699    -705     708      42     696     699    -705     708      43
     696     699    -705     708      44     696     699     705     744      14
     696     699    -753     747      10     696     699     753     759       4
     696     699    -753     759       5     690     696     699     705      32
     690     696    -699     705      27     690     696    -699     753      26
     690     696    -699     753      27     690     747    -753     699      33
     690     747    -753     699      34     690     747    -753     699      35
     690     747     753     759      10     690     747     765     768       9
     681     690     696     699      26     681     690    -696     699      27
     681     690     747     753      33     681     690    -747     753      34
     681     690    -747     753      35     681     690     747     765      10
     678     681     690     696      10     678     681     690     747      36
     678     681    -690     747      37     678     681    -690     747      38
     675     669     678     681      12     672     669     678     681      12
     669     678     681     690       9     855     858     867     870       1
     855     858    -867     870       2     855     858    -867     870       3
     849     843     837     855       4     849     843    -837     855       5
     843     837     855     858       9     837     855     858     861      12
     837     855     858     864      12     837     855     858     867      13
     837     855    -858     867      12     831     804     798     843      14
     822     819     825     831      19     819     825     831     834      19
     813     807     804     831      46     813     819    -825     831      19
     807     804     798     843      14     807     804     831     825      48
     807     804     831     834      48     807     813     819     822      45
     807     813    -819     822      49     807     813    -819     825      45
     804     798     843     837      10     804     798     843     849      10
     804     807     813     819      47     804     831    -825     819      19
     798     795    -789     837      26     798     795    -789     837      27
     798     804     807     813      46     798     804     831     825      48
     798     804     831     834      48     798     843     837     855      10
     795     789    -837     843      10     795     789     837     855       4
     795     789    -837     855       5     795     798     804     807      50
     795     798    -804     807      51     795     798    -804     807      52
     795     798    -804     807      53     795     798     804     831      14
     795     798    -843     837      10     795     798     843     849       4
     795     798    -843     849       5     789     795     798     804      32
     789     795    -798     804      27     789     795    -798     843      26
     789     795    -798     843      27     789     837    -843     798      33
     789     837    -843     798      34     789     837    -843     798      35
     789     837     843     849      10     789     837     855     858       9
     780     789     795     798      26     780     789    -795     798      27
     780     789     837     843      33     780     789    -837     843      34
     780     789    -837     843      35     780     789     837     855      10
     777     780     789     795      10     777     780     789     837      36
     777     780    -789     837      37     777     780    -789     837      38
     774     768     777     780      12     771     768     777     780      12
     768     777     780     789       9     954     957     966     969       1
     954     957    -966     969       2     954     957    -966     969       3
     948     942     936     954       4     948     942    -936     954       5
     942     936     954     957       9     936     954     957     960      12
     936     954     957     963      12     936     954     957     966      13
     936     954    -957     966      12     933     894     888     942      14
     921     909     906     933      40     921     924    -930     933      39
     912     909     906     933      40     912     909     921     924      16
     909     906     933     930      20     909     921    -924     930      39
     906     909     921     924      16     906     933    -930     924      21
     903     897    -894     933      22     903     906     909     912      40
     903     906     909     921      40     903     906     933     930      20
     897     894     888     942      14     897     894    -933     906      24
     897     894     933     930      24     897     903     906     909      25
     897     903    -906     933      25     894     888     942     936      10
     894     888     942     948      10     894     897    -903     906      23
     894     933    -906     903      20     894     933     906     909      20
     894     933     930     924      21     888     885    -879     936      26
     888     885    -879     936      27     888     894     897     903      22
     888     894     933     906      24     888     894     933     930      24
     888     942     936     954      10     885     879    -936     942      10
     885     879     936     954       4     885     879    -936     954       5
     885     888     894     897      41     885     888    -894     897      42
     885     888    -894     897      43     885     888    -894     897      44
     885     888     894     933      14     885     888    -942     936      10
     885     888     942     948       4     885     888    -942     948       5
     879     885     888     894      32     879     885    -888     894      27
     879     885    -888     942      26     879     885    -888     942      27
     879     936    -942     888      33     879     936    -942     888      34
     879     936    -942     888      35     879     936     942     948      10
     879     936     954     957       9     870     879     885     888      26
     870     879    -885     888      27     870     879     936     942      33
     870     879    -936     942      34     870     879    -936     942      35
     870     879     936     954      10     867     870     879     885      10
     867     870     879     936      36     867     870    -879     936      37
     867     870    -879     936      38     864     858     867     870      12
     861     858     867     870      12     858     867     870     879       9
    1053    1056    1065    1068       1    1053    1056   -1065    1068       2
    1053    1056   -1065    1068       3    1047    1041    1035    1053       4
    1047    1041   -1035    1053       5    1041    1035    1053    1056       9
    1035    1053    1056    1059      12    1035    1053    1056    1062      12
    1035    1053    1056    1065      13    1035    1053   -1056    1065      12
    1032     993     987    1041      14    1020    1008    1005    1032      40
    1020    1023   -1029    1032      39    1011    1008    1005    1032      40
    1011    1008    1020    1023      16    1008    1005    1032    1029      20
    1008    1020   -1023    1029      39    1005    1008    1020    1023      16
    1005    1032   -1029    1023      21    1002     996    -993    1032      22
    1002    1005    1008    1011      40    1002    1005    1008    1020      40
    1002    1005    1032    1029      20     996     993     987    1041      14
     996     993   -1032    1005      24     996     993    1032    1029      24
     996    1002    1005    1008      25     996    1002   -1005    1032      25
     993     987    1041    1035      10     993     987    1041    1047      10
     993     996   -1002    1005      23     993    1032   -1005    1002      20
     993    1032    1005    1008      20     993    1032    1029    1023      21
     987     984    -978    1035      26     987     984    -978    1035      27
     987     993     996    1002      22     987     993    1032    1005      24
     987     993    1032    1029      24     987    1041    1035    1053      10
     984     978   -1035    1041      10     984     978    1035    1053       4
     984     978   -1035    1053       5     984     987     993     996      41
     984     987    -993     996      42     984     987    -993     996      43
     984     987    -993     996      44     984     987     993    1032      14
     984     987   -1041    1035      10     984     987    1041    1047       4
     984     987   -1041    1047       5     978     984     987     993      32
     978     984    -987     993      27     978     984    -987    1041      26
     978     984    -987    1041      27     978    1035   -1041     987      33
     978    1035   -1041     987      34     978    1035   -1041     987      35
     978    1035    1041    1047      10     978    1035    1053    1056       9
     969     978     984     987      26     969     978    -984     987      27
     969     978    1035    1041      33     969     978   -1035    1041      34
     969     978   -1035    1041      35     969     978    1035    1053      10
     966     969     978     984      10     966     969     978    1035      36
     966     969    -978    1035      37     966     969    -978    1035      38
     963     957     966     969      12     960     957     966     969      12
     957     966     969     978       9    1143    1146    1155    1158       1
    1143    1146   -1155    1158       2    1143    1146   -1155    1158       3
    1137    1131    1125    1143       4    1137    1131   -1125    1143       5
    1131    1125    1143    1146       9    1125    1143    1146    1149      12
    1125    1143    1146    1152      12    1125    1143    1146    1155      13
    1125    1143   -1146    1155      12    1119    1092    1086    1131      14
    1110    1107    1113    1119      19    1107    1113    1119    1122      19
    1101    1095    1092    1119      46    1101    1107   -1113    1119      19
    1095    1092    1086    1131      14    1095    1092    1119    1113      48
    1095    1092    1119    1122      48    1095    1101    1107    1110      45
    1095    1101   -1107    1110      49    1095    1101   -1107    1113      45
    1092    1086    1131    1125      10    1092    1086    1131    1137      10
    1092    1095    1101    1107      47    1092    1119   -1113    1107      19
    1086    1083   -1077    1125      26    1086    1083   -1077    1125      27
    1086    1092    1095    1101      46    1086    1092    1119    1113      48
    1086    1092    1119    1122      48    1086    1131    1125    1143      10
    1083    1077   -1125    1131      10    1083    1077    1125    1143       4
    1083    1077   -1125    1143       5    1083    1086    1092    1095      50
    1083    1086   -1092    1095      51    1083    1086   -1092    1095      52
    1083    1086   -1092    1095      53    1083    1086    1092    1119      14
    1083    1086   -1131    1125      10    1083    1086    1131    1137       4
    1083    1086   -1131    1137       5    1077    1083    1086    1092      32
    1077    1083   -1086    1092      27    1077    1083   -1086    1131      26
    1077    1083   -1086    1131      27    1077    1125   -1131    1086      33
    1077    1125   -1131    1086      34    1077    1125   -1131    1086      35
    1077    1125    1131    1137      10    1077    1125    1143    1146       9
    1068    1077    1083    1086      26    1068    1077   -1083    1086      27
    1068    1077    1125    1131      33    1068    1077   -1125    1131      34
    1068    1077   -1125    1131      35    1068    1077    1125    1143      10
    1065    1068    1077    1083      10    1065    1068    1077    1125      36
    1065    1068   -1077    1125      37    1065    1068   -1077    1125      38
    1062    1056    1065    1068      12    1059    1056    1065    1068      12
    1056    1065    1068    1077       9    1236    1239    1248    1251       1
    1236    1239   -1248    1251       2    1236    1239   -1248    1251       3
    1230    1224    1218    1236       4    1230    1224   -1218    1236       5
    1224    1218    1236    1239       9    1218    1236    1239    1242      12
    1218    1236    1239    1245      12    1218    1236    1239    1248      13
    1218    1236   -1239    1248      12    1212    1182    1176    1224      14
    1200    1197    1209    1212      16    1197    1209    1212    1215      54
    1191    1185    1182    1212      46    1191    1197   -1209    1212      16
    1185    1182    1176    1224      14    1185    1182    1212    1209      48
    1185    1182    1212    1215      48    1185    1191    1197    1200      25
    1185    1191   -1197    1209      25    1182    1176    1224    1218      10
    1182    1176    1224    1230      10    1182    1185    1191    1197      47
    1182    1212   -1209    1197      54    1176    1173   -1167    1218      26
    1176    1173   -1167    1218      27    1176    1182    1185    1191      46
    1176    1182    1212    1209      48    1176    1182    1212    1215      48
    1176    1224    1218    1236      10    1173    1167   -1218    1224      10
    1173    1167    1218    1236       4    1173    1167   -1218    1236       5
    1173    1176    1182    1185      55    1173    1176   -1182    1185      56
    1173    1176   -1182    1185      57    1173    1176   -1182    1185      58
    1173    1176    1182    1212      14    1173    1176   -1224    1218      10
    1173    1176    1224    1230       4    1173    1176   -1224    1230       5
    1167    1173    1176    1182      32    1167    1173   -1176    1182      27
    1167    1173   -1176    1224      26    1167    1173   -1176    1224      27
    1167    1218   -1224    1176      33    1167    1218   -1224    1176      34
    1167    1218   -1224    1176      35    1167    1218    1224    1230      10
    1167    1218    1236    1239       9    1158    1167    1173    1176      26
    1158    1167   -1173    1176      27    1158    1167    1218    1224      33
    1158    1167   -1218    1224      34    1158    1167   -1218    1224      35
    1158    1167    1218    1236      10    1155    1158    1167    1173      10
    1155    1158    1167    1218      36    1155    1158   -1167    1218      37
    1155    1158   -1167    1218      38    1152    1146    1155    1158      12
    1149    1146    1155    1158      12    1146    1155    1158    1167       9
    1338    1341    1350    1353       1    1338    1341   -1350    1353       2
    1338    1341   -1350    1353       3    1332    1326    1320    1338       4
    1332    1326   -1320    1338       5    1326    1320    1338    1341       9
    1320    1338    1341    1344      12    1320    1338    1341    1347      12
    1320    1338    1341    1350      13    1320    1338   -1341    1350      12
    1317    1275    1269    1326      14    1305    1302    1314    1317      16
    1296    1290    1287    1317      18    1296    1302   -1314    1317      16
    1293    1290    1287    1317      18    1293    1290    1296    1302      19
    1290    1287    1317    1314      20    1290    1296    1302    1305      17
    1290    1296   -1302    1314      17    1287    1290    1296    1302      19
    1287    1317   -1314    1302      21    1284    1278   -1275    1317      22
    1284    1287    1290    1293      18    1284    1287    1290    1296      18
    1284    1287    1317    1314      20    1278    1275    1269    1326      14
    1278    1275   -1317    1287      24    1278    1275    1317    1314      24
    1278    1284    1287    1290      25    1278    1284   -1287    1317      25
    1275    1269    1326    1320      10    1275    1269    1326    1332      10
    1275    1278   -1284    1287      23    1275    1317   -1287    1284      20
    1275    1317    1287    1290      20    1275    1317    1314    1302      21
    1269    1266   -1260    1320      26    1269    1266   -1260    1320      27
    1269    1275    1278    1284      22    1269    1275    1317    1287      24
    1269    1275    1317    1314      24    1269    1326    1320    1338      10
    1266    1260   -1320    1326      10    1266    1260    1320    1338       4
    1266    1260   -1320    1338       5    1266    1269    1275    1278      28
    1266    1269   -1275    1278      29    1266    1269   -1275    1278      30
    1266    1269   -1275    1278      31    1266    1269    1275    1317      14
    1266    1269   -1326    1320      10    1266    1269    1326    1332       4
    1266    1269   -1326    1332       5    1260    1266    1269    1275      32
    1260    1266   -1269    1275      27    1260    1266   -1269    1326      26
    1260    1266   -1269    1326      27    1260    1320   -1326    1269      33
    1260    1320   -1326    1269      34    1260    1320   -1326    1269      35
    1260    1320    1326    1332      10    1260    1320    1338    1341       9
    1251    1260    1266    1269      26    1251    1260   -1266    1269      27
    1251    1260    1320    1326      33    1251    1260   -1320    1326      34
    1251    1260   -1320    1326      35    1251    1260    1320    1338      10
    1248    1251    1260    1266      10    1248    1251    1260    1320      36
    1248    1251   -1260    1320      37    1248    1251   -1260    1320      38
    1245    1239    1248    1251      12    1242    1239    1248    1251      12
    1239    1248    1251    1260       9    1431    1434    1443    1446       1
    1431    1434   -1443    1446       2    1431    1434   -1443    1446       3
    1425    1419    1413    1431       4    1425    1419   -1413    1431       5
    1419    1413    1431    1434       9    1413    1431    1434    1437      12
    1413    1431    1434    1440      12    1413    1431    1434    1443      13
    1413    1431   -1434    1443      12    1407    1377    1371    1419      14
    1395    1392    1404    1407      16    1392    1404    1407    1410      54
    1386    1380    1377    1407      46    1386    1392   -1404    1407      16
    1380    1377    1371    1419      14    1380    1377    1407    1404      48
    1380    1377    1407    1410      48    1380    1386    1392    1395      25
    1380    1386   -1392    1404      25    1377    1371    1419    1413      10
    1377    1371    1419    1425      10    1377    1380    1386    1392      47
    1377    1407   -1404    1392      54    1371    1368   -1362    1413      26
    1371    1368   -1362    1413      27    1371    1377    1380    1386      46
    1371    1377    1407    1404      48    1371    1377    1407    1410      48
    1371    1419    1413    1431      10    1368    1362   -1413    1419      10
    1368    1362    1413    1431       4    1368    1362   -1413    1431       5
    1368    1371    1377    1380      55    1368    1371   -1377    1380      56
    1368    1371   -1377    1380      57    1368    1371   -1377    1380      58
    1368    1371    1377    1407      14    1368    1371   -1419    1413      10
    1368    1371    1419    1425       4    1368    1371   -1419    1425       5
    1362    1368    1371    1377      32    1362    1368   -1371    1377      27
    1362    1368   -1371    1419      26    1362    1368   -1371    1419      27
    1362    1413   -1419    1371      33    1362    1413   -1419    1371      34
    1362    1413   -1419    1371      35    1362    1413    1419    1425      10
    1362    1413    1431    1434       9    1353    1362    1368    1371      26
    1353    1362   -1368    1371      27    1353    1362    1413    1419      33
    1353    1362   -1413    1419      34    1353    1362   -1413    1419      35
    1353    1362    1413    1431      10    1350    1353    1362    1368      10
    1350    1353    1362    1413      36    1350    1353   -1362    1413      37
    1350    1353   -1362    1413      38    1347    1341    1350    1353      12
    1344    1341    1350    1353      12    1341    1350    1353    1362       9
    1533    1536    1545    1548       1    1533    1536   -1545    1548       2
    1533    1536   -1545    1548       3    1527    1521    1515    1533       4
    1527    1521   -1515    1533       5    1521    1515    1533    1536       9
    1515    1533    1536    1539      12    1515    1533    1536    1542      12
    1515    1533    1536    1545      13    1515    1533   -1536    1545      12
    1512    1470    1464    1521      14    1500    1497    1509    1512      16
    1491    1485    1482    1512      18    1491    1497   -1509    1512      16
    1488    1485    1482    1512      18    1488    1485    1491    1497      19
    1485    1482    1512    1509      20    1485    1491    1497    1500      17
    1485    1491   -1497    1509      17    1482    1485    1491    1497      19
    1482    1512   -1509    1497      21    1479    1473   -1470    1512      22
    1479    1482    1485    1488      18    1479    1482    1485    1491      18
    1479    1482    1512    1509      20    1473    1470    1464    1521      14
    1473    1470   -1512    1482      24    1473    1470    1512    1509      24
    1473    1479    1482    1485      25    1473    1479   -1482    1512      25
    1470    1464    1521    1515      10    1470    1464    1521    1527      10
    1470    1473   -1479    1482      23    1470    1512   -1482    1479      20
    1470    1512    1482    1485      20    1470    1512    1509    1497      21
    1464    1461   -1455    1515      26    1464    1461   -1455    1515      27
    1464    1470    1473    1479      22    1464    1470    1512    1482      24
    1464    1470    1512    1509      24    1464    1521    1515    1533      10
    1461    1455   -1515    1521      10    1461    1455    1515    1533       4
    1461    1455   -1515    1533       5    1461    1464    1470    1473      28
    1461    1464   -1470    1473      29    1461    1464   -1470    1473      30
    1461    1464   -1470    1473      31    1461    1464    1470    1512      14
    1461    1464   -1521    1515      10    1461    1464    1521    1527       4
    1461    1464   -1521    1527       5    1455    1461    1464    1470      32
    1455    1461   -1464    1470      27    1455    1461   -1464    1521      26
    1455    1461   -1464    1521      27    1455    1515   -1521    1464      33
    1455    1515   -1521    1464      34    1455    1515   -1521    1464      35
    1455    1515    1521    1527      10    1455    1515    1533    1536       9
    1446    1455    1461    1464      26    1446    1455   -1461    1464      27
    1446    1455    1515    1521      33    1446    1455   -1515    1521      34
    1446    1455   -1515    1521      35    1446    1455    1515    1533      10
    1443    1446    1455    1461      10    1443    1446    1455    1515      36
    1443    1446   -1455    1515      37    1443    1446   -1455    1515      38
    1440    1434    1443    1446      12    1437    1434    1443    1446      12
    1434    1443    1446    1455       9    1623    1626    1635    1638       1
    1623    1626   -1635    1638       2    1623    1626   -1635    1638       3
    1617    1611    1605    1623       4    1617    1611   -1605    1623       5
    1611    1605    1623    1626       9    1605    1623    1626    1629      12
    1605    1623    1626    1632      12    1605    1623    1626    1635      13
    1605    1623   -1626    1635      12    1599    1572    1566    1611      14
    1590    1587    1593    1599      19    1587    1593    1599    1602      19
    1581    1575    1572    1599      46    1581    1587   -1593    1599      19
    1575    1572    1566    1611      14    1575    1572    1599    1593      48
    1575    1572    1599    1602      48    1575    1581    1587    1590      45
    1575    1581   -1587    1590      49    1575    1581   -1587    1593      45
    1572    1566    1611    1605      10    1572    1566    1611    1617      10
    1572    1575    1581    1587      47    1572    1599   -1593    1587      19
    1566    1563   -1557    1605      26    1566    1563   -1557    1605      27
    1566    1572    1575    1581      46    1566    1572    1599    1593      48
    1566    1572    1599    1602      48    1566    1611    1605    1623      10
    1563    1557   -1605    1611      10    1563    1557    1605    1623       4
    1563    1557   -1605    1623       5    1563    1566    1572    1575      50
    1563    1566   -1572    1575      51    1563    1566   -1572    1575      52
    1563    1566   -1572    1575      53    1563    1566    1572    1599      14
    1563    1566   -1611    1605      10    1563    1566    1611    1617       4
    1563    1566   -1611    1617       5    1557    1563    1566    1572      32
    1557    1563   -1566    1572      27    1557    1563   -1566    1611      26
    1557    1563   -1566    1611      27    1557    1605   -1611    1566      33
    1557    1605   -1611    1566      34    1557    1605   -1611    1566      35
    1557    1605    1611    1617      10    1557    1605    1623    1626       9
    1548    1557    1563    1566      26    1548    1557   -1563    1566      27
    1548    1557    1605    1611      33    1548    1557   -1605    1611      34
    1548    1557   -1605    1611      35    1548    1557    1605    1623      10
    1545    1548    1557    1563      10    1545    1548    1557    1605      36
    1545    1548   -1557    1605      37    1545    1548   -1557    1605      38
    1542    1536    1545    1548      12    1539    1536    1545    1548      12
    1536    1545    1548    1557       9    1725    1728    1737    1740       1
    1725    1728   -1737    1740       2    1725    1728   -1737    1740       3
    1719    1713    1707    1725       4    1719    1713   -1707    1725       5
    1713    1707    1725    1728       9    1707    1725    1728    1731      12
    1707    1725    1728    1734      12    1707    1725    1728    1737      13
    1707    1725   -1728    1737      12    1704    1662    1656    1713      14
    1692    1689    1701    1704      16    1683    1677    1674    1704      18
    1683    1689   -1701    1704      16    1680    1677    1674    1704      18
    1680    1677    1683    1689      19    1677    1674    1704    1701      20
    1677    1683    1689    1692      17    1677    1683   -1689    1701      17
    1674    1677    1683    1689      19    1674    1704   -1701    1689      21
    1671    1665   -1662    1704      22    1671    1674    1677    1680      18
    1671    1674    1677    1683      18    1671    1674    1704    1701      20
    1665    1662    1656    1713      14    1665    1662   -1704    1674      24
    1665    1662    1704    1701      24    1665    1671    1674    1677      25
    1665    1671   -1674    1704      25    1662    1656    1713    1707      10
    1662    1656    1713    1719      10    1662    1665   -1671    1674      23
    1662    1704   -1674    1671      20    1662    1704    1674    1677      20
    1662    1704    1701    1689      21    1656    1653   -1647    1707      26
    1656    1653   -1647    1707      27    1656    1662    1665    1671      22
    1656    1662    1704    1674      24    1656    1662    1704    1701      24
    1656    1713    1707    1725      10    1653    1647   -1707    1713      10
    1653    1647    1707    1725       4    1653    1647   -1707    1725       5
    1653    1656    1662    1665      28    1653    1656   -1662    1665      29
    1653    1656   -1662    1665      30    1653    1656   -1662    1665      31
    1653    1656    1662    1704      14    1653    1656   -1713    1707      10
    1653    1656    1713    1719       4    1653    1656   -1713    1719       5
    1647    1653    1656    1662      32    1647    1653   -1656    1662      27
    1647    1653   -1656    1713      26    1647    1653   -1656    1713      27
    1647    1707   -1713    1656      33    1647    1707   -1713    1656      34
    1647    1707   -1713    1656      35    1647    1707    1713    1719      10
    1647    1707    1725    1728       9    1638    1647    1653    1656      26
    1638    1647   -1653    1656      27    1638    1647    1707    1713      33
    1638    1647   -1707    1713      34    1638    1647   -1707    1713      35
    1638    1647    1707    1725      10    1635    1638    1647    1653      10
    1635    1638    1647    1707      36    1635    1638   -1647    1707      37
    1635    1638   -1647    1707      38    1632    1626    1635    1638      12
    1629    1626    1635    1638      12    1626    1635    1638    1647       9
    1827    1830    1839    1842       1    1827    1830   -1839    1842       2
    1827    1830   -1839    1842       3    1821    1815    1809    1827       4
    1821    1815   -1809    1827       5    1815    1809    1827    1830       9
    1809    1827    1830    1833      12    1809    1827    1830    1836      12
    1809    1827    1830    1839      13    1809    1827   -1830    1839      12
    1806    1764    1758    1815      14    1794    1791    1803    1806      16
    1785    1779    1776    1806      18    1785    1791   -1803    1806      16
    1782    1779    1776    1806      18    1782    1779    1785    1791      19
    1779    1776    1806    1803      20    1779    1785    1791    1794      17
    1779    1785   -1791    1803      17    1776    1779    1785    1791      19
    1776    1806   -1803    1791      21    1773    1767   -1764    1806      22
    1773    1776    1779    1782      18    1773    1776    1779    1785      18
    1773    1776    1806    1803      20    1767    1764    1758    1815      14
    1767    1764   -1806    1776      24    1767    1764    1806    1803      24
    1767    1773    1776    1779      25    1767    1773   -1776    1806      25
    1764    1758    1815    1809      10    1764    1758    1815    1821      10
    1764    1767   -1773    1776      23    1764    1806   -1776    1773      20
    1764    1806    1776    1779      20    1764    1806    1803    1791      21
    1758    1755   -1749    1809      26    1758    1755   -1749    1809      27
    1758    1764    1767    1773      22    1758    1764    1806    1776      24
    1758    1764    1806    1803      24    1758    1815    1809    1827      10
    1755    1749   -1809    1815      10    1755    1749    1809    1827       4
    1755    1749   -1809    1827       5    1755    1758    1764    1767      28
    1755    1758   -1764    1767      29    1755    1758   -1764    1767      30
    1755    1758   -1764    1767      31    1755    1758    1764    1806      14
    1755    1758   -1815    1809      10    1755    1758    1815    1821       4
    1755    1758   -1815    1821       5    1749    1755    1758    1764      32
    1749    1755   -1758    1764      27    1749    1755   -1758    1815      26
    1749    1755   -1758    1815      27    1749    1809   -1815    1758      33
    1749    1809   -1815    1758      34    1749    1809   -1815    1758      35
    1749    1809    1815    1821      10    1749    1809    1827    1830       9
    1740    1749    1755    1758      26    1740    1749   -1755    1758      27
    1740    1749    1809    1815      33    1740    1749   -1809    1815      34
    1740    1749   -1809    1815      35    1740    1749    1809    1827      10
    1737    1740    1749    1755      10    1737    1740    1749    1809      36
    1737    1740   -1749    1809      37    1737    1740   -1749    1809      38
    1734    1728    1737    1740      12    1731    1728    1737    1740      12
    1728    1737    1740    1749       9    1926    1929    1938    1941       1
    1926    1929   -1938    1941       2    1926    1929   -1938    1941       3
    1920    1914    1908    1926       4    1920    1914   -1908    1926       5
    1914    1908    1926    1929       9    1908    1926    1929    1932      12
    1908    1926    1929    1935      12    1908    1926    1929    1938      13
    1908    1926   -1929    1938      12    1905    1866    1860    1914      14
    1893    1881    1878    1905      40    1893    1896   -1902    1905      39
    1884    1881    1878    1905      40    1884    1881    1893    1896      16
    1881    1878    1905    1902      20    1881    1893   -1896    1902      39
    1878    1881    1893    1896      16    1878    1905   -1902    1896      21
    1875    1869   -1866    1905      22    1875    1878    1881    1884      40
    1875    1878    1881    1893      40    1875    1878    1905    1902      20
    1869    1866    1860    1914      14    1869    1866   -1905    1878      24
    1869    1866    1905    1902      24    1869    1875    1878    1881      25
    1869    1875   -1878    1905      25    1866    1860    1914    1908      10
    1866    1860    1914    1920      10    1866    1869   -1875    1878      23
    1866    1905   -1878    1875      20    1866    1905    1878    1881      20
    1866    1905    1902    1896      21    1860    1857   -1851    1908      26
    1860    1857   -1851    1908      27    1860    1866    1869    1875      22
    1860    1866    1905    1878      24    1860    1866    1905    1902      24
    1860    1914    1908    1926      10    1857    1851   -1908    1914      10
    1857    1851    1908    1926       4    1857    1851   -1908    1926       5
    1857    1860    1866    1869      41    1857    1860   -1866    1869      42
    1857    1860   -1866    1869      43    1857    1860   -1866    1869      44
    1857    1860    1866    1905      14    1857    1860   -1914    1908      10
    1857    1860    1914    1920       4    1857    1860   -1914    1920       5
    1851    1857    1860    1866      32    1851    1857   -1860    1866      27
    1851    1857   -1860    1914      26    1851    1857   -1860    1914      27
    1851    1908   -1914    1860      33    1851    1908   -1914    1860      34
    1851    1908   -1914    1860      35    1851    1908    1914    1920      10
    1851    1908    1926    1929       9    1842    1851    1857    1860      26
    1842    1851   -1857    1860      27    1842    1851    1908    1914      33
    1842    1851   -1908    1914      34    1842    1851   -1908    1914      35
    1842    1851    1908    1926      10    1839    1842    1851    1857      10
    1839    1842    1851    1908      36    1839    1842   -1851    1908      37
    1839    1842   -1851    1908      38    1836    1830    1839    1842      12
    1833    1830    1839    1842      12    1830    1839    1842    1851       9
    2016    2019    2028    2031       1    2016    2019   -2028    2031       2
    2016    2019   -2028    2031       3    2010    2004    1998    2016       4
    2010    2004   -1998    2016       5    2004    1998    2016    2019       9
    1998    2016    2019    2022      12    1998    2016    2019    2025      12
    1998    2016    2019    2028      13    1998    2016   -2019    2028      12
    1992    1965    1959    2004      14    1983    1980    1986    1992      19
    1980    1986    1992    1995      19    1974    1968    1965    1992      46
    1974    1980   -1986    1992      19    1968    1965    1959    2004      14
    1968    1965    1992    1986      48    1968    1965    1992    1995      48
    1968    1974    1980    1983      45    1968    1974   -1980    1983      49
    1968    1974   -1980    1986      45    1965    1959    2004    1998      10
    1965    1959    2004    2010      10    1965    1968    1974    1980      47
    1965    1992   -1986    1980      19    1959    1956   -1950    1998      26
    1959    1956   -1950    1998      27    1959    1965    1968    1974      46
    1959    1965    1992    1986      48    1959    1965    1992    1995      48
    1959    2004    1998    2016      10    1956    1950   -1998    2004      10
    1956    1950    1998    2016       4    1956    1950   -1998    2016       5
    1956    1959    1965    1968      50    1956    1959   -1965    1968      51
    1956    1959   -1965    1968      52    1956    1959   -1965    1968      53
    1956    1959    1965    1992      14    1956    1959   -2004    1998      10
    1956    1959    2004    2010       4    1956    1959   -2004    2010       5
    1950    1956    1959    1965      32    1950    1956   -1959    1965      27
    1950    1956   -1959    2004      26    1950    1956   -1959    2004      27
    1950    1998   -2004    1959      33    1950    1998   -2004    1959      34
    1950    1998   -2004    1959      35    1950    1998    2004    2010      10
    1950    1998    2016    2019       9    1941    1950    1956    1959      26
    1941    1950   -1956    1959      27    1941    1950    1998    2004      33
    1941    1950   -1998    2004      34    1941    1950   -1998    2004      35
    1941    1950    1998    2016      10    1938    1941    1950    1956      10
    1938    1941    1950    1998      36    1938    1941   -1950    1998      37
    1938    1941   -1950    1998      38    1935    1929    1938    1941      12
    1932    1929    1938    1941      12    1929    1938    1941    1950       9
    2115    2118    2127    2130       1    2115    2118   -2127    2130       2
    2115    2118   -2127    2130       3    2109    2103    2097    2115       4
    2109    2103   -2097    2115       5    2103    2097    2115    2118       9
    2097    2115    2118    2121      12    2097    2115    2118    2124      12
    2097    2115    2118    2127      13    2097    2115   -2118    2127      12
    2094    2055    2049    2103      14    2082    2070    2067    2094      40
    2082    2085   -2091    2094      39    2073    2070    2067    2094      40
    2073    2070    2082    2085      16    2070    2067    2094    2091      20
    2070    2082   -2085    2091      39    2067    2070    2082    2085      16
    2067    2094   -2091    2085      21    2064    2058   -2055    2094      22
    2064    2067    2070    2073      40    2064    2067    2070    2082      40
    2064    2067    2094    2091      20    2058    2055    2049    2103      14
    2058    2055   -2094    2067      24    2058    2055    2094    2091      24
    2058    2064    2067    2070      25    2058    2064   -2067    2094      25
    2055    2049    2103    2097      10    2055    2049    2103    2109      10
    2055    2058   -2064    2067      23    2055    2094   -2067    2064      20
    2055    2094    2067    2070      20    2055    2094    2091    2085      21
    2049    2046   -2040    2097      26    2049    2046   -2040    2097      27
    2049    2055    2058    2064      22    2049    2055    2094    2067      24
    2049    2055    2094    2091      24    2049    2103    2097    2115      10
    2046    2040   -2097    2103      10    2046    2040    2097    2115       4
    2046    2040   -2097    2115       5    2046    2049    2055    2058      41
    2046    2049   -2055    2058      42    2046    2049   -2055    2058      43
    2046    2049   -2055    2058      44    2046    2049    2055    2094      14
    2046    2049   -2103    2097      10    2046    2049    2103    2109       4
    2046    2049   -2103    2109       5    2040    2046    2049    2055      32
    2040    2046   -2049    2055      27    2040    2046   -2049    2103      26
    2040    2046   -2049    2103      27    2040    2097   -2103    2049      33
    2040    2097   -2103    2049      34    2040    2097   -2103    2049      35
    2040    2097    2103    2109      10    2040    2097    2115    2118       9
    2031    2040    2046    2049      26    2031    2040   -2046    2049      27
    2031    2040    2097    2103      33    2031    2040   -2097    2103      34
    2031    2040   -2097    2103      35    2031    2040    2097    2115      10
    2028    2031    2040    2046      10    2028    2031    2040    2097      36
    2028    2031   -2040    2097      37    2028    2031   -2040    2097      38
    2025    2019    2028    2031      12    2022    2019    2028    2031      12
    2019    2028    2031    2040       9    2205    2208    2217    2220       1
    2205    2208   -2217    2220       2    2205    2208   -2217    2220       3
    2199    2193    2187    2205       4    2199    2193   -2187    2205       5
    2193    2187    2205    2208       9    2187    2205    2208    2211      12
    2187    2205    2208    2214      12    2187    2205    2208    2217      13
    2187    2205   -2208    2217      12    2181    2154    2148    2193      14
    2172    2169    2175    2181      19    2169    2175    2181    2184      19
    2163    2157    2154    2181      46    2163    2169   -2175    2181      19
    2157    2154    2148    2193      14    2157    2154    2181    2175      48
    2157    2154    2181    2184      48    2157    2163    2169    2172      45
    2157    2163   -2169    2172      49    2157    2163   -2169    2175      45
    2154    2148    2193    2187      10    2154    2148    2193    2199      10
    2154    2157    2163    2169      47    2154    2181   -2175    2169      19
    2148    2145   -2139    2187      26    2148    2145   -2139    2187      27
    2148    2154    2157    2163      46    2148    2154    2181    2175      48
    2148    2154    2181    2184      48    2148    2193    2187    2205      10
    2145    2139   -2187    2193      10    2145    2139    2187    2205       4
    2145    2139   -2187    2205       5    2145    2148    2154    2157      50
    2145    2148   -2154    2157      51    2145    2148   -2154    2157      52
    2145    2148   -2154    2157      53    2145    2148    2154    2181      14
    2145    2148   -2193    2187      10    2145    2148    2193    2199       4
    2145    2148   -2193    2199       5    2139    2145    2148    2154      32
    2139    2145   -2148    2154      27    2139    2145   -2148    2193      26
    2139    2145   -2148    2193      27    2139    2187   -2193    2148      33
    2139    2187   -2193    2148      34    2139    2187   -2193    2148      35
    2139    2187    2193    2199      10    2139    2187    2205    2208       9
    2130    2139    2145    2148      26    2130    2139   -2145    2148      27
    2130    2139    2187    2193      33    2130    2139   -2187    2193      34
    2130    2139   -2187    2193      35    2130    2139    2187    2205      10
    2127    2130    2139    2145      10    2127    2130    2139    2187      36
    2127    2130   -2139    2187      37    2127    2130   -2139    2187      38
    2124    2118    2127    2130      12    2121    2118    2127    2130      12
    2118    2127    2130    2139       9    2307    2310    2319    2322       1
    2307    2310   -2319    2322       2    2307    2310   -2319    2322       3
    2301    2295    2289    2307       4    2301    2295   -2289    2307       5
    2295    2289    2307    2310       9    2289    2307    2310    2313      12
    2289    2307    2310    2316      12    2289    2307    2310    2319      13
    2289    2307   -2310    2319      12    2286    2244    2238    2295      14
    2274    2271    2283    2286      16    2265    2259    2256    2286      18
    2265    2271   -2283    2286      16    2262    2259    2256    2286      18
    2262    2259    2265    2271      19    2259    2256    2286    2283      20
    2259    2265    2271    2274      17    2259    2265   -2271    2283      17
    2256    2259    2265    2271      19    2256    2286   -2283    2271      21
    2253    2247   -2244    2286      22    2253    2256    2259    2262      18
    2253    2256    2259    2265      18    2253    2256    2286    2283      20
    2247    2244    2238    2295      14    2247    2244   -2286    2256      24
    2247    2244    2286    2283      24    2247    2253    2256    2259      25
    2247    2253   -2256    2286      25    2244    2238    2295    2289      10
    2244    2238    2295    2301      10    2244    2247   -2253    2256      23
    2244    2286   -2256    2253      20    2244    2286    2256    2259      20
    2244    2286    2283    2271      21    2238    2235   -2229    2289      26
    2238    2235   -2229    2289      27    2238    2244    2247    2253      22
    2238    2244    2286    2256      24    2238    2244    2286    2283      24
    2238    2295    2289    2307      10    2235    2229   -2289    2295      10
    2235    2229    2289    2307       4    2235    2229   -2289    2307       5
    2235    2238    2244    2247      28    2235    2238   -2244    2247      29
    2235    2238   -2244    2247      30    2235    2238   -2244    2247      31
    2235    2238    2244    2286      14    2235    2238   -2295    2289      10
    2235    2238    2295    2301       4    2235    2238   -2295    2301       5
    2229    2235    2238    2244      32    2229    2235   -2238    2244      27
    2229    2235   -2238    2295      26    2229    2235   -2238    2295      27
    2229    2289   -2295    2238      33    2229    2289   -2295    2238      34
    2229    2289   -2295    2238      35    2229    2289    2295    2301      10
    2229    2289    2307    2310       9    2220    2229    2235    2238      26
    2220    2229   -2235    2238      27    2220    2229    2289    2295      33
    2220    2229   -2289    2295      34    2220    2229   -2289    2295      35
    2220    2229    2289    2307      10    2217    2220    2229    2235      10
    2217    2220    2229    2289      36    2217    2220   -2229    2289      37
    2217    2220   -2229    2289      38    2214    2208    2217    2220      12
    2211    2208    2217    2220      12    2208    2217    2220    2229       9
    2409    2412    2421    2424       1    2409    2412   -2421    2424       2
    2409    2412   -2421    2424       3    2403    2397    2391    2409       4
    2403    2397   -2391    2409       5    2397    2391    2409    2412       9
    2391    2409    2412    2415      12    2391    2409    2412    2418      12
    2391    2409    2412    2421      13    2391    2409   -2412    2421      12
    2388    2346    2340    2397      14    2376    2373    2385    2388      16
    2367    2361    2358    2388      18    2367    2373   -2385    2388      16
    2364    2361    2358    2388      18    2364    2361    2367    2373      19
    2361    2358    2388    2385      20    2361    2367    2373    2376      17
    2361    2367   -2373    2385      17    2358    2361    2367    2373      19
    2358    2388   -2385    2373      21    2355    2349   -2346    2388      22
    2355    2358    2361    2364      18    2355    2358    2361    2367      18
    2355    2358    2388    2385      20    2349    2346    2340    2397      14
    2349    2346   -2388    2358      24    2349    2346    2388    2385      24
    2349    2355    2358    2361      25    2349    2355   -2358    2388      25
    2346    2340    2397    2391      10    2346    2340    2397    2403      10
    2346    2349   -2355    2358      23    2346    2388   -2358    2355      20
    2346    2388    2358    2361      20    2346    2388    2385    2373      21
    2340    2337   -2331    2391      26    2340    2337   -2331    2391      27
    2340    2346    2349    2355      22    2340    2346    2388    2358      24
    2340    2346    2388    2385      24    2340    2397    2391    2409      10
    2337    2331   -2391    2397      10    2337    2331    2391    2409       4
    2337    2331   -2391    2409       5    2337    2340    2346    2349      28
    2337    2340   -2346    2349      29    2337    2340   -2346    2349      30
    2337    2340   -2346    2349      31    2337    2340    2346    2388      14
    2337    2340   -2397    2391      10    2337    2340    2397    2403       4
    2337    2340   -2397    2403       5    2331    2337    2340    2346      32
    2331    2337   -2340    2346      27    2331    2337   -2340    2397      26
    2331    2337   -2340    2397      27    2331    2391   -2397    2340      33
    2331    2391   -2397    2340      34    2331    2391   -2397    2340      35
    2331    2391    2397    2403      10    2331    2391    2409    2412       9
    2322    2331    2337    2340      26    2322    2331   -2337    2340      27
    2322    2331    2391    2397      33    2322    2331   -2391    2397      34
    2322    2331   -2391    2397      35    2322    2331    2391    2409      10
    2319    2322    2331    2337      10    2319    2322    2331    2391      36
    2319    2322   -2331    2391      37    2319    2322   -2331    2391      38
    2316    2310    2319    2322      12    2313    2310    2319    2322      12
    2310    2319    2322    2331       9    2502    2505    2514    2517       1
    2502    2505   -2514    2517       2    2502    2505   -2514    2517       3
    2496    2490    2484    2502       4    2496    2490   -2484    2502       5
    2490    2484    2502    2505       9    2484    2502    2505    2508      12
    2484    2502    2505    2511      12    2484    2502    2505    2514      13
    2484    2502   -2505    2514      12    2478    2448    2442    2490      14
    2466    2463    2475    2478      16    2463    2475    2478    2481      54
    2457    2451    2448    2478      46    2457    2463   -2475    2478      16
    2451    2448    2442    2490      14    2451    2448    2478    2475      48
    2451    2448    2478    2481      48    2451    2457    2463    2466      25
    2451    2457   -2463    2475      25    2448    2442    2490    2484      10
    2448    2442    2490    2496      10    2448    2451    2457    2463      47
    2448    2478   -2475    2463      54    2442    2439   -2433    2484      26
    2442    2439   -2433    2484      27    2442    2448    2451    2457      46
    2442    2448    2478    2475      48    2442    2448    2478    2481      48
    2442    2490    2484    2502      10    2439    2433   -2484    2490      10
    2439    2433    2484    2502       4    2439    2433   -2484    2502       5
    2439    2442    2448    2451      55    2439    2442   -2448    2451      56
    2439    2442   -2448    2451      57    2439    2442   -2448    2451      58
    2439    2442    2448    2478      14    2439    2442   -2490    2484      10
    2439    2442    2490    2496       4    2439    2442   -2490    2496       5
    2433    2439    2442    2448      32    2433    2439   -2442    2448      27
    2433    2439   -2442    2490      26    2433    2439   -2442    2490      27
    2433    2484   -2490    2442      33    2433    2484   -2490    2442      34
    2433    2484   -2490    2442      35    2433    2484    2490    2496      10
    2433    2484    2502    2505       9    2424    2433    2439    2442      26
    2424    2433   -2439    2442      27    2424    2433    2484    2490      33
    2424    2433   -2484    2490      34    2424    2433   -2484    2490      35
    2424    2433    2484    2502      10    2421    2424    2433    2439      10
    2421    2424    2433    2484      36    2421    2424   -2433    2484      37
    2421    2424   -2433    2484      38    2418    2412    2421    2424      12
    2415    2412    2421    2424      12    2412    2421    2424    2433       9
    2601    2604    2613    2616       1    2601    2604   -2613    2616       2
    2601    2604   -2613    2616       3    2595    2589    2583    2601       4
    2595    2589   -2583    2601       5    2589    2583    2601    2604       9
    2583    2601    2604    2607      12    2583    2601    2604    2610      12
    2583    2601    2604    2613      13    2583    2601   -2604    2613      12
    2580    2541    2535    2589      14    2568    2556    2553    2580      40
    2568    2571   -2577    2580      39    2559    2556    2553    2580      40
    2559    2556    2568    2571      16    2556    2553    2580    2577      20
    2556    2568   -2571    2577      39    2553    2556    2568    2571      16
    2553    2580   -2577    2571      21    2550    2544   -2541    2580      22
    2550    2553    2556    2559      40    2550    2553    2556    2568      40
    2550    2553    2580    2577      20    2544    2541    2535    2589      14
    2544    2541   -2580    2553      24    2544    2541    2580    2577      24
    2544    2550    2553    2556      25    2544    2550   -2553    2580      25
    2541    2535    2589    2583      10    2541    2535    2589    2595      10
    2541    2544   -2550    2553      23    2541    2580   -2553    2550      20
    2541    2580    2553    2556      20    2541    2580    2577    2571      21
    2535    2532   -2526    2583      26    2535    2532   -2526    2583      27
    2535    2541    2544    2550      22    2535    2541    2580    2553      24
    2535    2541    2580    2577      24    2535    2589    2583    2601      10
    2532    2526   -2583    2589      10    2532    2526    2583    2601       4
    2532    2526   -2583    2601       5    2532    2535    2541    2544      41
    2532    2535   -2541    2544      42    2532    2535   -2541    2544      43
    2532    2535   -2541    2544      44    2532    2535    2541    2580      14
    2532    2535   -2589    2583      10    2532    2535    2589    2595       4
    2532    2535   -2589    2595       5    2526    2532    2535    2541      32
    2526    2532   -2535    2541      27    2526    2532   -2535    2589      26
    2526    2532   -2535    2589      27    2526    2583   -2589    2535      33
    2526    2583   -2589    2535      34    2526    2583   -2589    2535      35
    2526    2583    2589    2595      10    2526    2583    2601    2604       9
    2517    2526    2532    2535      26    2517    2526   -2532    2535      27
    2517    2526    2583    2589      33    2517    2526   -2583    2589      34
    2517    2526   -2583    2589      35    2517    2526    2583    2601      10
    2514    2517    2526    2532      10    2514    2517    2526    2583      36
    2514    2517   -2526    2583      37    2514    2517   -2526    2583      38
    2511    2505    2514    2517      12    2508    2505    2514    2517      12
    2505    2514    2517    2526       9    2694    2697    2706    2709       1
    2694    2697   -2706    2709       2    2694    2697   -2706    2709       3
    2688    2682    2676    2694       4    2688    2682   -2676    2694       5
    2682    2676    2694    2697       9    2676    2694    2697    2700      12
    2676    2694    2697    2703      12    2676    2694    2697    2706      13
    2676    2694   -2697    2706      12    2670    2640    2634    2682      14
    2658    2655    2667    2670      16    2655    2667    2670    2673      54
    2649    2643    2640    2670      46    2649    2655   -2667    2670      16
    2643    2640    2634    2682      14    2643    2640    2670    2667      48
    2643    2640    2670    2673      48    2643    2649    2655    2658      25
    2643    2649   -2655    2667      25    2640    2634    2682    2676      10
    2640    2634    2682    2688      10    2640    2643    2649    2655      47
    2640    2670   -2667    2655      54    2634    2631   -2625    2676      26
    2634    2631   -2625    2676      27    2634    2640    2643    2649      46
    2634    2640    2670    2667      48    2634    2640    2670    2673      48
    2634    2682    2676    2694      10    2631    2625   -2676    2682      10
    2631    2625    2676    2694       4    2631    2625   -2676    2694       5
    2631    2634    2640    2643      55    2631    2634   -2640    2643      56
    2631    2634   -2640    2643      57    2631    2634   -2640    2643      58
    2631    2634    2640    2670      14    2631    2634   -2682    2676      10
    2631    2634    2682    2688       4    2631    2634   -2682    2688       5
    2625    2631    2634    2640      32    2625    2631   -2634    2640      27
    2625    2631   -2634    2682      26    2625    2631   -2634    2682      27
    2625    2676   -2682    2634      33    2625    2676   -2682    2634      34
    2625    2676   -2682    2634      35    2625    2676    2682    2688      10
    2625    2676    2694    2697       9    2616    2625    2631    2634      26
    2616    2625   -2631    2634      27    2616    2625    2676    2682      33
    2616    2625   -2676    2682      34    2616    2625   -2676    2682      35
    2616    2625    2676    2694      10    2613    2616    2625    2631      10
    2613    2616    2625    2676      36    2613    2616   -2625    2676      37
    2613    2616   -2625    2676      38    2610    2604    2613    2616      12
    2607    2604    2613    2616      12    2604    2613    2616    2625       9
    2796    2799    2808    2811       1    2796    2799   -2808    2811       2
    2796    2799   -2808    2811       3    2790    2784    2778    2796       4
    2790    2784   -2778    2796       5    2784    2778    2796    2799       9
    2778    2796    2799    2802      12    2778    2796    2799    2805      12
    2778    2796    2799    2808      13    2778    2796   -2799    2808      12
    2775    2733    2727    2784      14    2763    2760    2772    2775      16
    2754    2748    2745    2775      18    2754    2760   -2772    2775      16
    2751    2748    2745    2775      18    2751    2748    2754    2760      19
    2748    2745    2775    2772      20    2748    2754    2760    2763      17
    2748    2754   -2760    2772      17    2745    2748    2754    2760      19
    2745    2775   -2772    2760      21    2742    2736   -2733    2775      22
    2742    2745    2748    2751      18    2742    2745    2748    2754      18
    2742    2745    2775    2772      20    2736    2733    2727    2784      14
    2736    2733   -2775    2745      24    2736    2733    2775    2772      24
    2736    2742    2745    2748      25    2736    2742   -2745    2775      25
    2733    2727    2784    2778      10    2733    2727    2784    2790      10
    2733    2736   -2742    2745      23    2733    2775   -2745    2742      20
    2733    2775    2745    2748      20    2733    2775    2772    2760      21
    2727    2724   -2718    2778      26    2727    2724   -2718    2778      27
    2727    2733    2736    2742      22    2727    2733    2775    2745      24
    2727    2733    2775    2772      24    2727    2784    2778    2796      10
    2724    2718   -2778    2784      10    2724    2718    2778    2796       4
    2724    2718   -2778    2796       5    2724    2727    2733    2736      28
    2724    2727   -2733    2736      29    2724    2727   -2733    2736      30
    2724    2727   -2733    2736      31    2724    2727    2733    2775      14
    2724    2727   -2784    2778      10    2724    2727    2784    2790       4
    2724    2727   -2784    2790       5    2718    2724    2727    2733      32
    2718    2724   -2727    2733      27    2718    2724   -2727    2784      26
    2718    2724   -2727    2784      27    2718    2778   -2784    2727      33
    2718    2778   -2784    2727      34    2718    2778   -2784    2727      35
    2718    2778    2784    2790      10    2718    2778    2796    2799       9
    2709    2718    2724    2727      26    2709    2718   -2724    2727      27
    2709    2718    2778    2784      33    2709    2718   -2778    2784      34
    2709    2718   -2778    2784      35    2709    2718    2778    2796      10
    2706    2709    2718    2724      10    2706    2709    2718    2778      36
    2706    2709   -2718    2778      37    2706    2709   -2718    2778      38
    2703    2697    2706    2709      12    2700    2697    2706    2709      12
    2697    2706    2709    2718       9    2889    2892    2901    2904       1
    2889    2892   -2901    2904       2    2889    2892   -2901    2904       3
    2883    2877    2871    2889       4    2883    2877   -2871    2889       5
    2877    2871    2889    2892       9    2871    2889    2892    2895      12
    2871    2889    2892    2898      12    2871    2889    2892    2901      13
    2871    2889   -2892    2901      12    2865    2835    2829    2877      14
    2853    2850    2862    2865      16    2850    2862    2865    2868      54
    2844    2838    2835    2865      46    2844    2850   -2862    2865      16
    2838    2835    2829    2877      14    2838    2835    2865    2862      48
    2838    2835    2865    2868      48    2838    2844    2850    2853      25
    2838    2844   -2850    2862      25    2835    2829    2877    2871      10
    2835    2829    2877    2883      10    2835    2838    2844    2850      47
    2835    2865   -2862    2850      54    2829    2826   -2820    2871      26
    2829    2826   -2820    2871      27    2829    2835    2838    2844      46
    2829    2835    2865    2862      48    2829    2835    2865    2868      48
    2829    2877    2871    2889      10    2826    2820   -2871    2877      10
    2826    2820    2871    2889       4    2826    2820   -2871    2889       5
    2826    2829    2835    2838      55    2826    2829   -2835    2838      56
    2826    2829   -2835    2838      57    2826    2829   -2835    2838      58
    2826    2829    2835    2865      14    2826    2829   -2877    2871      10
    2826    2829    2877    2883       4    2826    2829   -2877    2883       5
    2820    2826    2829    2835      32    2820    2826   -2829    2835      27
    2820    2826   -2829    2877      26    2820    2826   -2829    2877      27
    2820    2871   -2877    2829      33    2820    2871   -2877    2829      34
    2820    2871   -2877    2829      35    2820    2871    2877    2883      10
    2820    2871    2889    2892       9    2811    2820    2826    2829      26
    2811    2820   -2826    2829      27    2811    2820    2871    2877      33
    2811    2820   -2871    2877      34    2811    2820   -2871    2877      35
    2811    2820    2871    2889      10    2808    2811    2820    2826      10
    2808    2811    2820    2871      36    2808    2811   -2820    2871      37
    2808    2811   -2820    2871      38    2805    2799    2808    2811      12
    2802    2799    2808    2811      12    2799    2808    2811    2820       9
    2988    2991    3000    3003       1    2988    2991   -3000    3003       2
    2988    2991   -3000    3003       3    2982    2976    2970    2988       4
    2982    2976   -2970    2988       5    2976    2970    2988    2991       9
    2970    2988    2991    2994      12    2970    2988    2991    2997      12
    2970    2988    2991    3000      13    2970    2988   -2991    3000      12
    2967    2928    2922    2976      14    2955    2943    2940    2967      40
    2955    2958   -2964    2967      39    2946    2943    2940    2967      40
    2946    2943    2955    2958      16    2943    2940    2967    2964      20
    2943    2955   -2958    2964      39    2940    2943    2955    2958      16
    2940    2967   -2964    2958      21    2937    2931   -2928    2967      22
    2937    2940    2943    2946      40    2937    2940    2943    2955      40
    2937    2940    2967    2964      20    2931    2928    2922    2976      14
    2931    2928   -2967    2940      24    2931    2928    2967    2964      24
    2931    2937    2940    2943      25    2931    2937   -2940    2967      25
    2928    2922    2976    2970      10    2928    2922    2976    2982      10
    2928    2931   -2937    2940      23    2928    2967   -2940    2937      20
    2928    2967    2940    2943      20    2928    2967    2964    2958      21
    2922    2919   -2913    2970      26    2922    2919   -2913    2970      27
    2922    2928    2931    2937      22    2922    2928    2967    2940      24
    2922    2928    2967    2964      24    2922    2976    2970    2988      10
    2919    2913   -2970    2976      10    2919    2913    2970    2988       4
    2919    2913   -2970    2988       5    2919    2922    2928    2931      41
    2919    2922   -2928    2931      42    2919    2922   -2928    2931      43
    2919    2922   -2928    2931      44    2919    2922    2928    2967      14
    2919    2922   -2976    2970      10    2919    2922    2976    2982       4
    2919    2922   -2976    2982       5    2913    2919    2922    2928      32
    2913    2919   -2922    2928      27    2913    2919   -2922    2976      26
    2913    2919   -2922    2976      27    2913    2970   -2976    2922      33
    2913    2970   -2976    2922      34    2913    2970   -2976    2922      35
    2913    2970    2976    2982      10    2913    2970    2988    2991       9
    2904    2913    2919    2922      26    2904    2913   -2919    2922      27
    2904    2913    2970    2976      33    2904    2913   -2970    2976      34
    2904    2913   -2970    2976      35    2904    2913    2970    2988      10
    2901    2904    2913    2919      10    2901    2904    2913    2970      36
    2901    2904   -2913    2970      37    2901    2904   -2913    2970      38
    2898    2892    2901    2904      12    2895    2892    2901    2904      12
    2892    2901    2904    2913       9    3087    3090    3099    3102       1
    3087    3090   -3099    3102       2    3087    3090   -3099    3102       3
    3081    3075    3069    3087       4    3081    3075   -3069    3087       5
    3075    3069    3087    3090       9    3069    3087    3090    3093      12
    3069    3087    3090    3096      12    3069    3087    3090    3099      13
    3069    3087   -3090    3099      12    3066    3027    3021    3075      14
    3054    3042    3039    3066      40    3054    3057   -3063    3066      39
    3045    3042    3039    3066      40    3045    3042    3054    3057      16
    3042    3039    3066    3063      20    3042    3054   -3057    3063      39
    3039    3042    3054    3057      16    3039    3066   -3063    3057      21
    3036    3030   -3027    3066      22    3036    3039    3042    3045      40
    3036    3039    3042    3054      40    3036    3039    3066    3063      20
    3030    3027    3021    3075      14    3030    3027   -3066    3039      24
    3030    3027    3066    3063      24    3030    3036    3039    3042      25
    3030    3036   -3039    3066      25    3027    3021    3075    3069      10
    3027    3021    3075    3081      10    3027    3030   -3036    3039      23
    3027    3066   -3039    3036      20    3027    3066    3039    3042      20
    3027    3066    3063    3057      21    3021    3018   -3012    3069      26
    3021    3018   -3012    3069      27    3021    3027    3030    3036      22
    3021    3027    3066    3039      24    3021    3027    3066    3063      24
    3021    3075    3069    3087      10    3018    3012   -3069    3075      10
    3018    3012    3069    3087       4    3018    3012   -3069    3087       5
    3018    3021    3027    3030      41    3018    3021   -3027    3030      42
    3018    3021   -3027    3030      43    3018    3021   -3027    3030      44
    3018    3021    3027    3066      14    3018    3021   -3075    3069      10
    3018    3021    3075    3081       4    3018    3021   -3075    3081       5
    3012    3018    3021    3027      32    3012    3018   -3021    3027      27
    3012    3018   -3021    3075      26    3012    3018   -3021    3075      27
    3012    3069   -3075    3021      33    3012    3069   -3075    3021      34
    3012    3069   -3075    3021      35    3012    3069    3075    3081      10
    3012    3069    3087    3090       9    3003    3012    3018    3021      26
    3003    3012   -3018    3021      27    3003    3012    3069    3075      33
    3003    3012   -3069    3075      34    3003    3012   -3069    3075      35
    3003    3012    3069    3087      10    3000    3003    3012    3018      10
    3000    3003    3012    3069      36    3000    3003   -3012    3069      37
    3000    3003   -3012    3069      38    2997    2991    3000    3003      12
    2994    2991    3000    3003      12    2991    3000    3003    3012       9
    3189    3192    3201    3204       1    3189    3192   -3201    3204       2
    3189    3192   -3201    3204       3    3183    3177    3171    3189       4
    3183    3177   -3171    3189       5    3177    3171    3189    3192       9
    3171    3189    3192    3195      12    3171    3189    3192    3198      12
    3171    3189    3192    3201      13    3171    3189   -3192    3201      12
    3168    3126    3120    3177      14    3156    3153    3165    3168      16
    3147    3141    3138    3168      18    3147    3153   -3165    3168      16
    3144    3141    3138    3168      18    3144    3141    3147    3153      19
    3141    3138    3168    3165      20    3141    3147    3153    3156      17
    3141    3147   -3153    3165      17    3138    3141    3147    3153      19
    3138    3168   -3165    3153      21    3135    3129   -3126    3168      22
    3135    3138    3141    3144      18    3135    3138    3141    3147      18
    3135    3138    3168    3165      20    3129    3126    3120    3177      14
    3129    3126   -3168    3138      24    3129    3126    3168    3165      24
    3129    3135    3138    3141      25    3129    3135   -3138    3168      25
    3126    3120    3177    3171      10    3126    3120    3177    3183      10
    3126    3129   -3135    3138      23    3126    3168   -3138    3135      20
    3126    3168    3138    3141      20    3126    3168    3165    3153      21
    3120    3117   -3111    3171      26    3120    3117   -3111    3171      27
    3120    3126    3129    3135      22    3120    3126    3168    3138      24
    3120    3126    3168    3165      24    3120    3177    3171    3189      10
    3117    3111   -3171    3177      10    3117    3111    3171    3189       4
    3117    3111   -3171    3189       5    3117    3120    3126    3129      28
    3117    3120   -3126    3129      29    3117    3120   -3126    3129      30
    3117    3120   -3126    3129      31    3117    3120    3126    3168      14
    3117    3120   -3177    3171      10    3117    3120    3177    3183       4
    3117    3120   -3177    3183       5    3111    3117    3120    3126      32
    3111    3117   -3120    3126      27    3111    3117   -3120    3177      26
    3111    3117   -3120    3177      27    3111    3171   -3177    3120      33
    3111    3171   -3177    3120      34    3111    3171   -3177    3120      35
    3111    3171    3177    3183      10    3111    3171    3189    3192       9
    3102    3111    3117    3120      26    3102    3111   -3117    3120      27
    3102    3111    3171    3177      33    3102    3111   -3171    3177      34
    3102    3111   -3171    3177      35    3102    3111    3171    3189      10
    3099    3102    3111    3117      10    3099    3102    3111    3171      36
    3099    3102   -3111    3171      37    3099    3102   -3111    3171      38
    3096    3090    3099    3102      12    3093    3090    3099    3102      12
    3090    3099    3102    3111       9    3279    3282    3291    3294       1
    3279    3282   -3291    3294       2    3279    3282   -3291    3294       3
    3273    3267    3261    3279       4    3273    3267   -3261    3279       5
    3267    3261    3279    3282       9    3261    3279    3282    3285      12
    3261    3279    3282    3288      12    3261    3279    3282    3291      13
    3261    3279   -3282    3291      12    3255    3228    3222    3267      14
    3246    3243    3249    3255      19    3243    3249    3255    3258      19
    3237    3231    3228    3255      46    3237    3243   -3249    3255      19
    3231    3228    3222    3267      14    3231    3228    3255    3249      48
    3231    3228    3255    3258      48    3231    3237    3243    3246      45
    3231    3237   -3243    3246      49    3231    3237   -3243    3249      45
    3228    3222    3267    3261      10    3228    3222    3267    3273      10
    3228    3231    3237    3243      47    3228    3255   -3249    3243      19
    3222    3219   -3213    3261      26    3222    3219   -3213    3261      27
    3222    3228    3231    3237      46    3222    3228    3255    3249      48
    3222    3228    3255    3258      48    3222    3267    3261    3279      10
    3219    3213   -3261    3267      10    3219    3213    3261    3279       4
    3219    3213   -3261    3279       5    3219    3222    3228    3231      50
    3219    3222   -3228    3231      51    3219    3222   -3228    3231      52
    3219    3222   -3228    3231      53    3219    3222    3228    3255      14
    3219    3222   -3267    3261      10    3219    3222    3267    3273       4
    3219    3222   -3267    3273       5    3213    3219    3222    3228      32
    3213    3219   -3222    3228      27    3213    3219   -3222    3267      26
    3213    3219   -3222    3267      27    3213    3261   -3267    3222      33
    3213    3261   -3267    3222      34    3213    3261   -3267    3222      35
    3213    3261    3267    3273      10    3213    3261    3279    3282       9
    3204    3213    3219    3222      26    3204    3213   -3219    3222      27
    3204    3213    3261    3267      33    3204    3213   -3261    3267      34
    3204    3213   -3261    3267      35    3204    3213    3261    3279      10
    3201    3204    3213    3219      10    3201    3204    3213    3261      36
    3201    3204   -3213    3261      37    3201    3204   -3213    3261      38
    3198    3192    3201    3204      12    3195    3192    3201    3204      12
    3192    3201    3204    3213       9    3369    3372    3381    3384       1
    3369    3372   -3381    3384       2    3369    3372   -3381    3384       3
    3363    3357    3351    3369       4    3363    3357   -3351    3369       5
    3357    3351    3369    3372       9    3351    3369    3372    3375      12
    3351    3369    3372    3378      12    3351    3369    3372    3381      13
    3351    3369   -3372    3381      12    3345    3318    3312    3357      14
    3336    3333    3339    3345      19    3333    3339    3345    3348      19
    3327    3321    3318    3345      46    3327    3333   -3339    3345      19
    3321    3318    3312    3357      14    3321    3318    3345    3339      48
    3321    3318    3345    3348      48    3321    3327    3333    3336      45
    3321    3327   -3333    3336      49    3321    3327   -3333    3339      45
    3318    3312    3357    3351      10    3318    3312    3357    3363      10
    3318    3321    3327    3333      47    3318    3345   -3339    3333      19
    3312    3309   -3303    3351      26    3312    3309   -3303    3351      27
    3312    3318    3321    3327      46    3312    3318    3345    3339      48
    3312    3318    3345    3348      48    3312    3357    3351    3369      10
    3309    3303   -3351    3357      10    3309    3303    3351    3369       4
    3309    3303   -3351    3369       5    3309    3312    3318    3321      50
    3309    3312   -3318    3321      51    3309    3312   -3318    3321      52
    3309    3312   -3318    3321      53    3309    3312    3318    3345      14
    3309    3312   -3357    3351      10    3309    3312    3357    3363       4
    3309    3312   -3357    3363       5    3303    3309    3312    3318      32
    3303    3309   -3312    3318      27    3303    3309   -3312    3357      26
    3303    3309   -3312    3357      27    3303    3351   -3357    3312      33
    3303    3351   -3357    3312      34    3303    3351   -3357    3312      35
    3303    3351    3357    3363      10    3303    3351    3369    3372       9
    3294    3303    3309    3312      26    3294    3303   -3309    3312      27
    3294    3303    3351    3357      33    3294    3303   -3351    3357      34
    3294    3303   -3351    3357      35    3294    3303    3351    3369      10
    3291    3294    3303    3309      10    3291    3294    3303    3351      36
    3291    3294   -3303    3351      37    3291    3294   -3303    3351      38
    3288    3282    3291    3294      12    3285    3282    3291    3294      12
    3282    3291    3294    3303       9    3459    3462    3471    3474       1
    3459    3462   -3471    3474       2    3459    3462   -3471    3474       3
    3453    3447    3441    3459       4    3453    3447   -3441    3459       5
    3447    3441    3459    3462       9    3441    3459    3462    3465      12
    3441    3459    3462    3468      12    3441    3459    3462    3471      13
    3441    3459   -3462    3471      12    3435    3408    3402    3447      14
    3426    3423    3429    3435      19    3423    3429    3435    3438      19
    3417    3411    3408    3435      46    3417    3423   -3429    3435      19
    3411    3408    3402    3447      14    3411    3408    3435    3429      48
    3411    3408    3435    3438      48    3411    3417    3423    3426      45
    3411    3417   -3423    3426      49    3411    3417   -3423    3429      45
    3408    3402    3447    3441      10    3408    3402    3447    3453      10
    3408    3411    3417    3423      47    3408    3435   -3429    3423      19
    3402    3399   -3393    3441      26    3402    3399   -3393    3441      27
    3402    3408    3411    3417      46    3402    3408    3435    3429      48
    3402    3408    3435    3438      48    3402    3447    3441    3459      10
    3399    3393   -3441    3447      10    3399    3393    3441    3459       4
    3399    3393   -3441    3459       5    3399    3402    3408    3411      50
    3399    3402   -3408    3411      51    3399    3402   -3408    3411      52
    3399    3402   -3408    3411      53    3399    3402    3408    3435      14
    3399    3402   -3447    3441      10    3399    3402    3447    3453       4
    3399    3402   -3447    3453       5    3393    3399    3402    3408      32
    3393    3399   -3402    3408      27    3393    3399   -3402    3447      26
    3393    3399   -3402    3447      27    3393    3441   -3447    3402      33
    3393    3441   -3447    3402      34    3393    3441   -3447    3402      35
    3393    3441    3447    3453      10    3393    3441    3459    3462       9
    3384    3393    3399    3402      26    3384    3393   -3399    3402      27
    3384    3393    3441    3447      33    3384    3393   -3441    3447      34
    3384    3393   -3441    3447      35    3384    3393    3441    3459      10
    3381    3384    3393    3399      10    3381    3384    3393    3441      36
    3381    3384   -3393    3441      37    3381    3384   -3393    3441      38
    3378    3372    3381    3384      12    3375    3372    3381    3384      12
    3372    3381    3384    3393       9    3552    3555    3564    3567       1
    3552    3555   -3564    3567       2    3552    3555   -3564    3567       3
    3546    3540    3534    3552       4    3546    3540   -3534    3552       5
    3540    3534    3552    3555       9    3534    3552    3555    3558      12
    3534    3552    3555    3561      12    3534    3552    3555    3564      13
    3534    3552   -3555    3564      12    3528    3498    3492    3540      14
    3516    3513    3525    3528      16    3513    3525    3528    3531      54
    3507    3501    3498    3528      46    3507    3513   -3525    3528      16
    3501    3498    3492    3540      14    3501    3498    3528    3525      48
    3501    3498    3528    3531      48    3501    3507    3513    3516      25
    3501    3507   -3513    3525      25    3498    3492    3540    3534      10
    3498    3492    3540    3546      10    3498    3501    3507    3513      47
    3498    3528   -3525    3513      54    3492    3489   -3483    3534      26
    3492    3489   -3483    3534      27    3492    3498    3501    3507      46
    3492    3498    3528    3525      48    3492    3498    3528    3531      48
    3492    3540    3534    3552      10    3489    3483   -3534    3540      10
    3489    3483    3534    3552       4    3489    3483   -3534    3552       5
    3489    3492    3498    3501      55    3489    3492   -3498    3501      56
    3489    3492   -3498    3501      57    3489    3492   -3498    3501      58
    3489    3492    3498    3528      14    3489    3492   -3540    3534      10
    3489    3492    3540    3546       4    3489    3492   -3540    3546       5
    3483    3489    3492    3498      32    3483    3489   -3492    3498      27
    3483    3489   -3492    3540      26    3483    3489   -3492    3540      27
    3483    3534   -3540    3492      33    3483    3534   -3540    3492      34
    3483    3534   -3540    3492      35    3483    3534    3540    3546      10
    3483    3534    3552    3555       9    3474    3483    3489    3492      26
    3474    3483   -3489    3492      27    3474    3483    3534    3540      33
    3474    3483   -3534    3540      34    3474    3483   -3534    3540      35
    3474    3483    3534    3552      10    3471    3474    3483    3489      10
    3471    3474    3483    3534      36    3471    3474   -3483    3534      37
    3471    3474   -3483    3534      38    3468    3462    3471    3474      12
    3465    3462    3471    3474      12    3462    3471    3474    3483       9
    3642    3645    3654    3657       1    3642    3645   -3654    3657       2
    3642    3645   -3654    3657       3    3636    3630    3624    3642       4
    3636    3630   -3624    3642       5    3630    3624    3642    3645       9
    3624    3642    3645    3648      12    3624    3642    3645    3651      12
    3624    3642    3645    3654      13    3624    3642   -3645    3654      12
    3618    3591    3585    3630      14    3609    3606    3612    3618      19
    3606    3612    3618    3621      19    3600    3594    3591    3618      46
    3600    3606   -3612    3618      19    3594    3591    3585    3630      14
    3594    3591    3618    3612      48    3594    3591    3618    3621      48
    3594    3600    3606    3609      45    3594    3600   -3606    3609      49
    3594    3600   -3606    3612      45    3591    3585    3630    3624      10
    3591    3585    3630    3636      10    3591    3594    3600    3606      47
    3591    3618   -3612    3606      19    3585    3582   -3576    3624      26
    3585    3582   -3576    3624      27    3585    3591    3594    3600      46
    3585    3591    3618    3612      48    3585    3591    3618    3621      48
    3585    3630    3624    3642      10    3582    3576   -3624    3630      10
    3582    3576    3624    3642       4    3582    3576   -3624    3642       5
    3582    3585    3591    3594      50    3582    3585   -3591    3594      51
    3582    3585   -3591    3594      52    3582    3585   -3591    3594      53
    3582    3585    3591    3618      14    3582    3585   -3630    3624      10
    3582    3585    3630    3636       4    3582    3585   -3630    3636       5
    3576    3582    3585    3591      32    3576    3582   -3585    3591      27
    3576    3582   -3585    3630      26    3576    3582   -3585    3630      27
    3576    3624   -3630    3585      33    3576    3624   -3630    3585      34
    3576    3624   -3630    3585      35    3576    3624    3630    3636      10
    3576    3624    3642    3645       9    3567    3576    3582    3585      26
    3567    3576   -3582    3585      27    3567    3576    3624    3630      33
    3567    3576   -3624    3630      34    3567    3576   -3624    3630      35
    3567    3576    3624    3642      10    3564    3567    3576    3582      10
    3564    3567    3576    3624      36    3564    3567   -3576    3624      37
    3564    3567   -3576    3624      38    3561    3555    3564    3567      12
    3558    3555    3564    3567      12    3555    3564    3567    3576       9
    3741    3744    3753    3756       1    3741    3744   -3753    3756       2
    3741    3744   -3753    3756       3    3735    3729    3723    3741       4
    3735    3729   -3723    3741       5    3729    3723    3741    3744       9
    3723    3741    3744    3747      12    3723    3741    3744    3750      12
    3723    3741    3744    3753      13    3723    3741   -3744    3753      12
    3720    3681    3675    3729      14    3708    3696    3693    3720      40
    3708    3711   -3717    3720      39    3699    3696    3693    3720      40
    3699    3696    3708    3711      16    3696    3693    3720    3717      20
    3696    3708   -3711    3717      39    3693    3696    3708    3711      16
    3693    3720   -3717    3711      21    3690    3684   -3681    3720      22
    3690    3693    3696    3699      40    3690    3693    3696    3708      40
    3690    3693    3720    3717      20    3684    3681    3675    3729      14
    3684    3681   -3720    3693      24    3684    3681    3720    3717      24
    3684    3690    3693    3696      25    3684    3690   -3693    3720      25
    3681    3675    3729    3723      10    3681    3675    3729    3735      10
    3681    3684   -3690    3693      23    3681    3720   -3693    3690      20
    3681    3720    3693    3696      20    3681    3720    3717    3711      21
    3675    3672   -3666    3723      26    3675    3672   -3666    3723      27
    3675    3681    3684    3690      22    3675    3681    3720    3693      24
    3675    3681    3720    3717      24    3675    3729    3723    3741      10
    3672    3666   -3723    3729      10    3672    3666    3723    3741       4
    3672    3666   -3723    3741       5    3672    3675    3681    3684      41
    3672    3675   -3681    3684      42    3672    3675   -3681    3684      43
    3672    3675   -3681    3684      44    3672    3675    3681    3720      14
    3672    3675   -3729    3723      10    3672    3675    3729    3735       4
    3672    3675   -3729    3735       5    3666    3672    3675    3681      32
    3666    3672   -3675    3681      27    3666    3672   -3675    3729      26
    3666    3672   -3675    3729      27    3666    3723   -3729    3675      33
    3666    3723   -3729    3675      34    3666    3723   -3729    3675      35
    3666    3723    3729    3735      10    3666    3723    3741    3744       9
    3657    3666    3672    3675      26    3657    3666   -3672    3675      27
    3657    3666    3723    3729      33    3657    3666   -3723    3729      34
    3657    3666   -3723    3729      35    3657    3666    3723    3741      10
    3654    3657    3666    3672      10    3654    3657    3666    3723      36
    3654    3657   -3666    3723      37    3654    3657   -3666    3723      38
    3651    3645    3654    3657      12    3648    3645    3654    3657      12
    3645    3654    3657    3666       9    3834    3837    3846    3849       1
    3834    3837   -3846    3849       2    3834    3837   -3846    3849       3
    3828    3822    3816    3834       4    3828    3822   -3816    3834       5
    3822    3816    3834    3837       9    3816    3834    3837    3840      12
    3816    3834    3837    3843      12    3816    3834    3837    3846      13
    3816    3834   -3837    3846      12    3810    3780    3774    3822      14
    3798    3795    3807    3810      16    3795    3807    3810    3813      54
    3789    3783    3780    3810      46    3789    3795   -3807    3810      16
    3783    3780    3774    3822      14    3783    3780    3810    3807      48
    3783    3780    3810    3813      48    3783    3789    3795    3798      25
    3783    3789   -3795    3807      25    3780    3774    3822    3816      10
    3780    3774    3822    3828      10    3780    3783    3789    3795      47
    3780    3810   -3807    3795      54    3774    3771   -3765    3816      26
    3774    3771   -3765    3816      27    3774    3780    3783    3789      46
    3774    3780    3810    3807      48    3774    3780    3810    3813      48
    3774    3822    3816    3834      10    3771    3765   -3816    3822      10
    3771    3765    3816    3834       4    3771    3765   -3816    3834       5
    3771    3774    3780    3783      55    3771    3774   -3780    3783      56
    3771    3774   -3780    3783      57    3771    3774   -3780    3783      58
    3771    3774    3780    3810      14    3771    3774   -3822    3816      10
    3771    3774    3822    3828       4    3771    3774   -3822    3828       5
    3765    3771    3774    3780      32    3765    3771   -3774    3780      27
    3765    3771   -3774    3822      26    3765    3771   -3774    3822      27
    3765    3816   -3822    3774      33    3765    3816   -3822    3774      34
    3765    3816   -3822    3774      35    3765    3816    3822    3828      10
    3765    3816    3834    3837       9    3756    3765    3771    3774      26
    3756    3765   -3771    3774      27    3756    3765    3816    3822      33
    3756    3765   -3816    3822      34    3756    3765   -3816    3822      35
    3756    3765    3816    3834      10    3753    3756    3765    3771      10
    3753    3756    3765    3816      36    3753    3756   -3765    3816      37
    3753    3756   -3765    3816      38    3750    3744    3753    3756      12
    3747    3744    3753    3756      12    3744    3753    3756    3765       9
    3927    3930    3939    3942       1    3927    3930   -3939    3942       2
    3927    3930   -3939    3942       3    3921    3915    3909    3927       4
    3921    3915   -3909    3927       5    3915    3909    3927    3930       9
    3909    3927    3930    3933      12    3909    3927    3930    3936      12
    3909    3927    3930    3939      13    3909    3927   -3930    3939      12
    3903    3873    3867    3915      14    3891    3888    3900    3903      16
    3888    3900    3903    3906      54    3882    3876    3873    3903      46
    3882    3888   -3900    3903      16    3876    3873    3867    3915      14
    3876    3873    3903    3900      48    3876    3873    3903    3906      48
    3876    3882    3888    3891      25    3876    3882   -3888    3900      25
    3873    3867    3915    3909      10    3873    3867    3915    3921      10
    3873    3876    3882    3888      47    3873    3903   -3900    3888      54
    3867    3864   -3858    3909      26    3867    3864   -3858    3909      27
    3867    3873    3876    3882      46    3867    3873    3903    3900      48
    3867    3873    3903    3906      48    3867    3915    3909    3927      10
    3864    3858   -3909    3915      10    3864    3858    3909    3927       4
    3864    3858   -3909    3927       5    3864    3867    3873    3876      55
    3864    3867   -3873    3876      56    3864    3867   -3873    3876      57
    3864    3867   -3873    3876      58    3864    3867    3873    3903      14
    3864    3867   -3915    3909      10    3864    3867    3915    3921       4
    3864    3867   -3915    3921       5    3858    3864    3867    3873      32
    3858    3864   -3867    3873      27    3858    3864   -3867    3915      26
    3858    3864   -3867    3915      27    3858    3909   -3915    3867      33
    3858    3909   -3915    3867      34    3858    3909   -3915    3867      35
    3858    3909    3915    3921      10    3858    3909    3927    3930       9
    3849    3858    3864    3867      26    3849    3858   -3864    3867      27
    3849    3858    3909    3915      33    3849    3858   -3909    3915      34
    3849    3858   -3909    3915      35    3849    3858    3909    3927      10
    3846    3849    3858    3864      10    3846    3849    3858    3909      36
    3846    3849   -3858    3909      37    3846    3849   -3858    3909      38
    3843    3837    3846    3849      12    3840    3837    3846    3849      12
    3837    3846    3849    3858       9    4029    4032    4041    4044       1
    4029    4032   -4041    4044       2    4029    4032   -4041    4044       3
    4023    4017    4011    4029       4    4023    4017   -4011    4029       5
    4017    4011    4029    4032       9    4011    4029    4032    4035      12
    4011    4029    4032    4038      12    4011    4029    4032    4041      13
    4011    4029   -4032    4041      12    4008    3966    3960    4017      14
    3996    3993    4005    4008      16    3987    3981    3978    4008      18
    3987    3993   -4005    4008      16    3984    3981    3978    4008      18
    3984    3981    3987    3993      19    3981    3978    4008    4005      20
    3981    3987    3993    3996      17    3981    3987   -3993    4005      17
    3978    3981    3987    3993      19    3978    4008   -4005    3993      21
    3975    3969   -3966    4008      22    3975    3978    3981    3984      18
    3975    3978    3981    3987      18    3975    3978    4008    4005      20
    3969    3966    3960    4017      14    3969    3966   -4008    3978      24
    3969    3966    4008    4005      24    3969    3975    3978    3981      25
    3969    3975   -3978    4008      25    3966    3960    4017    4011      10
    3966    3960    4017    4023      10    3966    3969   -3975    3978      23
    3966    4008   -3978    3975      20    3966    4008    3978    3981      20
    3966    4008    4005    3993      21    3960    3957   -3951    4011      26
    3960    3957   -3951    4011      27    3960    3966    3969    3975      22
    3960    3966    4008    3978      24    3960    3966    4008    4005      24
    3960    4017    4011    4029      10    3957    3951   -4011    4017      10
    3957    3951    4011    4029       4    3957    3951   -4011    4029       5
    3957    3960    3966    3969      28    3957    3960   -3966    3969      29
    3957    3960   -3966    3969      30    3957    3960   -3966    3969      31
    3957    3960    3966    4008      14    3957    3960   -4017    4011      10
    3957    3960    4017    4023       4    3957    3960   -4017    4023       5
    3951    3957    3960    3966      32    3951    3957   -3960    3966      27
    3951    3957   -3960    4017      26    3951    3957   -3960    4017      27
    3951    4011   -4017    3960      33    3951    4011   -4017    3960      34
    3951    4011   -4017    3960      35    3951    4011    4017    4023      10
    3951    4011    4029    4032       9    3942    3951    3957    3960      26
    3942    3951   -3957    3960      27    3942    3951    4011    4017      33
    3942    3951   -4011    4017      34    3942    3951   -4011    4017      35
    3942    3951    4011    4029      10    3939    3942    3951    3957      10
    3939    3942    3951    4011      36    3939    3942   -3951    4011      37
    3939    3942   -3951    4011      38    3936    3930    3939    3942      12
    3933    3930    3939    3942      12    3930    3939    3942    3951       9
    4131    4134    4143    4146       1    4131    4134   -4143    4146       2
    4131    4134   -4143    4146       3    4125    4119    4113    4131       4
    4125    4119   -4113    4131       5    4119    4113    4131    4134       9
    4113    4131    4134    4137      12    4113    4131    4134    4140      12
    4113    4131    4134    4143      13    4113    4131   -4134    4143      12
    4110    4068    4062    4119      14    4098    4095    4107    4110      16
    4089    4083    4080    4110      18    4089    4095   -4107    4110      16
    4086    4083    4080    4110      18    4086    4083    4089    4095      19
    4083    4080    4110    4107      20    4083    4089    4095    4098      17
    4083    4089   -4095    4107      17    4080    4083    4089    4095      19
    4080    4110   -4107    4095      21    4077    4071   -4068    4110      22
    4077    4080    4083    4086      18    4077    4080    4083    4089      18
    4077    4080    4110    4107      20    4071    4068    4062    4119      14
    4071    4068   -4110    4080      24    4071    4068    4110    4107      24
    4071    4077    4080    4083      25    4071    4077   -4080    4110      25
    4068    4062    4119    4113      10    4068    4062    4119    4125      10
    4068    4071   -4077    4080      23    4068    4110   -4080    4077      20
    4068    4110    4080    4083      20    4068    4110    4107    4095      21
    4062    4059   -4053    4113      26    4062    4059   -4053    4113      27
    4062    4068    4071    4077      22    4062    4068    4110    4080      24
    4062    4068    4110    4107      24    4062    4119    4113    4131      10
    4059    4053   -4113    4119      10    4059    4053    4113    4131       4
    4059    4053   -4113    4131       5    4059    4062    4068    4071      28
    4059    4062   -4068    4071      29    4059    4062   -4068    4071      30
    4059    4062   -4068    4071      31    4059    4062    4068    4110      14
    4059    4062   -4119    4113      10    4059    4062    4119    4125       4
    4059    4062   -4119    4125       5    4053    4059    4062    4068      32
    4053    4059   -4062    4068      27    4053    4059   -4062    4119      26
    4053    4059   -4062    4119      27    4053    4113   -4119    4062      33
    4053    4113   -4119    4062      34    4053    4113   -4119    4062      35
    4053    4113    4119    4125      10    4053    4113    4131    4134       9
    4044    4053    4059    4062      26    4044    4053   -4059    4062      27
    4044    4053    4113    4119      33    4044    4053   -4113    4119      34
    4044    4053   -4113    4119      35    4044    4053    4113    4131      10
    4041    4044    4053    4059      10    4041    4044    4053    4113      36
    4041    4044   -4053    4113      37    4041    4044   -4053    4113      38
    4038    4032    4041    4044      12    4035    4032    4041    4044      12
    4032    4041    4044    4053       9    4233    4236    4245    4248       1
    4233    4236   -4245    4248       2    4233    4236   -4245    4248       3
    4227    4221    4215    4233       4    4227    4221   -4215    4233       5
    4221    4215    4233    4236       9    4215    4233    4236    4239      12
    4215    4233    4236    4242      12    4215    4233    4236    4245      13
    4215    4233   -4236    4245      12    4212    4170    4164    4221      14
    4200    4197    4209    4212      16    4191    4185    4182    4212      18
    4191    4197   -4209    4212      16    4188    4185    4182    4212      18
    4188    4185    4191    4197      19    4185    4182    4212    4209      20
    4185    4191    4197    4200      17    4185    4191   -4197    4209      17
    4182    4185    4191    4197      19    4182    4212   -4209    4197      21
    4179    4173   -4170    4212      22    4179    4182    4185    4188      18
    4179    4182    4185    4191      18    4179    4182    4212    4209      20
    4173    4170    4164    4221      14    4173    4170   -4212    4182      24
    4173    4170    4212    4209      24    4173    4179    4182    4185      25
    4173    4179   -4182    4212      25    4170    4164    4221    4215      10
    4170    4164    4221    4227      10    4170    4173   -4179    4182      23
    4170    4212   -4182    4179      20    4170    4212    4182    4185      20
    4170    4212    4209    4197      21    4164    4161   -4155    4215      26
    4164    4161   -4155    4215      27    4164    4170    4173    4179      22
    4164    4170    4212    4182      24    4164    4170    4212    4209      24
    4164    4221    4215    4233      10    4161    4155   -4215    4221      10
    4161    4155    4215    4233       4    4161    4155   -4215    4233       5
    4161    4164    4170    4173      28    4161    4164   -4170    4173      29
    4161    4164   -4170    4173      30    4161    4164   -4170    4173      31
    4161    4164    4170    4212      14    4161    4164   -4221    4215      10
    4161    4164    4221    4227       4    4161    4164   -4221    4227       5
    4155    4161    4164    4170      32    4155    4161   -4164    4170      27
    4155    4161   -4164    4221      26    4155    4161   -4164    4221      27
    4155    4215   -4221    4164      33    4155    4215   -4221    4164      34
    4155    4215   -4221    4164      35    4155    4215    4221    4227      10
    4155    4215    4233    4236       9    4146    4155    4161    4164      26
    4146    4155   -4161    4164      27    4146    4155    4215    4221      33
    4146    4155   -4215    4221      34    4146    4155   -4215    4221      35
    4146    4155    4215    4233      10    4143    4146    4155    4161      10
    4143    4146    4155    4215      36    4143    4146   -4155    4215      37
    4143    4146   -4155    4215      38    4140    4134    4143    4146      12
    4137    4134    4143    4146      12    4134    4143    4146    4155       9
    4326    4329    4338    4341       1    4326    4329   -4338    4341       2
    4326    4329   -4338    4341       3    4320    4314    4308    4326       4
    4320    4314   -4308    4326       5    4314    4308    4326    4329       9
    4308    4326    4329    4332      12    4308    4326    4329    4335      12
    4308    4326    4329    4338      13    4308    4326   -4329    4338      12
    4302    4272    4266    4314      14    4290    4287    4299    4302      16
    4287    4299    4302    4305      54    4281    4275    4272    4302      46
    4281    4287   -4299    4302      16    4275    4272    4266    4314      14
    4275    4272    4302    4299      48    4275    4272    4302    4305      48
    4275    4281    4287    4290      25    4275    4281   -4287    4299      25
    4272    4266    4314    4308      10    4272    4266    4314    4320      10
    4272    4275    4281    4287      47    4272    4302   -4299    4287      54
    4266    4263   -4257    4308      26    4266    4263   -4257    4308      27
    4266    4272    4275    4281      46    4266    4272    4302    4299      48
    4266    4272    4302    4305      48    4266    4314    4308    4326      10
    4263    4257   -4308    4314      10    4263    4257    4308    4326       4
    4263    4257   -4308    4326       5    4263    4266    4272    4275      55
    4263    4266   -4272    4275      56    4263    4266   -4272    4275      57
    4263    4266   -4272    4275      58    4263    4266    4272    4302      14
    4263    4266   -4314    4308      10    4263    4266    4314    4320       4
    4263    4266   -4314    4320       5    4257    4263    4266    4272      32
    4257    4263   -4266    4272      27    4257    4263   -4266    4314      26
    4257    4263   -4266    4314      27    4257    4308   -4314    4266      33
    4257    4308   -4314    4266      34    4257    4308   -4314    4266      35
    4257    4308    4314    4320      10    4257    4308    4326    4329       9
    4248    4257    4263    4266      26    4248    4257   -4263    4266      27
    4248    4257    4308    4314      33    4248    4257   -4308    4314      34
    4248    4257   -4308    4314      35    4248    4257    4308    4326      10
    4245    4248    4257    4263      10    4245    4248    4257    4308      36
    4245    4248   -4257    4308      37    4245    4248   -4257    4308      38
    4242    4236    4245    4248      12    4239    4236    4245    4248      12
    4236    4245    4248    4257       9    4425    4428    4437    4440       1
    4425    4428   -4437    4440       2    4425    4428   -4437    4440       3
    4419    4413    4407    4425       4    4419    4413   -4407    4425       5
    4413    4407    4425    4428       9    4407    4425    4428    4431      12
    4407    4425    4428    4434      12    4407    4425    4428    4437      13
    4407    4425   -4428    4437      12    4404    4365    4359    4413      14
    4392    4380    4377    4404      40    4392    4395   -4401    4404      39
    4383    4380    4377    4404      40    4383    4380    4392    4395      16
    4380    4377    4404    4401      20    4380    4392   -4395    4401      39
    4377    4380    4392    4395      16    4377    4404   -4401    4395      21
    4374    4368   -4365    4404      22    4374    4377    4380    4383      40
    4374    4377    4380    4392      40    4374    4377    4404    4401      20
    4368    4365    4359    4413      14    4368    4365   -4404    4377      24
    4368    4365    4404    4401      24    4368    4374    4377    4380      25
    4368    4374   -4377    4404      25    4365    4359    4413    4407      10
    4365    4359    4413    4419      10    4365    4368   -4374    4377      23
    4365    4404   -4377    4374      20    4365    4404    4377    4380      20
    4365    4404    4401    4395      21    4359    4356   -4350    4407      26
    4359    4356   -4350    4407      27    4359    4365    4368    4374      22
    4359    4365    4404    4377      24    4359    4365    4404    4401      24
    4359    4413    4407    4425      10    4356    4350   -4407    4413      10
    4356    4350    4407    4425       4    4356    4350   -4407    4425       5
    4356    4359    4365    4368      41    4356    4359   -4365    4368      42
    4356    4359   -4365    4368      43    4356    4359   -4365    4368      44
    4356    4359    4365    4404      14    4356    4359   -4413    4407      10
    4356    4359    4413    4419       4    4356    4359   -4413    4419       5
    4350    4356    4359    4365      32    4350    4356   -4359    4365      27
    4350    4356   -4359    4413      26    4350    4356   -4359    4413      27
    4350    4407   -4413    4359      33    4350    4407   -4413    4359      34
    4350    4407   -4413    4359      35    4350    4407    4413    4419      10
    4350    4407    4425    4428       9    4341    4350    4356    4359      26
    4341    4350   -4356    4359      27    4341    4350    4407    4413      33
    4341    4350   -4407    4413      34    4341    4350   -4407    4413      35
    4341    4350    4407    4425      10    4338    4341    4350    4356      10
    4338    4341    4350    4407      36    4338    4341   -4350    4407      37
    4338    4341   -4350    4407      38    4335    4329    4338    4341      12
    4332    4329    4338    4341      12    4329    4338    4341    4350       9
    4518    4521    4530    4533       1    4518    4521   -4530    4533       2
    4518    4521   -4530    4533       3    4512    4506    4500    4518       4
    4512    4506   -4500    4518       5    4506    4500    4518    4521       9
    4500    4518    4521    4524      12    4500    4518    4521    4527      12
    4500    4518    4521    4530      13    4500    4518   -4521    4530      12
    4494    4464    4458    4506      14    4482    4479    4491    4494      16
    4479    4491    4494    4497      54    4473    4467    4464    4494      46
    4473    4479   -4491    4494      16    4467    4464    4458    4506      14
    4467    4464    4494    4491      48    4467    4464    4494    4497      48
    4467    4473    4479    4482      25    4467    4473   -4479    4491      25
    4464    4458    4506    4500      10    4464    4458    4506    4512      10
    4464    4467    4473    4479      47    4464    4494   -4491    4479      54
    4458    4455   -4449    4500      26    4458    4455   -4449    4500      27
    4458    4464    4467    4473      46    4458    4464    4494    4491      48
    4458    4464    4494    4497      48    4458    4506    4500    4518      10
    4455    4449   -4500    4506      10    4455    4449    4500    4518       4
    4455    4449   -4500    4518       5    4455    4458    4464    4467      55
    4455    4458   -4464    4467      56    4455    4458   -4464    4467      57
    4455    4458   -4464    4467      58    4455    4458    4464    4494      14
    4455    4458   -4506    4500      10    4455    4458    4506    4512       4
    4455    4458   -4506    4512       5    4449    4455    4458    4464      32
    4449    4455   -4458    4464      27    4449    4455   -4458    4506      26
    4449    4455   -4458    4506      27    4449    4500   -4506    4458      33
    4449    4500   -4506    4458      34    4449    4500   -4506    4458      35
    4449    4500    4506    4512      10    4449    4500    4518    4521       9
    4440    4449    4455    4458      26    4440    4449   -4455    4458      27
    4440    4449    4500    4506      33    4440    4449   -4500    4506      34
    4440    4449   -4500    4506      35    4440    4449    4500    4518      10
    4437    4440    4449    4455      10    4437    4440    4449    4500      36
    4437    4440   -4449    4500      37    4437    4440   -4449    4500      38
    4434    4428    4437    4440      12    4431    4428    4437    4440      12
    4428    4437    4440    4449       9    4611    4614    4623    4626       1
    4611    4614   -4623    4626       2    4611    4614   -4623    4626       3
    4605    4599    4593    4611       4    4605    4599   -4593    4611       5
    4599    4593    4611    4614       9    4593    4611    4614    4617      12
    4593    4611    4614    4620      12    4593    4611    4614    4623      13
    4593    4611   -4614    4623      12    4587    4557    4551    4599      14
    4575    4572    4584    4587      16    4572    4584    4587    4590      54
    4566    4560    4557    4587      46    4566    4572   -4584    4587      16
    4560    4557    4551    4599      14    4560    4557    4587    4584      48
    4560    4557    4587    4590      48    4560    4566    4572    4575      25
    4560    4566   -4572    4584      25    4557    4551    4599    4593      10
    4557    4551    4599    4605      10    4557    4560    4566    4572      47
    4557    4587   -4584    4572      54    4551    4548   -4542    4593      26
    4551    4548   -4542    4593      27    4551    4557    4560    4566      46
    4551    4557    4587    4584      48    4551    4557    4587    4590      48
    4551    4599    4593    4611      10    4548    4542   -4593    4599      10
    4548    4542    4593    4611       4    4548    4542   -4593    4611       5
    4548    4551    4557    4560      55    4548    4551   -4557    4560      56
    4548    4551   -4557    4560      57    4548    4551   -4557    4560      58
    4548    4551    4557    4587      14    4548    4551   -4599    4593      10
    4548    4551    4599    4605       4    4548    4551   -4599    4605       5
    4542    4548    4551    4557      32    4542    4548   -4551    4557      27
    4542    4548   -4551    4599      26    4542    4548   -4551    4599      27
    4542    4593   -4599    4551      33    4542    4593   -4599    4551      34
    4542    4593   -4599    4551      35    4542    4593    4599    4605      10
    4542    4593    4611    4614       9    4533    4542    4548    4551      26
    4533    4542   -4548    4551      27    4533    4542    4593    4599      33
    4533    4542   -4593    4599      34    4533    4542   -4593    4599      35
    4533    4542    4593    4611      10    4530    4533    4542    4548      10
    4530    4533    4542    4593      36    4530    4533   -4542    4593      37
    4530    4533   -4542    4593      38    4527    4521    4530    4533      12
    4524    4521    4530    4533      12    4521    4530    4533    4542       9
    4713    4716    4725    4728       1    4713    4716   -4725    4728       2
    4713    4716   -4725    4728       3    4707    4701    4695    4713       4
    4707    4701   -4695    4713       5    4701    4695    4713    4716       9
    4695    4713    4716    4719      12    4695    4713    4716    4722      12
    4695    4713    4716    4725      13    4695    4713   -4716    4725      12
    4692    4650    4644    4701      14    4680    4677    4689    4692      16
    4671    4665    4662    4692      18    4671    4677   -4689    4692      16
    4668    4665    4662    4692      18    4668    4665    4671    4677      19
    4665    4662    4692    4689      20    4665    4671    4677    4680      17
    4665    4671   -4677    4689      17    4662    4665    4671    4677      19
    4662    4692   -4689    4677      21    4659    4653   -4650    4692      22
    4659    4662    4665    4668      18    4659    4662    4665    4671      18
    4659    4662    4692    4689      20    4653    4650    4644    4701      14
    4653    4650   -4692    4662      24    4653    4650    4692    4689      24
    4653    4659    4662    4665      25    4653    4659   -4662    4692      25
    4650    4644    4701    4695      10    4650    4644    4701    4707      10
    4650    4653   -4659    4662      23    4650    4692   -4662    4659      20
    4650    4692    4662    4665      20    4650    4692    4689    4677      21
    4644    4641   -4635    4695      26    4644    4641   -4635    4695      27
    4644    4650    4653    4659      22    4644    4650    4692    4662      24
    4644    4650    4692    4689      24    4644    4701    4695    4713      10
    4641    4635   -4695    4701      10    4641    4635    4695    4713       4
    4641    4635   -4695    4713       5    4641    4644    4650    4653      28
    4641    4644   -4650    4653      29    4641    4644   -4650    4653      30
    4641    4644   -4650    4653      31    4641    4644    4650    4692      14
    4641    4644   -4701    4695      10    4641    4644    4701    4707       4
    4641    4644   -4701    4707       5    4635    4641    4644    4650      32
    4635    4641   -4644    4650      27    4635    4641   -4644    4701      26
    4635    4641   -4644    4701      27    4635    4695   -4701    4644      33
    4635    4695   -4701    4644      34    4635    4695   -4701    4644      35
    4635    4695    4701    4707      10    4635    4695    4713    4716       9
    4626    4635    4641    4644      26    4626    4635   -4641    4644      27
    4626    4635    4695    4701      33    4626    4635   -4695    4701      34
    4626    4635   -4695    4701      35    4626    4635    4695    4713      10
    4623    4626    4635    4641      10    4623    4626    4635    4695      36
    4623    4626   -4635    4695      37    4623    4626   -4635    4695      38
    4620    4614    4623    4626      12    4617    4614    4623    4626      12
    4614    4623    4626    4635       9    4803    4806    4815    4818       1
    4803    4806   -4815    4818       2    4803    4806   -4815    4818       3
    4797    4791    4785    4803       4    4797    4791   -4785    4803       5
    4791    4785    4803    4806       9    4785    4803    4806    4809      12
    4785    4803    4806    4812      12    4785    4803    4806    4815      13
    4785    4803   -4806    4815      12    4779    4752    4746    4791      14
    4770    4767    4773    4779      19    4767    4773    4779    4782      19
    4761    4755    4752    4779      46    4761    4767   -4773    4779      19
    4755    4752    4746    4791      14    4755    4752    4779    4773      48
    4755    4752    4779    4782      48    4755    4761    4767    4770      45
    4755    4761   -4767    4770      49    4755    4761   -4767    4773      45
    4752    4746    4791    4785      10    4752    4746    4791    4797      10
    4752    4755    4761    4767      47    4752    4779   -4773    4767      19
    4746    4743   -4737    4785      26    4746    4743   -4737    4785      27
    4746    4752    4755    4761      46    4746    4752    4779    4773      48
    4746    4752    4779    4782      48    4746    4791    4785    4803      10
    4743    4737   -4785    4791      10    4743    4737    4785    4803       4
    4743    4737   -4785    4803       5    4743    4746    4752    4755      50
    4743    4746   -4752    4755      51    4743    4746   -4752    4755      52
    4743    4746   -4752    4755      53    4743    4746    4752    4779      14
    4743    4746   -4791    4785      10    4743    4746    4791    4797       4
    4743    4746   -4791    4797       5    4737    4743    4746    4752      32
    4737    4743   -4746    4752      27    4737    4743   -4746    4791      26
    4737    4743   -4746    4791      27    4737    4785   -4791    4746      33
    4737    4785   -4791    4746      34    4737    4785   -4791    4746      35
    4737    4785    4791    4797      10    4737    4785    4803    4806       9
    4728    4737    4743    4746      26    4728    4737   -4743    4746      27
    4728    4737    4785    4791      33    4728    4737   -4785    4791      34
    4728    4737   -4785    4791      35    4728    4737    4785    4803      10
    4725    4728    4737    4743      10    4725    4728    4737    4785      36
    4725    4728   -4737    4785      37    4725    4728   -4737    4785      38
    4722    4716    4725    4728      12    4719    4716    4725    4728      12
    4716    4725    4728    4737       9    4902    4905    4914    4917       1
    4902    4905   -4914    4917       2    4902    4905   -4914    4917       3
    4896    4890    4884    4902       4    4896    4890   -4884    4902       5
    4890    4884    4902    4905       9    4884    4902    4905    4908      12
    4884    4902    4905    4911      12    4884    4902    4905    4914      13
    4884    4902   -4905    4914      12    4881    4842    4836    4890      14
    4869    4857    4854    4881      40    4869    4872   -4878    4881      39
    4860    4857    4854    4881      40    4860    4857    4869    4872      16
    4857    4854    4881    4878      20    4857    4869   -4872    4878      39
    4854    4857    4869    4872      16    4854    4881   -4878    4872      21
    4851    4845   -4842    4881      22    4851    4854    4857    4860      40
    4851    4854    4857    4869      40    4851    4854    4881    4878      20
    4845    4842    4836    4890      14    4845    4842   -4881    4854      24
    4845    4842    4881    4878      24    4845    4851    4854    4857      25
    4845    4851   -4854    4881      25    4842    4836    4890    4884      10
    4842    4836    4890    4896      10    4842    4845   -4851    4854      23
    4842    4881   -4854    4851      20    4842    4881    4854    4857      20
    4842    4881    4878    4872      21    4836    4833   -4827    4884      26
    4836    4833   -4827    4884      27    4836    4842    4845    4851      22
    4836    4842    4881    4854      24    4836    4842    4881    4878      24
    4836    4890    4884    4902      10    4833    4827   -4884    4890      10
    4833    4827    4884    4902       4    4833    4827   -4884    4902       5
    4833    4836    4842    4845      41    4833    4836   -4842    4845      42
    4833    4836   -4842    4845      43    4833    4836   -4842    4845      44
    4833    4836    4842    4881      14    4833    4836   -4890    4884      10
    4833    4836    4890    4896       4    4833    4836   -4890    4896       5
    4827    4833    4836    4842      32    4827    4833   -4836    4842      27
    4827    4833   -4836    4890      26    4827    4833   -4836    4890      27
    4827    4884   -4890    4836      33    4827    4884   -4890    4836      34
    4827    4884   -4890    4836      35    4827    4884    4890    4896      10
    4827    4884    4902    4905       9    4818    4827    4833    4836      26
    4818    4827   -4833    4836      27    4818    4827    4884    4890      33
    4818    4827   -4884    4890      34    4818    4827   -4884    4890      35
    4818    4827    4884    4902      10    4815    4818    4827    4833      10
    4815    4818    4827    4884      36    4815    4818   -4827    4884      37
    4815    4818   -4827    4884      38    4812    4806    4815    4818      12
    4809    4806    4815    4818      12    4806    4815    4818    4827       9
    5001    5004    5013    5016       1    5001    5004   -5013    5016       2
    5001    5004   -5013    5016       3    4995    4989    4983    5001       4
    4995    4989   -4983    5001       5    4989    4983    5001    5004       9
    4983    5001    5004    5007      12    4983    5001    5004    5010      12
    4983    5001    5004    5013      13    4983    5001   -5004    5013      12
    4980    4941    4935    4989      14    4968    4956    4953    4980      40
    4968    4971   -4977    4980      39    4959    4956    4953    4980      40
    4959    4956    4968    4971      16    4956    4953    4980    4977      20
    4956    4968   -4971    4977      39    4953    4956    4968    4971      16
    4953    4980   -4977    4971      21    4950    4944   -4941    4980      22
    4950    4953    4956    4959      40    4950    4953    4956    4968      40
    4950    4953    4980    4977      20    4944    4941    4935    4989      14
    4944    4941   -4980    4953      24    4944    4941    4980    4977      24
    4944    4950    4953    4956      25    4944    4950   -4953    4980      25
    4941    4935    4989    4983      10    4941    4935    4989    4995      10
    4941    4944   -4950    4953      23    4941    4980   -4953    4950      20
    4941    4980    4953    4956      20    4941    4980    4977    4971      21
    4935    4932   -4926    4983      26    4935    4932   -4926    4983      27
    4935    4941    4944    4950      22    4935    4941    4980    4953      24
    4935    4941    4980    4977      24    4935    4989    4983    5001      10
    4932    4926   -4983    4989      10    4932    4926    4983    5001       4
    4932    4926   -4983    5001       5    4932    4935    4941    4944      41
    4932    4935   -4941    4944      42    4932    4935   -4941    4944      43
    4932    4935   -4941    4944      44    4932    4935    4941    4980      14
    4932    4935   -4989    4983      10    4932    4935    4989    4995       4
    4932    4935   -4989    4995       5    4926    4932    4935    4941      32
    4926    4932   -4935    4941      27    4926    4932   -4935    4989      26
    4926    4932   -4935    4989      27    4926    4983   -4989    4935      33
    4926    4983   -4989    4935      34    4926    4983   -4989    4935      35
    4926    4983    4989    4995      10    4926    4983    5001    5004       9
    4917    4926    4932    4935      26    4917    4926   -4932    4935      27
    4917    4926    4983    4989      33    4917    4926   -4983    4989      34
    4917    4926   -4983    4989      35    4917    4926    4983    5001      10
    4914    4917    4926    4932      10    4914    4917    4926    4983      36
    4914    4917   -4926    4983      37    4914    4917   -4926    4983      38
    4911    4905    4914    4917      12    4908    4905    4914    4917      12
    4905    4914    4917    4926       9    5100    5103    5112    5115       1
    5100    5103   -5112    5115       2    5100    5103   -5112    5115       3
    5094    5088    5082    5100       4    5094    5088   -5082    5100       5
    5088    5082    5100    5103       9    5082    5100    5103    5106      12
    5082    5100    5103    5109      12    5082    5100    5103    5112      13
    5082    5100   -5103    5112      12    5079    5040    5034    5088      14
    5067    5055    5052    5079      40    5067    5070   -5076    5079      39
    5058    5055    5052    5079      40    5058    5055    5067    5070      16
    5055    5052    5079    5076      20    5055    5067   -5070    5076      39
    5052    5055    5067    5070      16    5052    5079   -5076    5070      21
    5049    5043   -5040    5079      22    5049    5052    5055    5058      40
    5049    5052    5055    5067      40    5049    5052    5079    5076      20
    5043    5040    5034    5088      14    5043    5040   -5079    5052      24
    5043    5040    5079    5076      24    5043    5049    5052    5055      25
    5043    5049   -5052    5079      25    5040    5034    5088    5082      10
    5040    5034    5088    5094      10    5040    5043   -5049    5052      23
    5040    5079   -5052    5049      20    5040    5079    5052    5055      20
    5040    5079    5076    5070      21    5034    5031   -5025    5082      26
    5034    5031   -5025    5082      27    5034    5040    5043    5049      22
    5034    5040    5079    5052      24    5034    5040    5079    5076      24
    5034    5088    5082    5100      10    5031    5025   -5082    5088      10
    5031    5025    5082    5100       4    5031    5025   -5082    5100       5
    5031    5034    5040    5043      41    5031    5034   -5040    5043      42
    5031    5034   -5040    5043      43    5031    5034   -5040    5043      44
    5031    5034    5040    5079      14    5031    5034   -5088    5082      10
    5031    5034    5088    5094       4    5031    5034   -5088    5094       5
    5025    5031    5034    5040      32    5025    5031   -5034    5040      27
    5025    5031   -5034    5088      26    5025    5031   -5034    5088      27
    5025    5082   -5088    5034      33    5025    5082   -5088    5034      34
    5025    5082   -5088    5034      35    5025    5082    5088    5094      10
    5025    5082    5100    5103       9    5016    5025    5031    5034      26
    5016    5025   -5031    5034      27    5016    5025    5082    5088      33
    5016    5025   -5082    5088      34    5016    5025   -5082    5088      35
    5016    5025    5082    5100      10    5013    5016    5025    5031      10
    5013    5016    5025    5082      36    5013    5016   -5025    5082      37
    5013    5016   -5025    5082      38    5010    5004    5013    5016      12
    5007    5004    5013    5016      12    5004    5013    5016    5025       9
    5190    5193    5202    5205       1    5190    5193   -5202    5205       2
    5190    5193   -5202    5205       3    5184    5178    5172    5190       4
    5184    5178   -5172    5190       5    5178    5172    5190    5193       9
    5172    5190    5193    5196      12    5172    5190    5193    5199      12
    5172    5190    5193    5202      13    5172    5190   -5193    5202      12
    5166    5139    5133    5178      14    5157    5154    5160    5166      19
    5154    5160    5166    5169      19    5148    5142    5139    5166      46
    5148    5154   -5160    5166      19    5142    5139    5133    5178      14
    5142    5139    5166    5160      48    5142    5139    5166    5169      48
    5142    5148    5154    5157      45    5142    5148   -5154    5157      49
    5142    5148   -5154    5160      45    5139    5133    5178    5172      10
    5139    5133    5178    5184      10    5139    5142    5148    5154      47
    5139    5166   -5160    5154      19    5133    5130   -5124    5172      26
    5133    5130   -5124    5172      27    5133    5139    5142    5148      46
    5133    5139    5166    5160      48    5133    5139    5166    5169      48
    5133    5178    5172    5190      10    5130    5124   -5172    5178      10
    5130    5124    5172    5190       4    5130    5124   -5172    5190       5
    5130    5133    5139    5142      50    5130    5133   -5139    5142      51
    5130    5133   -5139    5142      52    5130    5133   -5139    5142      53
    5130    5133    5139    5166      14    5130    5133   -5178    5172      10
    5130    5133    5178    5184       4    5130    5133   -5178    5184       5
    5124    5130    5133    5139      32    5124    5130   -5133    5139      27
    5124    5130   -5133    5178      26    5124    5130   -5133    5178      27
    5124    5172   -5178    5133      33    5124    5172   -5178    5133      34
    5124    5172   -5178    5133      35    5124    5172    5178    5184      10
    5124    5172    5190    5193       9    5115    5124    5130    5133      26
    5115    5124   -5130    5133      27    5115    5124    5172    5178      33
    5115    5124   -5172    5178      34    5115    5124   -5172    5178      35
    5115    5124    5172    5190      10    5112    5115    5124    5130      10
    5112    5115    5124    5172      36    5112    5115   -5124    5172      37
    5112    5115   -5124    5172      38    5109    5103    5112    5115      12
    5106    5103    5112    5115      12    5103    5112    5115    5124       9
    5292    5295    5304    5307       1    5292    5295   -5304    5307       2
    5292    5295   -5304    5307       3    5286    5280    5274    5292       4
    5286    5280   -5274    5292       5    5280    5274    5292    5295       9
    5274    5292    5295    5298      12    5274    5292    5295    5301      12
    5274    5292    5295    5304      13    5274    5292   -5295    5304      12
    5271    5229    5223    5280      14    5259    5256    5268    5271      16
    5250    5244    5241    5271      18    5250    5256   -5268    5271      16
    5247    5244    5241    5271      18    5247    5244    5250    5256      19
    5244    5241    5271    5268      20    5244    5250    5256    5259      17
    5244    5250   -5256    5268      17    5241    5244    5250    5256      19
    5241    5271   -5268    5256      21    5238    5232   -5229    5271      22
    5238    5241    5244    5247      18    5238    5241    5244    5250      18
    5238    5241    5271    5268      20    5232    5229    5223    5280      14
    5232    5229   -5271    5241      24    5232    5229    5271    5268      24
    5232    5238    5241    5244      25    5232    5238   -5241    5271      25
    5229    5223    5280    5274      10    5229    5223    5280    5286      10
    5229    5232   -5238    5241      23    5229    5271   -5241    5238      20
    5229    5271    5241    5244      20    5229    5271    5268    5256      21
    5223    5220   -5214    5274      26    5223    5220   -5214    5274      27
    5223    5229    5232    5238      22    5223    5229    5271    5241      24
    5223    5229    5271    5268      24    5223    5280    5274    5292      10
    5220    5214   -5274    5280      10    5220    5214    5274    5292       4
    5220    5214   -5274    5292       5    5220    5223    5229    5232      28
    5220    5223   -5229    5232      29    5220    5223   -5229    5232      30
    5220    5223   -5229    5232      31    5220    5223    5229    5271      14
    5220    5223   -5280    5274      10    5220    5223    5280    5286       4
    5220    5223   -5280    5286       5    5214    5220    5223    5229      32
    5214    5220   -5223    5229      27    5214    5220   -5223    5280      26
    5214    5220   -5223    5280      27    5214    5274   -5280    5223      33
    5214    5274   -5280    5223      34    5214    5274   -5280    5223      35
    5214    5274    5280    5286      10    5214    5274    5292    5295       9
    5205    5214    5220    5223      26    5205    5214   -5220    5223      27
    5205    5214    5274    5280      33    5205    5214   -5274    5280      34
    5205    5214   -5274    5280      35    5205    5214    5274    5292      10
    5202    5205    5214    5220      10    5202    5205    5214    5274      36
    5202    5205   -5214    5274      37    5202    5205   -5214    5274      38
    5199    5193    5202    5205      12    5196    5193    5202    5205      12
    5193    5202    5205    5214       9    5382    5385    5394    5397       1
    5382    5385   -5394    5397       2    5382    5385   -5394    5397       3
    5376    5370    5364    5382       4    5376    5370   -5364    5382       5
    5370    5364    5382    5385       9    5364    5382    5385    5388      12
    5364    5382    5385    5391      12    5364    5382    5385    5394      13
    5364    5382   -5385    5394      12    5358    5331    5325    5370      14
    5349    5346    5352    5358      19    5346    5352    5358    5361      19
    5340    5334    5331    5358      46    5340    5346   -5352    5358      19
    5334    5331    5325    5370      14    5334    5331    5358    5352      48
    5334    5331    5358    5361      48    5334    5340    5346    5349      45
    5334    5340   -5346    5349      49    5334    5340   -5346    5352      45
    5331    5325    5370    5364      10    5331    5325    5370    5376      10
    5331    5334    5340    5346      47    5331    5358   -5352    5346      19
    5325    5322   -5316    5364      26    5325    5322   -5316    5364      27
    5325    5331    5334    5340      46    5325    5331    5358    5352      48
    5325    5331    5358    5361      48    5325    5370    5364    5382      10
    5322    5316   -5364    5370      10    5322    5316    5364    5382       4
    5322    5316   -5364    5382       5    5322    5325    5331    5334      50
    5322    5325   -5331    5334      51    5322    5325   -5331    5334      52
    5322    5325   -5331    5334      53    5322    5325    5331    5358      14
    5322    5325   -5370    5364      10    5322    5325    5370    5376       4
    5322    5325   -5370    5376       5    5316    5322    5325    5331      32
    5316    5322   -5325    5331      27    5316    5322   -5325    5370      26
    5316    5322   -5325    5370      27    5316    5364   -5370    5325      33
    5316    5364   -5370    5325      34    5316    5364   -5370    5325      35
    5316    5364    5370    5376      10    5316    5364    5382    5385       9
    5307    5316    5322    5325      26    5307    5316   -5322    5325      27
    5307    5316    5364    5370      33    5307    5316   -5364    5370      34
    5307    5316   -5364    5370      35    5307    5316    5364    5382      10
    5304    5307    5316    5322      10    5304    5307    5316    5364      36
    5304    5307   -5316    5364      37    5304    5307   -5316    5364      38
    5301    5295    5304    5307      12    5298    5295    5304    5307      12
    5295    5304    5307    5316       9    5475    5478    5487    5490       1
    5475    5478   -5487    5490       2    5475    5478   -5487    5490       3
    5469    5463    5457    5475       4    5469    5463   -5457    5475       5
    5463    5457    5475    5478       9    5457    5475    5478    5481      12
    5457    5475    5478    5484      12    5457    5475    5478    5487      13
    5457    5475   -5478    5487      12    5451    5421    5415    5463      14
    5439    5436    5448    5451      16    5436    5448    5451    5454      54
    5430    5424    5421    5451      46    5430    5436   -5448    5451      16
    5424    5421    5415    5463      14    5424    5421    5451    5448      48
    5424    5421    5451    5454      48    5424    5430    5436    5439      25
    5424    5430   -5436    5448      25    5421    5415    5463    5457      10
    5421    5415    5463    5469      10    5421    5424    5430    5436      47
    5421    5451   -5448    5436      54    5415    5412   -5406    5457      26
    5415    5412   -5406    5457      27    5415    5421    5424    5430      46
    5415    5421    5451    5448      48    5415    5421    5451    5454      48
    5415    5463    5457    5475      10    5412    5406   -5457    5463      10
    5412    5406    5457    5475       4    5412    5406   -5457    5475       5
    5412    5415    5421    5424      55    5412    5415   -5421    5424      56
    5412    5415   -5421    5424      57    5412    5415   -5421    5424      58
    5412    5415    5421    5451      14    5412    5415   -5463    5457      10
    5412    5415    5463    5469       4    5412    5415   -5463    5469       5
    5406    5412    5415    5421      32    5406    5412   -5415    5421      27
    5406    5412   -5415    5463      26    5406    5412   -5415    5463      27
    5406    5457   -5463    5415      33    5406    5457   -5463    5415      34
    5406    5457   -5463    5415      35    5406    5457    5463    5469      10
    5406    5457    5475    5478       9    5397    5406    5412    5415      26
    5397    5406   -5412    5415      27    5397    5406    5457    5463      33
    5397    5406   -5457    5463      34    5397    5406   -5457    5463      35
    5397    5406    5457    5475      10    5394    5397    5406    5412      10
    5394    5397    5406    5457      36    5394    5397   -5406    5457      37
    5394    5397   -5406    5457      38    5391    5385    5394    5397      12
    5388    5385    5394    5397      12    5385    5394    5397    5406       9
    5568    5571    5580    5583       1    5568    5571   -5580    5583       2
    5568    5571   -5580    5583       3    5562    5556    5550    5568       4
    5562    5556   -5550    5568       5    5556    5550    5568    5571       9
    5550    5568    5571    5574      12    5550    5568    5571    5577      12
    5550    5568    5571    5580      13    5550    5568   -5571    5580      12
    5544    5514    5508    5556      14    5532    5529    5541    5544      16
    5529    5541    5544    5547      54    5523    5517    5514    5544      46
    5523    5529   -5541    5544      16    5517    5514    5508    5556      14
    5517    5514    5544    5541      48    5517    5514    5544    5547      48
    5517    5523    5529    5532      25    5517    5523   -5529    5541      25
    5514    5508    5556    5550      10    5514    5508    5556    5562      10
    5514    5517    5523    5529      47    5514    5544   -5541    5529      54
    5508    5505   -5499    5550      26    5508    5505   -5499    5550      27
    5508    5514    5517    5523      46    5508    5514    5544    5541      48
    5508    5514    5544    5547      48    5508    5556    5550    5568      10
    5505    5499   -5550    5556      10    5505    5499    5550    5568       4
    5505    5499   -5550    5568       5    5505    5508    5514    5517      55
    5505    5508   -5514    5517      56    5505    5508   -5514    5517      57
    5505    5508   -5514    5517      58    5505    5508    5514    5544      14
    5505    5508   -5556    5550      10    5505    5508    5556    5562       4
    5505    5508   -5556    5562       5    5499    5505    5508    5514      32
    5499    5505   -5508    5514      27    5499    5505   -5508    5556      26
    5499    5505   -5508    5556      27    5499    5550   -5556    5508      33
    5499    5550   -5556    5508      34    5499    5550   -5556    5508      35
    5499    5550    5556    5562      10    5499    5550    5568    5571       9
    5490    5499    5505    5508      26    5490    5499   -5505    5508      27
    5490    5499    5550    5556      33    5490    5499   -5550    5556      34
    5490    5499   -5550    5556      35    5490    5499    5550    5568      10
    5487    5490    5499    5505      10    5487    5490    5499    5550      36
    5487    5490   -5499    5550      37    5487    5490   -5499    5550      38
    5484    5478    5487    5490      12    5481    5478    5487    5490      12
    5478    5487    5490    5499       9    5670    5673    5682    5685       1
    5670    5673   -5682    5685       2    5670    5673   -5682    5685       3
    5664    5658    5652    5670       4    5664    5658   -5652    5670       5
    5658    5652    5670    5673       9    5652    5670    5673    5676      12
    5652    5670    5673    5679      12    5652    5670    5673    5682      13
    5652    5670   -5673    5682      12    5649    5607    5601    5658      14
    5637    5634    5646    5649      16    5628    5622    5619    5649      18
    5628    5634   -5646    5649      16    5625    5622    5619    5649      18
    5625    5622    5628    5634      19    5622    5619    5649    5646      20
    5622    5628    5634    5637      17    5622    5628   -5634    5646      17
    5619    5622    5628    5634      19    5619    5649   -5646    5634      21
    5616    5610   -5607    5649      22    5616    5619    5622    5625      18
    5616    5619    5622    5628      18    5616    5619    5649    5646      20
    5610    5607    5601    5658      14    5610    5607   -5649    5619      24
    5610    5607    5649    5646      24    5610    5616    5619    5622      25
    5610    5616   -5619    5649      25    5607    5601    5658    5652      10
    5607    5601    5658    5664      10    5607    5610   -5616    5619      23
    5607    5649   -5619    5616      20    5607    5649    5619    5622      20
    5607    5649    5646    5634      21    5601    5598   -5592    5652      26
    5601    5598   -5592    5652      27    5601    5607    5610    5616      22
    5601    5607    5649    5619      24    5601    5607    5649    5646      24
    5601    5658    5652    5670      10    5598    5592   -5652    5658      10
    5598    5592    5652    5670       4    5598    5592   -5652    5670       5
    5598    5601    5607    5610      28    5598    5601   -5607    5610      29
    5598    5601   -5607    5610      30    5598    5601   -5607    5610      31
    5598    5601    5607    5649      14    5598    5601   -5658    5652      10
    5598    5601    5658    5664       4    5598    5601   -5658    5664       5
    5592    5598    5601    5607      32    5592    5598   -5601    5607      27
    5592    5598   -5601    5658      26    5592    5598   -5601    5658      27
    5592    5652   -5658    5601      33    5592    5652   -5658    5601      34
    5592    5652   -5658    5601      35    5592    5652    5658    5664      10
    5592    5652    5670    5673       9    5583    5592    5598    5601      26
    5583    5592   -5598    5601      27    5583    5592    5652    5658      33
    5583    5592   -5652    5658      34    5583    5592   -5652    5658      35
    5583    5592    5652    5670      10    5580    5583    5592    5598      10
    5580    5583    5592    5652      36    5580    5583   -5592    5652      37
    5580    5583   -5592    5652      38    5577    5571    5580    5583      12
    5574    5571    5580    5583      12    5571    5580    5583    5592       9
    5769    5772    5781    5784       1    5769    5772   -5781    5784       2
    5769    5772   -5781    5784       3    5763    5757    5751    5769       4
    5763    5757   -5751    5769       5    5757    5751    5769    5772       9
    5751    5769    5772    5775      12    5751    5769    5772    5778      12
    5751    5769    5772    5781      13    5751    5769   -5772    5781      12
    5748    5709    5703    5757      14    5736    5724    5721    5748      40
    5736    5739   -5745    5748      39    5727    5724    5721    5748      40
    5727    5724    5736    5739      16    5724    5721    5748    5745      20
    5724    5736   -5739    5745      39    5721    5724    5736    5739      16
    5721    5748   -5745    5739      21    5718    5712   -5709    5748      22
    5718    5721    5724    5727      40    5718    5721    5724    5736      40
    5718    5721    5748    5745      20    5712    5709    5703    5757      14
    5712    5709   -5748    5721      24    5712    5709    5748    5745      24
    5712    5718    5721    5724      25    5712    5718   -5721    5748      25
    5709    5703    5757    5751      10    5709    5703    5757    5763      10
    5709    5712   -5718    5721      23    5709    5748   -5721    5718      20
    5709    5748    5721    5724      20    5709    5748    5745    5739      21
    5703    5700   -5694    5751      26    5703    5700   -5694    5751      27
    5703    5709    5712    5718      22    5703    5709    5748    5721      24
    5703    5709    5748    5745      24    5703    5757    5751    5769      10
    5700    5694   -5751    5757      10    5700    5694    5751    5769       4
    5700    5694   -5751    5769       5    5700    5703    5709    5712      41
    5700    5703   -5709    5712      42    5700    5703   -5709    5712      43
    5700    5703   -5709    5712      44    5700    5703    5709    5748      14
    5700    5703   -5757    5751      10    5700    5703    5757    5763       4
    5700    5703   -5757    5763       5    5694    5700    5703    5709      32
    5694    5700   -5703    5709      27    5694    5700   -5703    5757      26
    5694    5700   -5703    5757      27    5694    5751   -5757    5703      33
    5694    5751   -5757    5703      34    5694    5751   -5757    5703      35
    5694    5751    5757    5763      10    5694    5751    5769    5772       9
    5685    5694    5700    5703      26    5685    5694   -5700    5703      27
    5685    5694    5751    5757      33    5685    5694   -5751    5757      34
    5685    5694   -5751    5757      35    5685    5694    5751    5769      10
    5682    5685    5694    5700      10    5682    5685    5694    5751      36
    5682    5685   -5694    5751      37    5682    5685   -5694    5751      38
    5679    5673    5682    5685      12    5676    5673    5682    5685      12
    5673    5682    5685    5694       9    5862    5865    5874    5877       1
    5862    5865   -5874    5877       2    5862    5865   -5874    5877       3
    5856    5850    5844    5862       4    5856    5850   -5844    5862       5
    5850    5844    5862    5865       9    5844    5862    5865    5868      12
    5844    5862    5865    5871      12    5844    5862    5865    5874      13
    5844    5862   -5865    5874      12    5838    5808    5802    5850      14
    5826    5823    5835    5838      16    5823    5835    5838    5841      54
    5817    5811    5808    5838      46    5817    5823   -5835    5838      16
    5811    5808    5802    5850      14    5811    5808    5838    5835      48
    5811    5808    5838    5841      48    5811    5817    5823    5826      25
    5811    5817   -5823    5835      25    5808    5802    5850    5844      10
    5808    5802    5850    5856      10    5808    5811    5817    5823      47
    5808    5838   -5835    5823      54    5802    5799   -5793    5844      26
    5802    5799   -5793    5844      27    5802    5808    5811    5817      46
    5802    5808    5838    5835      48    5802    5808    5838    5841      48
    5802    5850    5844    5862      10    5799    5793   -5844    5850      10
    5799    5793    5844    5862       4    5799    5793   -5844    5862       5
    5799    5802    5808    5811      55    5799    5802   -5808    5811      56
    5799    5802   -5808    5811      57    5799    5802   -5808    5811      58
    5799    5802    5808    5838      14    5799    5802   -5850    5844      10
    5799    5802    5850    5856       4    5799    5802   -5850    5856       5
    5793    5799    5802    5808      32    5793    5799   -5802    5808      27
    5793    5799   -5802    5850      26    5793    5799   -5802    5850      27
    5793    5844   -5850    5802      33    5793    5844   -5850    5802      34
    5793    5844   -5850    5802      35    5793    5844    5850    5856      10
    5793    5844    5862    5865       9    5784    5793    5799    5802      26
    5784    5793   -5799    5802      27    5784    5793    5844    5850      33
    5784    5793   -5844    5850      34    5784    5793   -5844    5850      35
    5784    5793    5844    5862      10    5781    5784    5793    5799      10
    5781    5784    5793    5844      36    5781    5784   -5793    5844      37
    5781    5784   -5793    5844      38    5778    5772    5781    5784      12
    5775    5772    5781    5784      12    5772    5781    5784    5793       9
    5952    5955    5964    5967       1    5952    5955   -5964    5967       2
    5952    5955   -5964    5967       3    5946    5940    5934    5952       4
    5946    5940   -5934    5952       5    5940    5934    5952    5955       9
    5934    5952    5955    5958      12    5934    5952    5955    5961      12
    5934    5952    5955    5964      13    5934    5952   -5955    5964      12
    5928    5901    5895    5940      14    5919    5916    5922    5928      19
    5916    5922    5928    5931      19    5910    5904    5901    5928      46
    5910    5916   -5922    5928      19    5904    5901    5895    5940      14
    5904    5901    5928    5922      48    5904    5901    5928    5931      48
    5904    5910    5916    5919      45    5904    5910   -5916    5919      49
    5904    5910   -5916    5922      45    5901    5895    5940    5934      10
    5901    5895    5940    5946      10    5901    5904    5910    5916      47
    5901    5928   -5922    5916      19    5895    5892   -5886    5934      26
    5895    5892   -5886    5934      27    5895    5901    5904    5910      46
    5895    5901    5928    5922      48    5895    5901    5928    5931      48
    5895    5940    5934    5952      10    5892    5886   -5934    5940      10
    5892    5886    5934    5952       4    5892    5886   -5934    5952       5
    5892    5895    5901    5904      50    5892    5895   -5901    5904      51
    5892    5895   -5901    5904      52    5892    5895   -5901    5904      53
    5892    5895    5901    5928      14    5892    5895   -5940    5934      10
    5892    5895    5940    5946       4    5892    5895   -5940    5946       5
    5886    5892    5895    5901      32    5886    5892   -5895    5901      27
    5886    5892   -5895    5940      26    5886    5892   -5895    5940      27
    5886    5934   -5940    5895      33    5886    5934   -5940    5895      34
    5886    5934   -5940    5895      35    5886    5934    5940    5946      10
    5886    5934    5952    5955       9    5877    5886    5892    5895      26
    5877    5886   -5892    5895      27    5877    5886    5934    5940      33
    5877    5886   -5934    5940      34    5877    5886   -5934    5940      35
    5877    5886    5934    5952      10    5874    5877    5886    5892      10
    5874    5877    5886    5934      36    5874    5877   -5886    5934      37
    5874    5877   -5886    5934      38    5871    5865    5874    5877      12
    5868    5865    5874    5877      12    5865    5874    5877    5886       9
    6051    6054    6063    6066       1    6051    6054   -6063    6066       2
    6051    6054   -6063    6066       3    6045    6039    6033    6051       4
    6045    6039   -6033    6051       5    6039    6033    6051    6054       9
    6033    6051    6054    6057      12    6033    6051    6054    6060      12
    6033    6051    6054    6063      13    6033    6051   -6054    6063      12
    6030    5991    5985    6039      14    6018    6006    6003    6030      40
    6018    6021   -6027    6030      39    6009    6006    6003    6030      40
    6009    6006    6018    6021      16    6006    6003    6030    6027      20
    6006    6018   -6021    6027      39    6003    6006    6018    6021      16
    6003    6030   -6027    6021      21    6000    5994   -5991    6030      22
    6000    6003    6006    6009      40    6000    6003    6006    6018      40
    6000    6003    6030    6027      20    5994    5991    5985    6039      14
    5994    5991   -6030    6003      24    5994    5991    6030    6027      24
    5994    6000    6003    6006      25    5994    6000   -6003    6030      25
    5991    5985    6039    6033      10    5991    5985    6039    6045      10
    5991    5994   -6000    6003      23    5991    6030   -6003    6000      20
    5991    6030    6003    6006      20    5991    6030    6027    6021      21
    5985    5982   -5976    6033      26    5985    5982   -5976    6033      27
    5985    5991    5994    6000      22    5985    5991    6030    6003      24
    5985    5991    6030    6027      24    5985    6039    6033    6051      10
    5982    5976   -6033    6039      10    5982    5976    6033    6051       4
    5982    5976   -6033    6051       5    5982    5985    5991    5994      41
    5982    5985   -5991    5994      42    5982    5985   -5991    5994      43
    5982    5985   -5991    5994      44    5982    5985    5991    6030      14
    5982    5985   -6039    6033      10    5982    5985    6039    6045       4
    5982    5985   -6039    6045       5    5976    5982    5985    5991      32
    5976    5982   -5985    5991      27    5976    5982   -5985    6039      26
    5976    5982   -5985    6039      27    5976    6033   -6039    5985      33
    5976    6033   -6039    5985      34    5976    6033   -6039    5985      35
    5976    6033    6039    6045      10    5976    6033    6051    6054       9
    5967    5976    5982    5985      26    5967    5976   -5982    5985      27
    5967    5976    6033    6039      33    5967    5976   -6033    6039      34
    5967    5976   -6033    6039      35    5967    5976    6033    6051      10
    5964    5967    5976    5982      10    5964    5967    5976    6033      36
    5964    5967   -5976    6033      37    5964    5967   -5976    6033      38
    5961    5955    5964    5967      12    5958    5955    5964    5967      12
    5955    5964    5967    5976       9    6141    6144    6153    6156       1
    6141    6144   -6153    6156       2    6141    6144   -6153    6156       3
    6135    6129    6123    6141       4    6135    6129   -6123    6141       5
    6129    6123    6141    6144       9    6123    6141    6144    6147      12
    6123    6141    6144    6150      12    6123    6141    6144    6153      13
    6123    6141   -6144    6153      12    6117    6090    6084    6129      14
    6108    6105    6111    6117      19    6105    6111    6117    6120      19
    6099    6093    6090    6117      46    6099    6105   -6111    6117      19
    6093    6090    6084    6129      14    6093    6090    6117    6111      48
    6093    6090    6117    6120      48    6093    6099    6105    6108      45
    6093    6099   -6105    6108      49    6093    6099   -6105    6111      45
    6090    6084    6129    6123      10    6090    6084    6129    6135      10
    6090    6093    6099    6105      47    6090    6117   -6111    6105      19
    6084    6081   -6075    6123      26    6084    6081   -6075    6123      27
    6084    6090    6093    6099      46    6084    6090    6117    6111      48
    6084    6090    6117    6120      48    6084    6129    6123    6141      10
    6081    6075   -6123    6129      10    6081    6075    6123    6141       4
    6081    6075   -6123    6141       5    6081    6084    6090    6093      50
    6081    6084   -6090    6093      51    6081    6084   -6090    6093      52
    6081    6084   -6090    6093      53    6081    6084    6090    6117      14
    6081    6084   -6129    6123      10    6081    6084    6129    6135       4
    6081    6084   -6129    6135       5    6075    6081    6084    6090      32
    6075    6081   -6084    6090      27    6075    6081   -6084    6129      26
    6075    6081   -6084    6129      27    6075    6123   -6129    6084      33
    6075    6123   -6129    6084      34    6075    6123   -6129    6084      35
    6075    6123    6129    6135      10    6075    6123    6141    6144       9
    6066    6075    6081    6084      26    6066    6075   -6081    6084      27
    6066    6075    6123    6129      33    6066    6075   -6123    6129      34
    6066    6075   -6123    6129      35    6066    6075    6123    6141      10
    6063    6066    6075    6081      10    6063    6066    6075    6123      36
    6063    6066   -6075    6123      37    6063    6066   -6075    6123      38
    6060    6054    6063    6066      12    6057    6054    6063    6066      12
    6054    6063    6066    6075       9    6243    6246    6255    6258       1
    6243    6246   -6255    6258       2    6243    6246   -6255    6258       3
    6237    6231    6225    6243       4    6237    6231   -6225    6243       5
    6231    6225    6243    6246       9    6225    6243    6246    6249      12
    6225    6243    6246    6252      12    6225    6243    6246    6255      13
    6225    6243   -6246    6255      12    6222    6180    6174    6231      14
    6210    6207    6219    6222      16    6201    6195    6192    6222      18
    6201    6207   -6219    6222      16    6198    6195    6192    6222      18
    6198    6195    6201    6207      19    6195    6192    6222    6219      20
    6195    6201    6207    6210      17    6195    6201   -6207    6219      17
    6192    6195    6201    6207      19    6192    6222   -6219    6207      21
    6189    6183   -6180    6222      22    6189    6192    6195    6198      18
    6189    6192    6195    6201      18    6189    6192    6222    6219      20
    6183    6180    6174    6231      14    6183    6180   -6222    6192      24
    6183    6180    6222    6219      24    6183    6189    6192    6195      25
    6183    6189   -6192    6222      25    6180    6174    6231    6225      10
    6180    6174    6231    6237      10    6180    6183   -6189    6192      23
    6180    6222   -6192    6189      20    6180    6222    6192    6195      20
    6180    6222    6219    6207      21    6174    6171   -6165    6225      26
    6174    6171   -6165    6225      27    6174    6180    6183    6189      22
    6174    6180    6222    6192      24    6174    6180    6222    6219      24
    6174    6231    6225    6243      10    6171    6165   -6225    6231      10
    6171    6165    6225    6243       4    6171    6165   -6225    6243       5
    6171    6174    6180    6183      28    6171    6174   -6180    6183      29
    6171    6174   -6180    6183      30    6171    6174   -6180    6183      31
    6171    6174    6180    6222      14    6171    6174   -6231    6225      10
    6171    6174    6231    6237       4    6171    6174   -6231    6237       5
    6165    6171    6174    6180      32    6165    6171   -6174    6180      27
    6165    6171   -6174    6231      26    6165    6171   -6174    6231      27
    6165    6225   -6231    6174      33    6165    6225   -6231    6174      34
    6165    6225   -6231    6174      35    6165    6225    6231    6237      10
    6165    6225    6243    6246       9    6156    6165    6171    6174      26
    6156    6165   -6171    6174      27    6156    6165    6225    6231      33
    6156    6165   -6225    6231      34    6156    6165   -6225    6231      35
    6156    6165    6225    6243      10    6153    6156    6165    6171      10
    6153    6156    6165    6225      36    6153    6156   -6165    6225      37
    6153    6156   -6165    6225      38    6150    6144    6153    6156      12
    6147    6144    6153    6156      12    6144    6153    6156    6165       9
    6345    6348    6357    6360       1    6345    6348   -6357    6360       2
    6345    6348   -6357    6360       3    6339    6333    6327    6345       4
    6339    6333   -6327    6345       5    6333    6327    6345    6348       9
    6327    6345    6348    6351      12    6327    6345    6348    6354      12
    6327    6345    6348    6357      13    6327    6345   -6348    6357      12
    6324    6282    6276    6333      14    6312    6309    6321    6324      16
    6303    6297    6294    6324      18    6303    6309   -6321    6324      16
    6300    6297    6294    6324      18    6300    6297    6303    6309      19
    6297    6294    6324    6321      20    6297    6303    6309    6312      17
    6297    6303   -6309    6321      17    6294    6297    6303    6309      19
    6294    6324   -6321    6309      21    6291    6285   -6282    6324      22
    6291    6294    6297    6300      18    6291    6294    6297    6303      18
    6291    6294    6324    6321      20    6285    6282    6276    6333      14
    6285    6282   -6324    6294      24    6285    6282    6324    6321      24
    6285    6291    6294    6297      25    6285    6291   -6294    6324      25
    6282    6276    6333    6327      10    6282    6276    6333    6339      10
    6282    6285   -6291    6294      23    6282    6324   -6294    6291      20
    6282    6324    6294    6297      20    6282    6324    6321    6309      21
    6276    6273   -6267    6327      26    6276    6273   -6267    6327      27
    6276    6282    6285    6291      22    6276    6282    6324    6294      24
    6276    6282    6324    6321      24    6276    6333    6327    6345      10
    6273    6267   -6327    6333      10    6273    6267    6327    6345       4
    6273    6267   -6327    6345       5    6273    6276    6282    6285      28
    6273    6276   -6282    6285      29    6273    6276   -6282    6285      30
    6273    6276   -6282    6285      31    6273    6276    6282    6324      14
    6273    6276   -6333    6327      10    6273    6276    6333    6339       4
    6273    6276   -6333    6339       5    6267    6273    6276    6282      32
    6267    6273   -6276    6282      27    6267    6273   -6276    6333      26
    6267    6273   -6276    6333      27    6267    6327   -6333    6276      33
    6267    6327   -6333    6276      34    6267    6327   -6333    6276      35
    6267    6327    6333    6339      10    6267    6327    6345    6348       9
    6258    6267    6273    6276      26    6258    6267   -6273    6276      27
    6258    6267    6327    6333      33    6258    6267   -6327    6333      34
    6258    6267   -6327    6333      35    6258    6267    6327    6345      10
    6255    6258    6267    6273      10    6255    6258    6267    6327      36
    6255    6258   -6267    6327      37    6255    6258   -6267    6327      38
    6252    6246    6255    6258      12    6249    6246    6255    6258      12
    6246    6255    6258    6267       9    6435    6438    6447    6450       1
    6435    6438   -6447    6450       2    6435    6438   -6447    6450       3
    6429    6423    6417    6435       4    6429    6423   -6417    6435       5
    6423    6417    6435    6438       9    6417    6435    6438    6441      12
    6417    6435    6438    6444      12    6417    6435    6438    6447      13
    6417    6435   -6438    6447      12    6411    6384    6378    6423      14
    6402    6399    6405    6411      19    6399    6405    6411    6414      19
    6393    6387    6384    6411      46    6393    6399   -6405    6411      19
    6387    6384    6378    6423      14    6387    6384    6411    6405      48
    6387    6384    6411    6414      48    6387    6393    6399    6402      45
    6387    6393   -6399    6402      49    6387    6393   -6399    6405      45
    6384    6378    6423    6417      10    6384    6378    6423    6429      10
    6384    6387    6393    6399      47    6384    6411   -6405    6399      19
    6378    6375   -6369    6417      26    6378    6375   -6369    6417      27
    6378    6384    6387    6393      46    6378    6384    6411    6405      48
    6378    6384    6411    6414      48    6378    6423    6417    6435      10
    6375    6369   -6417    6423      10    6375    6369    6417    6435       4
    6375    6369   -6417    6435       5    6375    6378    6384    6387      50
    6375    6378   -6384    6387      51    6375    6378   -6384    6387      52
    6375    6378   -6384    6387      53    6375    6378    6384    6411      14
    6375    6378   -6423    6417      10    6375    6378    6423    6429       4
    6375    6378   -6423    6429       5    6369    6375    6378    6384      32
    6369    6375   -6378    6384      27    6369    6375   -6378    6423      26
    6369    6375   -6378    6423      27    6369    6417   -6423    6378      33
    6369    6417   -6423    6378      34    6369    6417   -6423    6378      35
    6369    6417    6423    6429      10    6369    6417    6435    6438       9
    6360    6369    6375    6378      26    6360    6369   -6375    6378      27
    6360    6369    6417    6423      33    6360    6369   -6417    6423      34
    6360    6369   -6417    6423      35    6360    6369    6417    6435      10
    6357    6360    6369    6375      10    6357    6360    6369    6417      36
    6357    6360   -6369    6417      37    6357    6360   -6369    6417      38
    6354    6348    6357    6360      12    6351    6348    6357    6360      12
    6348    6357    6360    6369       9    6522    6516    6510    6528       4
    6522    6516   -6510    6528       5    6504    6474    6468    6516      14
    6492    6489    6501    6504      16    6489    6501    6504    6507      54
    6483    6477    6474    6504      46    6483    6489   -6501    6504      16
    6477    6474    6468    6516      14    6477    6474    6504    6501      48
    6477    6474    6504    6507      48    6477    6483    6489    6492      25
    6477    6483   -6489    6501      25    6474    6468    6516    6510      10
    6474    6468    6516    6522      10    6474    6477    6483    6489      47
    6474    6504   -6501    6489      54    6468    6465   -6459    6510      26
    6468    6465   -6459    6510      27    6468    6474    6477    6483      46
    6468    6474    6504    6501      48    6468    6474    6504    6507      48
    6468    6516    6510    6528      10    6465    6459   -6510    6516      10
    6465    6459    6510    6528       4    6465    6459   -6510    6528       5
    6465    6468    6474    6477      55    6465    6468   -6474    6477      56
    6465    6468   -6474    6477      57    6465    6468   -6474    6477      58
    6465    6468    6474    6504      14    6465    6468   -6516    6510      10
    6465    6468    6516    6522       4    6465    6468   -6516    6522       5
    6459    6465    6468    6474      32    6459    6465   -6468    6474      27
    6459    6465   -6468    6516      26    6459    6465   -6468    6516      27
    6459    6510   -6516    6468      33    6459    6510   -6516    6468      34
    6459    6510   -6516    6468      35    6459    6510    6516    6522      10
    6450    6459    6465    6468      26    6450    6459   -6465    6468      27
    6450    6459    6510    6516      33    6450    6459   -6510    6516      34
    6450    6459   -6510    6516      35    6450    6459    6510    6528      10
    6447    6450    6459    6465      10    6447    6450    6459    6510      36
    6447    6450   -6459    6510      37    6447    6450   -6459    6510      38
    6444    6438    6447    6450      12    6441    6438    6447    6450      12
    6438    6447    6450    6459       9    6960    6957   -6954    6966      54
    6957    6954   -6966    6963      22    6957    6960   -6963    6966      60
    6954    6957   -6960    6963      60    6954    6966   -6963    6960      22
    6951    6954    6957    6960      54    6951    6954    6966    6963      22
    6948    6939    6936    6951       7    6945    6939    6936    6951       7
    6942    6939    6936    6951       7    6939    6936    6951    6954      60
    6936    6933    6930    6957      59    6936    6951   -6954    6957      60
    6936    6951    6954    6966      60    6933    6930    6957    6954      61
    6933    6930    6957    6960      61    6933    6936    6939    6942       7
    6933    6936    6939    6945       7    6933    6936    6939    6948       7
    6933    6936   -6951    6954      60    6930    6933    6936    6939      24
    6930    6933    6936    6951      24    6930    6957   -6954    6951      54
    6930    6957    6954    6966      54    6930    6957    6960    6963      60
    6927    6930    6933    6936      59    6927    6930    6957    6954      61
    6927    6930    6957    6960      61      30      42     -72     -69      63
      60      51     -57     -69      65      42      51     -45     -48      66
      39      45     -42     -72      63      72      33     -30     -24      64
     144     132    -174    -171      63     162     153    -159    -171      65
     144     153    -147    -150      66     147     174    -144    -141      63
     174     135    -132    -126      64     246     234    -273    -270      63
     246     252    -249    -261      65     243     249    -246    -273      63
     273     237    -234    -228      64     333     354    -360    -363      66
     342     354    -348    -351      66     360     336    -333    -327      64
     423     450    -453    -456      66     432     441    -438    -450      65
     453     426    -423    -417      64     528     516    -555    -552      63
     528     534    -531    -543      65     531     555    -528    -525      63
     519     555    -516    -510      64     615     636    -642    -645      66
     624     636    -630    -633      66     642     618    -615    -609      64
     717     705    -744    -741      63     717     723    -720    -732      65
     720     744    -717    -714      63     708     744    -705    -699      64
     804     825    -831    -834      66     813     825    -819    -822      66
     831     807    -804    -798      64     906     894    -933    -930      63
     906     912    -909    -921      65     909     933    -906    -903      63
     897     933    -894    -888      64    1005     993   -1032   -1029      63
    1005    1011   -1008   -1020      65    1008    1032   -1005   -1002      63
     996    1032    -993    -987      64    1092    1113   -1119   -1122      66
    1101    1113   -1107   -1110      66    1119    1095   -1092   -1086      64
    1182    1209   -1212   -1215      66    1191    1200   -1197   -1209      65
    1212    1185   -1182   -1176      64    1287    1275   -1317   -1314      63
    1305    1296   -1302   -1314      65    1287    1296   -1290   -1293      66
    1290    1317   -1287   -1284      63    1317    1278   -1275   -1269      64
    1377    1404   -1407   -1410      66    1386    1395   -1392   -1404      65
    1407    1380   -1377   -1371      64    1482    1470   -1512   -1509      63
    1500    1491   -1497   -1509      65    1482    1491   -1485   -1488      66
    1485    1512   -1482   -1479      63    1512    1473   -1470   -1464      64
    1572    1593   -1599   -1602      66    1581    1593   -1587   -1590      66
    1599    1575   -1572   -1566      64    1674    1662   -1704   -1701      63
    1692    1683   -1689   -1701      65    1674    1683   -1677   -1680      66
    1677    1704   -1674   -1671      63    1704    1665   -1662   -1656      64
    1776    1764   -1806   -1803      63    1794    1785   -1791   -1803      65
    1776    1785   -1779   -1782      66    1779    1806   -1776   -1773      63
    1806    1767   -1764   -1758      64    1878    1866   -1905   -1902      63
    1878    1884   -1881   -1893      65    1881    1905   -1878   -1875      63
    1869    1905   -1866   -1860      64    1965    1986   -1992   -1995      66
    1974    1986   -1980   -1983      66    1992    1968   -1965   -1959      64
    2067    2055   -2094   -2091      63    2067    2073   -2070   -2082      65
    2070    2094   -2067   -2064      63    2058    2094   -2055   -2049      64
    2154    2175   -2181   -2184      66    2163    2175   -2169   -2172      66
    2181    2157   -2154   -2148      64    2256    2244   -2286   -2283      63
    2274    2265   -2271   -2283      65    2256    2265   -2259   -2262      66
    2259    2286   -2256   -2253      63    2286    2247   -2244   -2238      64
    2358    2346   -2388   -2385      63    2376    2367   -2373   -2385      65
    2358    2367   -2361   -2364      66    2361    2388   -2358   -2355      63
    2388    2349   -2346   -2340      64    2448    2475   -2478   -2481      66
    2457    2466   -2463   -2475      65    2478    2451   -2448   -2442      64
    2553    2541   -2580   -2577      63    2553    2559   -2556   -2568      65
    2556    2580   -2553   -2550      63    2544    2580   -2541   -2535      64
    2640    2667   -2670   -2673      66    2649    2658   -2655   -2667      65
    2670    2643   -2640   -2634      64    2745    2733   -2775   -2772      63
    2763    2754   -2760   -2772      65    2745    2754   -2748   -2751      66
    2748    2775   -2745   -2742      63    2775    2736   -2733   -2727      64
    2835    2862   -2865   -2868      66    2844    2853   -2850   -2862      65
    2865    2838   -2835   -2829      64    2940    2928   -2967   -2964      63
    2940    2946   -2943   -2955      65    2943    2967   -2940   -2937      63
    2931    2967   -2928   -2922      64    3039    3027   -3066   -3063      63
    3039    3045   -3042   -3054      65    3042    3066   -3039   -3036      63
    3030    3066   -3027   -3021      64    3138    3126   -3168   -3165      63
    3156    3147   -3153   -3165      65    3138    3147   -3141   -3144      66
    3141    3168   -3138   -3135      63    3168    3129   -3126   -3120      64
    3228    3249   -3255   -3258      66    3237    3249   -3243   -3246      66
    3255    3231   -3228   -3222      64    3318    3339   -3345   -3348      66
    3327    3339   -3333   -3336      66    3345    3321   -3318   -3312      64
    3408    3429   -3435   -3438      66    3417    3429   -3423   -3426      66
    3435    3411   -3408   -3402      64    3498    3525   -3528   -3531      66
    3507    3516   -3513   -3525      65    3528    3501   -3498   -3492      64
    3591    3612   -3618   -3621      66    3600    3612   -3606   -3609      66
    3618    3594   -3591   -3585      64    3693    3681   -3720   -3717      63
    3693    3699   -3696   -3708      65    3696    3720   -3693   -3690      63
    3684    3720   -3681   -3675      64    3780    3807   -3810   -3813      66
    3789    3798   -3795   -3807      65    3810    3783   -3780   -3774      64
    3873    3900   -3903   -3906      66    3882    3891   -3888   -3900      65
    3903    3876   -3873   -3867      64    3978    3966   -4008   -4005      63
    3996    3987   -3993   -4005      65    3978    3987   -3981   -3984      66
    3981    4008   -3978   -3975      63    4008    3969   -3966   -3960      64
    4080    4068   -4110   -4107      63    4098    4089   -4095   -4107      65
    4080    4089   -4083   -4086      66    4083    4110   -4080   -4077      63
    4110    4071   -4068   -4062      64    4182    4170   -4212   -4209      63
    4200    4191   -4197   -4209      65    4182    4191   -4185   -4188      66
    4185    4212   -4182   -4179      63    4212    4173   -4170   -4164      64
    4272    4299   -4302   -4305      66    4281    4290   -4287   -4299      65
    4302    4275   -4272   -4266      64    4377    4365   -4404   -4401      63
    4377    4383   -4380   -4392      65    4380    4404   -4377   -4374      63
    4368    4404   -4365   -4359      64    4464    4491   -4494   -4497      66
    4473    4482   -4479   -4491      65    4494    4467   -4464   -4458      64
    4557    4584   -4587   -4590      66    4566    4575   -4572   -4584      65
    4587    4560   -4557   -4551      64    4662    4650   -4692   -4689      63
    4680    4671   -4677   -4689      65    4662    4671   -4665   -4668      66
    4665    4692   -4662   -4659      63    4692    4653   -4650   -4644      64
    4752    4773   -4779   -4782      66    4761    4773   -4767   -4770      66
    4779    4755   -4752   -4746      64    4854    4842   -4881   -4878      63
    4854    4860   -4857   -4869      65    4857    4881   -4854   -4851      63
    4845    4881   -4842   -4836      64    4953    4941   -4980   -4977      63
    4953    4959   -4956   -4968      65    4956    4980   -4953   -4950      63
    4944    4980   -4941   -4935      64    5052    5040   -5079   -5076      63
    5052    5058   -5055   -5067      65    5055    5079   -5052   -5049      63
    5043    5079   -5040   -5034      64    5139    5160   -5166   -5169      66
    5148    5160   -5154   -5157      66    5166    5142   -5139   -5133      64
    5241    5229   -5271   -5268      63    5259    5250   -5256   -5268      65
    5241    5250   -5244   -5247      66    5244    5271   -5241   -5238      63
    5271    5232   -5229   -5223      64    5331    5352   -5358   -5361      66
    5340    5352   -5346   -5349      66    5358    5334   -5331   -5325      64
    5421    5448   -5451   -5454      66    5430    5439   -5436   -5448      65
    5451    5424   -5421   -5415      64    5514    5541   -5544   -5547      66
    5523    5532   -5529   -5541      65    5544    5517   -5514   -5508      64
    5619    5607   -5649   -5646      63    5637    5628   -5634   -5646      65
    5619    5628   -5622   -5625      66    5622    5649   -5619   -5616      63
    5649    5610   -5607   -5601      64    5721    5709   -5748   -5745      63
    5721    5727   -5724   -5736      65    5724    5748   -5721   -5718      63
    5712    5748   -5709   -5703      64    5808    5835   -5838   -5841      66
    5817    5826   -5823   -5835      65    5838    5811   -5808   -5802      64
    5901    5922   -5928   -5931      66    5910    5922   -5916   -5919      66
    5928    5904   -5901   -5895      64    6003    5991   -6030   -6027      63
    6003    6009   -6006   -6018      65    6006    6030   -6003   -6000      63
    5994    6030   -5991   -5985      64    6090    6111   -6117   -6120      66
    6099    6111   -6105   -6108      66    6117    6093   -6090   -6084      64
    6192    6180   -6222   -6219      63    6210    6201   -6207   -6219      65
    6192    6201   -6195   -6198      66    6195    6222   -6192   -6189      63
    6222    6183   -6180   -6174      64    6294    6282   -6324   -6321      63
    6312    6303   -6309   -6321      65    6294    6303   -6297   -6300      66
    6297    6324   -6294   -6291      63    6324    6285   -6282   -6276      64
    6384    6405   -6411   -6414      66    6393    6405   -6399   -6402      66
    6411    6387   -6384   -6378      64    6474    6501   -6504   -6507      66
    6483    6492   -6489   -6501      65    6504    6477   -6474   -6468      64
    6930    6954   -6957   -6960      65    6957    6966   -6954   -6951      65
    6939    6951   -6936   -6933      65    6957    6933   -6930   -6927      66
%FLAG EXCLUDED_ATOMS_LIST                                                       
%FORMAT(10I8)                                                                   
       2       3       4       5       6       3       4       5       6       7
       8      26       4       5       6       7       8       9      26      27
      28      32       5       6       7       8      26       6       7       8
      26       7       8       9      10      11      26      27      28      29
      30      32      33       8       9      26      27      28      32       9
      10      11      12      25      26      27      28      29      30      32
      10      11      12      13      14      15      24      25      26      27
      28      29      30      31      32      11      12      25      26      28
      29      30      12      13      14      15      16      20      24      25
      26      28      29      30      13      14      15      16      24      25
      28      14      15      25      15      16      17      18      24      25
      16      17      18      19      20      24      25      17      18      19
      20      21      24      25      18      19      20      25      19      20
      21      22      23      24      25      20      21      24      21      22
      23      24      25      22      23      24      25      23      24      24
      25      28      27      28      29      30      31      32      33      34
      35      36      28      29      30      32      33      29      30      31
      32      33      30      31      32      31      32       0      33      34
      35      36      37      34      35      36      37      38      39      40
      35      36      37      36      37      37      38      39      40      41
      42      60      38      39      40      41      42      43      60      61
      62      66      39      40      41      42      60      40      41      42
      60      41      42      43      44      45      60      61      62      63
      64      66      67      42      43      60      61      62      66      43
      44      45      46      59      60      61      62      63      64      66
      44      45      46      47      48      49      58      59      60      61
      62      63      64      65      66      45      46      59      60      62
      63      64      46      47      48      49      50      54      58      59
      60      62      63      64      47      48      49      50      58      59
      62      48      49      59      49      50      51      52      58      59
      50      51      52      53      54      58      59      51      52      53
      54      55      58      59      52      53      54      59      53      54
      55      56      57      58      59      54      55      58      55      56
      57      58      59      56      57      58      59      57      58      58
      59      62      61      62      63      64      65      66      67      68
      69      70      62      63      64      66      67      63      64      65
      66      67      64      65      66      65      66       0      67      68
      69      70      71      68      69      70      71      72      73      74
      69      70      71      70      71      71      72      73      74      75
      76      93      72      73      74      75      76      77      93      94
      95      99      73      74      75      76      93      74      75      76
      93      75      76      77      78      79      93      94      95      96
      97      99     100      76      77      93      94      95      99      77
      78      79      80      92      93      94      95      96      97      99
      78      79      80      81      82      83      91      92      93      94
      95      96      97      98      99      79      80      92      93      95
      96      97      80      81      82      83      84      89      91      92
      93      95      96      97      81      82      83      84      91      92
      95      82      83      92      83      84      85      88      91      92
      84      85      86      87      88      89      91      92      85      86
      87      88      89      90      91      92      86      87      88      89
      92      87      88      88      89      90      91      92      90      91
      92      91      92      92      95      94      95      96      97      98
      99     100     101     102     103      95      96      97      99     100
      96      97      98      99     100      97      98      99      98      99
       0     100     101     102     103     104     101     102     103     104
     105     106     107     102     103     104     103     104     104     105
     106     107     108     109     123     105     106     107     108     109
     110     123     124     125     129     106     107     108     109     123
     107     108     109     123     108     109     110     111     112     123
     124     125     126     127     129     130     109     110     123     124
     125     129     110     111     112     113     121     123     124     125
     126     127     129     111     112     113     114     115     119     121
     122     123     124     125     126     127     128     129     112     113
     121     123     125     126     127     113     114     115     116     117
     119     120     121     122     123     125     126     127     114     115
     116     117     118     119     121     122     125     115     116     117
     121     116     117     118     119     120     121     117     118     119
     118     119     120     121     122     119     120     121     120     121
     122     121     122     122     125       0     124     125     126     127
     128     129     130     131     132     133     125     126     127     129
     130     126     127     128     129     130     127     128     129     128
     129       0     130     131     132     133     134     131     132     133
     134     135     136     137     132     133     134     133     134     134
     135     136     137     138     139     154     135     136     137     138
     139     140     154     155     156     160     136     137     138     139
     154     137     138     139     154     138     139     140     141     142
     154     155     156     157     158     160     161     139     140     154
     155     156     160     140     141     142     143     152     154     155
     156     157     158     160     141     142     143     144     145     151
     152     153     154     155     156     157     158     159     160     142
     143     152     154     156     157     158     143     144     145     146
     147     151     152     153     154     156     157     158     144     145
     146     147     148     151     152     153     156     145     146     147
     152     146     147     148     149     150     151     152     147     148
     151     148     149     150     151     152     153     149     150     151
     152     150     151     151     152     153     153     156       0     155
     156     157     158     159     160     161     162     163     164     156
     157     158     160     161     157     158     159     160     161     158
     159     160     159     160       0     161     162     163     164     165
     162     163     164     165     166     167     168     163     164     165
     164     165     165     166     167     168     169     170     187     166
     167     168     169     170     171     187     188     189     193     167
     168     169     170     187     168     169     170     187     169     170
     171     172     173     187     188     189     190     191     193     194
     170     171     187     188     189     193     171     172     173     174
     186     187     188     189     190     191     193     172     173     174
     175     176     177     185     186     187     188     189     190     191
     192     193     173     174     186     187     189     190     191     174
     175     176     177     178     183     185     186     187     189     190
     191     175     176     177     178     185     186     189     176     177
     186     177     178     179     182     185     186     178     179     180
     181     182     183     185     186     179     180     181     182     183
     184     185     186     180     181     182     183     186     181     182
     182     183     184     185     186     184     185     186     185     186
     186     189     188     189     190     191     192     193     194     195
     196     197     189     190     191     193     194     190     191     192
     193     194     191     192     193     192     193       0     194     195
     196     197     198     195     196     197     198     199     200     201
     196     197     198     197     198     198     199     200     201     202
     203     217     199     200     201     202     203     204     217     218
     219     223     200     201     202     203     217     201     202     203
     217     202     203     204     205     206     217     218     219     220
     221     223     224     203     204     217     218     219     223     204
     205     206     207     215     217     218     219     220     221     223
     205     206     207     208     209     213     215     216     217     218
     219     220     221     222     223     206     207     215     217     219
     220     221     207     208     209     210     211     213     214     215
     216     217     219     220     221     208     209     210     211     212
     213     215     216     219     209     210     211     215     210     211
     212     213     214     215     211     212     213     212     213     214
     215     216     213     214     215     214     215     216     215     216
     216     219       0     218     219     220     221     222     223     224
     225     226     227     219     220     221     223     224     220     221
     222     223     224     221     222     223     222     223       0     224
     225     226     227     228     225     226     227     228     229     230
     231     226     227     228     227     228     228     229     230     231
     232     233     250     229     230     231     232     233     234     250
     251     252     256     230     231     232     233     250     231     232
     233     250     232     233     234     235     236     250     251     252
     253     254     256     257     233     234     250     251     252     256
     234     235     236     237     249     250     251     252     253     254
     256     235     236     237     238     239     240     248     249     250
     251     252     253     254     255     256     236     237     249     250
     252     253     254     237     238     239     240     241     246     248
     249     250     252     253     254     238     239     240     241     248
     249     252     239     240     249     240     241     242     245     248
     249     241     242     243     244     245     246     248     249     242
     243     244     245     246     247     248     249     243     244     245
     246     249     244     245     245     246     247     248     249     247
     248     249     248     249     249     252     251     252     253     254
     255     256     257     258     259     260     252     253     254     256
     257     253     254     255     256     257     254     255     256     255
     256       0     257     258     259     260     261     258     259     260
     261     262     263     264     259     260     261     260     261     261
     262     263     264     265     266     280     262     263     264     265
     266     267     280     281     282     286     263     264     265     266
     280     264     265     266     280     265     266     267     268     269
     280     281     282     283     284     286     287     266     267     280
     281     282     286     267     268     269     270     278     280     281
     282     283     284     286     268     269     270     271     272     276
     278     279     280     281     282     283     284     285     286     269
     270     278     280     282     283     284     270     271     272     273
     274     276     277     278     279     280     282     283     284     271
     272     273     274     275     276     278     279     282     272     273
     274     278     273     274     275     276     277     278     274     275
     276     275     276     277     278     279     276     277     278     277
     278     279     278     279     279     282       0     281     282     283
     284     285     286     287     288     289     290     282     283     284
     286     287     283     284     285     286     287     284     285     286
     285     286       0     287     288     289     290     291     288     289
     290     291     292     293     294     289     290     291     290     291
     291     292     293     294     295     296     313     292     293     294
     295     296     297     313     314     315     319     293     294     295
     296     313     294     295     296     313     295     296     297     298
     299     313     314     315     316     317     319     320     296     297
     313     314     315     319     297     298     299     300     312     313
     314     315     316     317     319     298     299     300     301     302
     303     311     312     313     314     315     316     317     318     319
     299     300     312     313     315     316     317     300     301     302
     303     304     309     311     312     313     315     316     317     301
     302     303     304     311     312     315     302     303     312     303
     304     305     308     311     312     304     305     306     307     308
     309     311     312     305     306     307     308     309     310     311
     312     306     307     308     309     312     307     308     308     309
     310     311     312     310     311     312     311     312     312     315
     314     315     316     317     318     319     320     321     322     323
     315     316     317     319     320     316     317     318     319     320
     317     318     319     318     319       0     320     321     322     323
     324     321     322     323     324     325     326     327     322     323
     324     323     324     324     325     326     327     328     329     346
     325     326     327     328     329     330     346     347     348     352
     326     327     328     329     346     327     328     329     346     328
     329     330     331     332     346     347     348     349     350     352
     353     329     330     346     347     348     352     330     331     332
     333     345     346     347     348     349     350     352     331     332
     333     334     335     336     344     345     346     347     348     349
     350     351     352     332     333     345     346     348     349     350
     333     334     335     336     337     342     344     345     346     348
     349     350     334     335     336     337     344     345     348     335
     336     345     336     337     338     341     344     345     337     338
     339     340     341     342     344     345     338     339     340     341
     342     343     344     345     339     340     341     342     345     340
     341     341     342     343     344     345     343     344     345     344
     345     345     348     347     348     349     350     351     352     353
     354     355     356     348     349     350     352     353     349     350
     351     352     353     350     351     352     351     352       0     353
     354     355     356     357     354     355     356     357     358     359
     360     355     356     357     356     357     357     358     359     360
     361     362     376     358     359     360     361     362     363     376
     377     378     382     359     360     361     362     376     360     361
     362     376     361     362     363     364     365     376     377     378
     379     380     382     383     362     363     376     377     378     382
     363     364     365     366     374     376     377     378     379     380
     382     364     365     366     367     368     372     374     375     376
     377     378     379     380     381     382     365     366     374     376
     378     379     380     366     367     368     369     370     372     373
     374     375     376     378     379     380     367     368     369     370
     371     372     374     375     378     368     369     370     374     369
     370     371     372     373     374     370     371     372     371     372
     373     374     375     372     373     374     373     374     375     374
     375     375     378       0     377     378     379     380     381     382
     383     384     385     386     378     379     380     382     383     379
     380     381     382     383     380     381     382     381     382       0
     383     384     385     386     387     384     385     386     387     388
     389     390     385     386     387     386     387     387     388     389
     390     391     392     407     388     389     390     391     392     393
     407     408     409     413     389     390     391     392     407     390
     391     392     407     391     392     393     394     395     407     408
     409     410     411     413     414     392     393     407     408     409
     413     393     394     395     396     405     407     408     409     410
     411     413     394     395     396     397     398     404     405     406
     407     408     409     410     411     412     413     395     396     405
     407     409     410     411     396     397     398     399     400     404
     405     406     407     409     410     411     397     398     399     400
     401     404     405     406     409     398     399     400     405     399
     400     401     402     403     404     405     400     401     404     401
     402     403     404     405     406     402     403     404     405     403
     404     404     405     406     406     409       0     408     409     410
     411     412     413     414     415     416     417     409     410     411
     413     414     410     411     412     413     414     411     412     413
     412     413       0     414     415     416     417     418     415     416
     417     418     419     420     421     416     417     418     417     418
     418     419     420     421     422     423     441     419     420     421
     422     423     424     441     442     443     447     420     421     422
     423     441     421     422     423     441     422     423     424     425
     426     441     442     443     444     445     447     448     423     424
     441     442     443     447     424     425     426     427     440     441
     442     443     444     445     447     425     426     427     428     429
     430     439     440     441     442     443     444     445     446     447
     426     427     440     441     443     444     445     427     428     429
     430     431     435     439     440     441     443     444     445     428
     429     430     431     439     440     443     429     430     440     430
     431     432     433     439     440     431     432     433     434     435
     439     440     432     433     434     435     436     439     440     433
     434     435     440     434     435     436     437     438     439     440
     435     436     439     436     437     438     439     440     437     438
     439     440     438     439     439     440     443     442     443     444
     445     446     447     448     449     450     451     443     444     445
     447     448     444     445     446     447     448     445     446     447
     446     447       0     448     449     450     451     452     449     450
     451     452     453     454     455     450     451     452     451     452
     452     453     454     455     456     457     472     453     454     455
     456     457     458     472     473     474     478     454     455     456
     457     472     455     456     457     472     456     457     458     459
     460     472     473     474     475     476     478     479     457     458
     472     473     474     478     458     459     460     461     470     472
     473     474     475     476     478     459     460     461     462     463
     469     470     471     472     473     474     475     476     477     478
     460     461     470     472     474     475     476     461     462     463
     464     465     469     470     471     472     474     475     476     462
     463     464     465     466     469     470     471     474     463     464
     465     470     464     465     466     467     468     469     470     465
     466     469     466     467     468     469     470     471     467     468
     469     470     468     469     469     470     471     471     474       0
     473     474     475     476     477     478     479     480     481     482
     474     475     476     478     479     475     476     477     478     479
     476     477     478     477     478       0     479     480     481     482
     483     480     481     482     483     484     485     486     481     482
     483     482     483     483     484     485     486     487     488     506
     484     485     486     487     488     489     506     507     508     512
     485     486     487     488     506     486     487     488     506     487
     488     489     490     491     506     507     508     509     510     512
     513     488     489     506     507     508     512     489     490     491
     492     505     506     507     508     509     510     512     490     491
     492     493     494     495     504     505     506     507     508     509
     510     511     512     491     492     505     506     508     509     510
     492     493     494     495     496     500     504     505     506     508
     509     510     493     494     495     496     504     505     508     494
     495     505     495     496     497     498     504     505     496     497
     498     499     500     504     505     497     498     499     500     501
     504     505     498     499     500     505     499     500     501     502
     503     504     505     500     501     504     501     502     503     504
     505     502     503     504     505     503     504     504     505     508
     507     508     509     510     511     512     513     514     515     516
     508     509     510     512     513     509     510     511     512     513
     510     511     512     511     512       0     513     514     515     516
     517     514     515     516     517     518     519     520     515     516
     517     516     517     517     518     519     520     521     522     536
     518     519     520     521     522     523     536     537     538     542
     519     520     521     522     536     520     521     522     536     521
     522     523     524     525     536     537     538     539     540     542
     543     522     523     536     537     538     542     523     524     525
     526     534     536     537     538     539     540     542     524     525
     526     527     528     532     534     535     536     537     538     539
     540     541     542     525     526     534     536     538     539     540
     526     527     528     529     530     532     533     534     535     536
     538     539     540     527     528     529     530     531     532     534
     535     538     528     529     530     534     529     530     531     532
     533     534     530     531     532     531     532     533     534     535
     532     533     534     533     534     535     534     535     535     538
       0     537     538     539     540     541     542     543     544     545
     546     538     539     540     542     543     539     540     541     542
     543     540     541     542     541     542       0     543     544     545
     546     547     544     545     546     547     548     549     550     545
     546     547     546     547     547     548     549     550     551     552
     570     548     549     550     551     552     553     570     571     572
     576     549     550     551     552     570     550     551     552     570
     551     552     553     554     555     570     571     572     573     574
     576     577     552     553     570     571     572     576     553     554
     555     556     569     570     571     572     573     574     576     554
     555     556     557     558     559     568     569     570     571     572
     573     574     575     576     555     556     569     570     572     573
     574     556     557     558     559     560     564     568     569     570
     572     573     574     557     558     559     560     568     569     572
     558     559     569     559     560     561     562     568     569     560
     561     562     563     564     568     569     561     562     563     564
     565     568     569     562     563     564     569     563     564     565
     566     567     568     569     564     565     568     565     566     567
     568     569     566     567     568     569     567     568     568     569
     572     571     572     573     574     575     576     577     578     579
     580     572     573     574     576     577     573     574     575     576
     577     574     575     576     575     576       0     577     578     579
     580     581     578     579     580     581     582     583     584     579
     580     581     580     581     581     582     583     584     585     586
     604     582     583     584     585     586     587     604     605     606
     610     583     584     585     586     604     584     585     586     604
     585     586     587     588     589     604     605     606     607     608
     610     611     586     587     604     605     606     610     587     588
     589     590     603     604     605     606     607     608     610     588
     589     590     591     592     593     602     603     604     605     606
     607     608     609     610     589     590     603     604     606     607
     608     590     591     592     593     594     598     602     603     604
     606     607     608     591     592     593     594     602     603     606
     592     593     603     593     594     595     596     602     603     594
     595     596     597     598     602     603     595     596     597     598
     599     602     603     596     597     598     603     597     598     599
     600     601     602     603     598     599     602     599     600     601
     602     603     600     601     602     603     601     602     602     603
     606     605     606     607     608     609     610     611     612     613
     614     606     607     608     610     611     607     608     609     610
     611     608     609     610     609     610       0     611     612     613
     614     615     612     613     614     615     616     617     618     613
     614     615     614     615     615     616     617     618     619     620
     637     616     617     618     619     620     621     637     638     639
     643     617     618     619     620     637     618     619     620     637
     619     620     621     622     623     637     638     639     640     641
     643     644     620     621     637     638     639     643     621     622
     623     624     636     637     638     639     640     641     643     622
     623     624     625     626     627     635     636     637     638     639
     640     641     642     643     623     624     636     637     639     640
     641     624     625     626     627     628     633     635     636     637
     639     640     641     625     626     627     628     635     636     639
     626     627     636     627     628     629     632     635     636     628
     629     630     631     632     633     635     636     629     630     631
     632     633     634     635     636     630     631     632     633     636
     631     632     632     633     634     635     636     634     635     636
     635     636     636     639     638     639     640     641     642     643
     644     645     646     647     639     640     641     643     644     640
     641     642     643     644     641     642     643     642     643       0
     644     645     646     647     648     645     646     647     648     649
     650     651     646     647     648     647     648     648     649     650
     651     652     653     667     649     650     651     652     653     654
     667     668     669     673     650     651     652     653     667     651
     652     653     667     652     653     654     655     656     667     668
     669     670     671     673     674     653     654     667     668     669
     673     654     655     656     657     665     667     668     669     670
     671     673     655     656     657     658     659     663     665     666
     667     668     669     670     671     672     673     656     657     665
     667     669     670     671     657     658     659     660     661     663
     664     665     666     667     669     670     671     658     659     660
     661     662     663     665     666     669     659     660     661     665
     660     661     662     663     664     665     661     662     663     662
     663     664     665     666     663     664     665     664     665     666
     665     666     666     669       0     668     669     670     671     672
     673     674     675     676     677     669     670     671     673     674
     670     671     672     673     674     671     672     673     672     673
       0     674     675     676     677     678     675     676     677     678
     679     680     681     676     677     678     677     678     678     679
     680     681     682     683     700     679     680     681     682     683
     684     700     701     702     706     680     681     682     683     700
     681     682     683     700     682     683     684     685     686     700
     701     702     703     704     706     707     683     684     700     701
     702     706     684     685     686     687     699     700     701     702
     703     704     706     685     686     687     688     689     690     698
     699     700     701     702     703     704     705     706     686     687
     699     700     702     703     704     687     688     689     690     691
     696     698     699     700     702     703     704     688     689     690
     691     698     699     702     689     690     699     690     691     692
     695     698     699     691     692     693     694     695     696     698
     699     692     693     694     695     696     697     698     699     693
     694     695     696     699     694     695     695     696     697     698
     699     697     698     699     698     699     699     702     701     702
     703     704     705     706     707     708     709     710     702     703
     704     706     707     703     704     705     706     707     704     705
     706     705     706       0     707     708     709     710     711     708
     709     710     711     712     713     714     709     710     711     710
     711     711     712     713     714     715     716     730     712     713
     714     715     716     717     730     731     732     736     713     714
     715     716     730     714     715     716     730     715     716     717
     718     719     730     731     732     733     734     736     737     716
     717     730     731     732     736     717     718     719     720     728
     730     731     732     733     734     736     718     719     720     721
     722     726     728     729     730     731     732     733     734     735
     736     719     720     728     730     732     733     734     720     721
     722     723     724     726     727     728     729     730     732     733
     734     721     722     723     724     725     726     728     729     732
     722     723     724     728     723     724     725     726     727     728
     724     725     726     725     726     727     728     729     726     727
     728     727     728     729     728     729     729     732       0     731
     732     733     734     735     736     737     738     739     740     732
     733     734     736     737     733     734     735     736     737     734
     735     736     735     736       0     737     738     739     740     741
     738     739     740     741     742     743     744     739     740     741
     740     741     741     742     743     744     745     746     764     742
     743     744     745     746     747     764     765     766     770     743
     744     745     746     764     744     745     746     764     745     746
     747     748     749     764     765     766     767     768     770     771
     746     747     764     765     766     770     747     748     749     750
     763     764     765     766     767     768     770     748     749     750
     751     752     753     762     763     764     765     766     767     768
     769     770     749     750     763     764     766     767     768     750
     751     752     753     754     758     762     763     764     766     767
     768     751     752     753     754     762     763     766     752     753
     763     753     754     755     756     762     763     754     755     756
     757     758     762     763     755     756     757     758     759     762
     763     756     757     758     763     757     758     759     760     761
     762     763     758     759     762     759     760     761     762     763
     760     761     762     763     761     762     762     763     766     765
     766     767     768     769     770     771     772     773     774     766
     767     768     770     771     767     768     769     770     771     768
     769     770     769     770       0     771     772     773     774     775
     772     773     774     775     776     777     778     773     774     775
     774     775     775     776     777     778     779     780     798     776
     777     778     779     780     781     798     799     800     804     777
     778     779     780     798     778     779     780     798     779     780
     781     782     783     798     799     800     801     802     804     805
     780     781     798     799     800     804     781     782     783     784
     797     798     799     800     801     802     804     782     783     784
     785     786     787     796     797     798     799     800     801     802
     803     804     783     784     797     798     800     801     802     784
     785     786     787     788     792     796     797     798     800     801
     802     785     786     787     788     796     797     800     786     787
     797     787     788     789     790     796     797     788     789     790
     791     792     796     797     789     790     791     792     793     796
     797     790     791     792     797     791     792     793     794     795
     796     797     792     793     796     793     794     795     796     797
     794     795     796     797     795     796     796     797     800     799
     800     801     802     803     804     805     806     807     808     800
     801     802     804     805     801     802     803     804     805     802
     803     804     803     804       0     805     806     807     808     809
     806     807     808     809     810     811     812     807     808     809
     808     809     809     810     811     812     813     814     829     810
     811     812     813     814     815     829     830     831     835     811
     812     813     814     829     812     813     814     829     813     814
     815     816     817     829     830     831     832     833     835     836
     814     815     829     830     831     835     815     816     817     818
     827     829     830     831     832     833     835     816     817     818
     819     820     826     827     828     829     830     831     832     833
     834     835     817     818     827     829     831     832     833     818
     819     820     821     822     826     827     828     829     831     832
     833     819     820     821     822     823     826     827     828     831
     820     821     822     827     821     822     823     824     825     826
     827     822     823     826     823     824     825     826     827     828
     824     825     826     827     825     826     826     827     828     828
     831       0     830     831     832     833     834     835     836     837
     838     839     831     832     833     835     836     832     833     834
     835     836     833     834     835     834     835       0     836     837
     838     839     840     837     838     839     840     841     842     843
     838     839     840     839     840     840     841     842     843     844
     845     862     841     842     843     844     845     846     862     863
     864     868     842     843     844     845     862     843     844     845
     862     844     845     846     847     848     862     863     864     865
     866     868     869     845     846     862     863     864     868     846
     847     848     849     861     862     863     864     865     866     868
     847     848     849     850     851     852     860     861     862     863
     864     865     866     867     868     848     849     861     862     864
     865     866     849     850     851     852     853     858     860     861
     862     864     865     866     850     851     852     853     860     861
     864     851     852     861     852     853     854     857     860     861
     853     854     855     856     857     858     860     861     854     855
     856     857     858     859     860     861     855     856     857     858
     861     856     857     857     858     859     860     861     859     860
     861     860     861     861     864     863     864     865     866     867
     868     869     870     871     872     864     865     866     868     869
     865     866     867     868     869     866     867     868     867     868
       0     869     870     871     872     873     870     871     872     873
     874     875     876     871     872     873     872     873     873     874
     875     876     877     878     893     874     875     876     877     878
     879     893     894     895     899     875     876     877     878     893
     876     877     878     893     877     878     879     880     881     893
     894     895     896     897     899     900     878     879     893     894
     895     899     879     880     881     882     891     893     894     895
     896     897     899     880     881     882     883     884     890     891
     892     893     894     895     896     897     898     899     881     882
     891     893     895     896     897     882     883     884     885     886
     890     891     892     893     895     896     897     883     884     885
     886     887     890     891     892     895     884     885     886     891
     885     886     887     888     889     890     891     886     887     890
     887     888     889     890     891     892     888     889     890     891
     889     890     890     891     892     892     895       0     894     895
     896     897     898     899     900     901     902     903     895     896
     897     899     900     896     897     898     899     900     897     898
     899     898     899       0     900     901     902     903     904     901
     902     903     904     905     906     907     902     903     904     903
     904     904     905     906     907     908     909     927     905     906
     907     908     909     910     927     928     929     933     906     907
     908     909     927     907     908     909     927     908     909     910
     911     912     927     928     929     930     931     933     934     909
     910     927     928     929     933     910     911     912     913     926
     927     928     929     930     931     933     911     912     913     914
     915     916     925     926     927     928     929     930     931     932
     933     912     913     926     927     929     930     931     913     914
     915     916     917     921     925     926     927     929     930     931
     914     915     916     917     925     926     929     915     916     926
     916     917     918     919     925     926     917     918     919     920
     921     925     926     918     919     920     921     922     925     926
     919     920     921     926     920     921     922     923     924     925
     926     921     922     925     922     923     924     925     926     923
     924     925     926     924     925     925     926     929     928     929
     930     931     932     933     934     935     936     937     929     930
     931     933     934     930     931     932     933     934     931     932
     933     932     933       0     934     935     936     937     938     935
     936     937     938     939     940     941     936     937     938     937
     938     938     939     940     941     942     943     958     939     940
     941     942     943     944     958     959     960     964     940     941
     942     943     958     941     942     943     958     942     943     944
     945     946     958     959     960     961     962     964     965     943
     944     958     959     960     964     944     945     946     947     956
     958     959     960     961     962     964     945     946     947     948
     949     955     956     957     958     959     960     961     962     963
     964     946     947     956     958     960     961     962     947     948
     949     950     951     955     956     957     958     960     961     962
     948     949     950     951     952     955     956     957     960     949
     950     951     956     950     951     952     953     954     955     956
     951     952     955     952     953     954     955     956     957     953
     954     955     956     954     955     955     956     957     957     960
       0     959     960     961     962     963     964     965     966     967
     968     960     961     962     964     965     961     962     963     964
     965     962     963     964     963     964       0     965     966     967
     968     969     966     967     968     969     970     971     972     967
     968     969     968     969     969     970     971     972     973     974
     991     970     971     972     973     974     975     991     992     993
     997     971     972     973     974     991     972     973     974     991
     973     974     975     976     977     991     992     993     994     995
     997     998     974     975     991     992     993     997     975     976
     977     978     990     991     992     993     994     995     997     976
     977     978     979     980     981     989     990     991     992     993
     994     995     996     997     977     978     990     991     993     994
     995     978     979     980     981     982     987     989     990     991
     993     994     995     979     980     981     982     989     990     993
     980     981     990     981     982     983     986     989     990     982
     983     984     985     986     987     989     990     983     984     985
     986     987     988     989     990     984     985     986     987     990
     985     986     986     987     988     989     990     988     989     990
     989     990     990     993     992     993     994     995     996     997
     998     999    1000    1001     993     994     995     997     998     994
     995     996     997     998     995     996     997     996     997       0
     998     999    1000    1001    1002     999    1000    1001    1002    1003
    1004    1005    1000    1001    1002    1001    1002    1002    1003    1004
    1005    1006    1007    1024    1003    1004    1005    1006    1007    1008
    1024    1025    1026    1030    1004    1005    1006    1007    1024    1005
    1006    1007    1024    1006    1007    1008    1009    1010    1024    1025
    1026    1027    1028    1030    1031    1007    1008    1024    1025    1026
    1030    1008    1009    1010    1011    1023    1024    1025    1026    1027
    1028    1030    1009    1010    1011    1012    1013    1014    1022    1023
    1024    1025    1026    1027    1028    1029    1030    1010    1011    1023
    1024    1026    1027    1028    1011    1012    1013    1014    1015    1020
    1022    1023    1024    1026    1027    1028    1012    1013    1014    1015
    1022    1023    1026    1013    1014    1023    1014    1015    1016    1019
    1022    1023    1015    1016    1017    1018    1019    1020    1022    1023
    1016    1017    1018    1019    1020    1021    1022    1023    1017    1018
    1019    1020    1023    1018    1019    1019    1020    1021    1022    1023
    1021    1022    1023    1022    1023    1023    1026    1025    1026    1027
    1028    1029    1030    1031    1032    1033    1034    1026    1027    1028
    1030    1031    1027    1028    1029    1030    1031    1028    1029    1030
    1029    1030       0    1031    1032    1033    1034    1035    1032    1033
    1034    1035    1036    1037    1038    1033    1034    1035    1034    1035
    1035    1036    1037    1038    1039    1040    1058    1036    1037    1038
    1039    1040    1041    1058    1059    1060    1064    1037    1038    1039
    1040    1058    1038    1039    1040    1058    1039    1040    1041    1042
    1043    1058    1059    1060    1061    1062    1064    1065    1040    1041
    1058    1059    1060    1064    1041    1042    1043    1044    1057    1058
    1059    1060    1061    1062    1064    1042    1043    1044    1045    1046
    1047    1056    1057    1058    1059    1060    1061    1062    1063    1064
    1043    1044    1057    1058    1060    1061    1062    1044    1045    1046
    1047    1048    1052    1056    1057    1058    1060    1061    1062    1045
    1046    1047    1048    1056    1057    1060    1046    1047    1057    1047
    1048    1049    1050    1056    1057    1048    1049    1050    1051    1052
    1056    1057    1049    1050    1051    1052    1053    1056    1057    1050
    1051    1052    1057    1051    1052    1053    1054    1055    1056    1057
    1052    1053    1056    1053    1054    1055    1056    1057    1054    1055
    1056    1057    1055    1056    1056    1057    1060    1059    1060    1061
    1062    1063    1064    1065    1066    1067    1068    1060    1061    1062
    1064    1065    1061    1062    1063    1064    1065    1062    1063    1064
    1063    1064       0    1065    1066    1067    1068    1069    1066    1067
    1068    1069    1070    1071    1072    1067    1068    1069    1068    1069
    1069    1070    1071    1072    1073    1074    1088    1070    1071    1072
    1073    1074    1075    1088    1089    1090    1094    1071    1072    1073
    1074    1088    1072    1073    1074    1088    1073    1074    1075    1076
    1077    1088    1089    1090    1091    1092    1094    1095    1074    1075
    1088    1089    1090    1094    1075    1076    1077    1078    1086    1088
    1089    1090    1091    1092    1094    1076    1077    1078    1079    1080
    1084    1086    1087    1088    1089    1090    1091    1092    1093    1094
    1077    1078    1086    1088    1090    1091    1092    1078    1079    1080
    1081    1082    1084    1085    1086    1087    1088    1090    1091    1092
    1079    1080    1081    1082    1083    1084    1086    1087    1090    1080
    1081    1082    1086    1081    1082    1083    1084    1085    1086    1082
    1083    1084    1083    1084    1085    1086    1087    1084    1085    1086
    1085    1086    1087    1086    1087    1087    1090       0    1089    1090
    1091    1092    1093    1094    1095    1096    1097    1098    1090    1091
    1092    1094    1095    1091    1092    1093    1094    1095    1092    1093
    1094    1093    1094       0    1095    1096    1097    1098    1099    1096
    1097    1098    1099    1100    1101    1102    1097    1098    1099    1098
    1099    1099    1100    1101    1102    1103    1104    1118    1100    1101
    1102    1103    1104    1105    1118    1119    1120    1124    1101    1102
    1103    1104    1118    1102    1103    1104    1118    1103    1104    1105
    1106    1107    1118    1119    1120    1121    1122    1124    1125    1104
    1105    1118    1119    1120    1124    1105    1106    1107    1108    1116
    1118    1119    1120    1121    1122    1124    1106    1107    1108    1109
    1110    1114    1116    1117    1118    1119    1120    1121    1122    1123
    1124    1107    1108    1116    1118    1120    1121    1122    1108    1109
    1110    1111    1112    1114    1115    1116    1117    1118    1120    1121
    1122    1109    1110    1111    1112    1113    1114    1116    1117    1120
    1110    1111    1112    1116    1111    1112    1113    1114    1115    1116
    1112    1113    1114    1113    1114    1115    1116    1117    1114    1115
    1116    1115    1116    1117    1116    1117    1117    1120       0    1119
    1120    1121    1122    1123    1124    1125    1126    1127    1128    1120
    1121    1122    1124    1125    1121    1122    1123    1124    1125    1122
    1123    1124    1123    1124       0    1125    1126    1127    1128    1129
    1126    1127    1128    1129    1130    1131    1132    1127    1128    1129
    1128    1129    1129    1130    1131    1132    1133    1134    1148    1130
    1131    1132    1133    1134    1135    1148    1149    1150    1154    1131
    1132    1133    1134    1148    1132    1133    1134    1148    1133    1134
    1135    1136    1137    1148    1149    1150    1151    1152    1154    1155
    1134    1135    1148    1149    1150    1154    1135    1136    1137    1138
    1146    1148    1149    1150    1151    1152    1154    1136    1137    1138
    1139    1140    1144    1146    1147    1148    1149    1150    1151    1152
    1153    1154    1137    1138    1146    1148    1150    1151    1152    1138
    1139    1140    1141    1142    1144    1145    1146    1147    1148    1150
    1151    1152    1139    1140    1141    1142    1143    1144    1146    1147
    1150    1140    1141    1142    1146    1141    1142    1143    1144    1145
    1146    1142    1143    1144    1143    1144    1145    1146    1147    1144
    1145    1146    1145    1146    1147    1146    1147    1147    1150       0
    1149    1150    1151    1152    1153    1154    1155    1156    1157    1158
    1150    1151    1152    1154    1155    1151    1152    1153    1154    1155
    1152    1153    1154    1153    1154       0    1155    1156    1157    1158
    1159    1156    1157    1158    1159    1160    1161    1162    1157    1158
    1159    1158    1159    1159    1160    1161    1162    1163    1164    1179
    1160    1161    1162    1163    1164    1165    1179    1180    1181    1185
    1161    1162    1163    1164    1179    1162    1163    1164    1179    1163
    1164    1165    1166    1167    1179    1180    1181    1182    1183    1185
    1186    1164    1165    1179    1180    1181    1185    1165    1166    1167
    1168    1177    1179    1180    1181    1182    1183    1185    1166    1167
    1168    1169    1170    1176    1177    1178    1179    1180    1181    1182
    1183    1184    1185    1167    1168    1177    1179    1181    1182    1183
    1168    1169    1170    1171    1172    1176    1177    1178    1179    1181
    1182    1183    1169    1170    1171    1172    1173    1176    1177    1178
    1181    1170    1171    1172    1177    1171    1172    1173    1174    1175
    1176    1177    1172    1173    1176    1173    1174    1175    1176    1177
    1178    1174    1175    1176    1177    1175    1176    1176    1177    1178
    1178    1181       0    1180    1181    1182    1183    1184    1185    1186
    1187    1188    1189    1181    1182    1183    1185    1186    1182    1183
    1184    1185    1186    1183    1184    1185    1184    1185       0    1186
    1187    1188    1189    1190    1187    1188    1189    1190    1191    1192
    1193    1188    1189    1190    1189    1190    1190    1191    1192    1193
    1194    1195    1209    1191    1192    1193    1194    1195    1196    1209
    1210    1211    1215    1192    1193    1194    1195    1209    1193    1194
    1195    1209    1194    1195    1196    1197    1198    1209    1210    1211
    1212    1213    1215    1216    1195    1196    1209    1210    1211    1215
    1196    1197    1198    1199    1207    1209    1210    1211    1212    1213
    1215    1197    1198    1199    1200    1201    1205    1207    1208    1209
    1210    1211    1212    1213    1214    1215    1198    1199    1207    1209
    1211    1212    1213    1199    1200    1201    1202    1203    1205    1206
    1207    1208    1209    1211    1212    1213    1200    1201    1202    1203
    1204    1205    1207    1208    1211    1201    1202    1203    1207    1202
    1203    1204    1205    1206    1207    1203    1204    1205    1204    1205
    1206    1207    1208    1205    1206    1207    1206    1207    1208    1207
    1208    1208    1211       0    1210    1211    1212    1213    1214    1215
    1216    1217    1218    1219    1211    1212    1213    1215    1216    1212
    1213    1214    1215    1216    1213    1214    1215    1214    1215       0
    1216    1217    1218    1219    1220    1217    1218    1219    1220    1221
    1222    1223    1218    1219    1220    1219    1220    1220    1221    1222
    1223    1224    1225    1242    1221    1222    1223    1224    1225    1226
    1242    1243    1244    1248    1222    1223    1224    1225    1242    1223
    1224    1225    1242    1224    1225    1226    1227    1228    1242    1243
    1244    1245    1246    1248    1249    1225    1226    1242    1243    1244
    1248    1226    1227    1228    1229    1241    1242    1243    1244    1245
    1246    1248    1227    1228    1229    1230    1231    1232    1240    1241
    1242    1243    1244    1245    1246    1247    1248    1228    1229    1241
    1242    1244    1245    1246    1229    1230    1231    1232    1233    1238
    1240    1241    1242    1244    1245    1246    1230    1231    1232    1233
    1240    1241    1244    1231    1232    1241    1232    1233    1234    1237
    1240    1241    1233    1234    1235    1236    1237    1238    1240    1241
    1234    1235    1236    1237    1238    1239    1240    1241    1235    1236
    1237    1238    1241    1236    1237    1237    1238    1239    1240    1241
    1239    1240    1241    1240    1241    1241    1244    1243    1244    1245
    1246    1247    1248    1249    1250    1251    1252    1244    1245    1246
    1248    1249    1245    1246    1247    1248    1249    1246    1247    1248
    1247    1248       0    1249    1250    1251    1252    1253    1250    1251
    1252    1253    1254    1255    1256    1251    1252    1253    1252    1253
    1253    1254    1255    1256    1257    1258    1273    1254    1255    1256
    1257    1258    1259    1273    1274    1275    1279    1255    1256    1257
    1258    1273    1256    1257    1258    1273    1257    1258    1259    1260
    1261    1273    1274    1275    1276    1277    1279    1280    1258    1259
    1273    1274    1275    1279    1259    1260    1261    1262    1271    1273
    1274    1275    1276    1277    1279    1260    1261    1262    1263    1264
    1270    1271    1272    1273    1274    1275    1276    1277    1278    1279
    1261    1262    1271    1273    1275    1276    1277    1262    1263    1264
    1265    1266    1270    1271    1272    1273    1275    1276    1277    1263
    1264    1265    1266    1267    1270    1271    1272    1275    1264    1265
    1266    1271    1265    1266    1267    1268    1269    1270    1271    1266
    1267    1270    1267    1268    1269    1270    1271    1272    1268    1269
    1270    1271    1269    1270    1270    1271    1272    1272    1275       0
    1274    1275    1276    1277    1278    1279    1280    1281    1282    1283
    1275    1276    1277    1279    1280    1276    1277    1278    1279    1280
    1277    1278    1279    1278    1279       0    1280    1281    1282    1283
    1284    1281    1282    1283    1284    1285    1286    1287    1282    1283
    1284    1283    1284    1284    1285    1286    1287    1288    1289    1304
    1285    1286    1287    1288    1289    1290    1304    1305    1306    1310
    1286    1287    1288    1289    1304    1287    1288    1289    1304    1288
    1289    1290    1291    1292    1304    1305    1306    1307    1308    1310
    1311    1289    1290    1304    1305    1306    1310    1290    1291    1292
    1293    1302    1304    1305    1306    1307    1308    1310    1291    1292
    1293    1294    1295    1301    1302    1303    1304    1305    1306    1307
    1308    1309    1310    1292    1293    1302    1304    1306    1307    1308
    1293    1294    1295    1296    1297    1301    1302    1303    1304    1306
    1307    1308    1294    1295    1296    1297    1298    1301    1302    1303
    1306    1295    1296    1297    1302    1296    1297    1298    1299    1300
    1301    1302    1297    1298    1301    1298    1299    1300    1301    1302
    1303    1299    1300    1301    1302    1300    1301    1301    1302    1303
    1303    1306       0    1305    1306    1307    1308    1309    1310    1311
    1312    1313    1314    1306    1307    1308    1310    1311    1307    1308
    1309    1310    1311    1308    1309    1310    1309    1310       0    1311
    1312    1313    1314    1315    1312    1313    1314    1315    1316    1317
    1318    1313    1314    1315    1314    1315    1315    1316    1317    1318
    1319    1320    1338    1316    1317    1318    1319    1320    1321    1338
    1339    1340    1344    1317    1318    1319    1320    1338    1318    1319
    1320    1338    1319    1320    1321    1322    1323    1338    1339    1340
    1341    1342    1344    1345    1320    1321    1338    1339    1340    1344
    1321    1322    1323    1324    1337    1338    1339    1340    1341    1342
    1344    1322    1323    1324    1325    1326    1327    1336    1337    1338
    1339    1340    1341    1342    1343    1344    1323    1324    1337    1338
    1340    1341    1342    1324    1325    1326    1327    1328    1332    1336
    1337    1338    1340    1341    1342    1325    1326    1327    1328    1336
    1337    1340    1326    1327    1337    1327    1328    1329    1330    1336
    1337    1328    1329    1330    1331    1332    1336    1337    1329    1330
    1331    1332    1333    1336    1337    1330    1331    1332    1337    1331
    1332    1333    1334    1335    1336    1337    1332    1333    1336    1333
    1334    1335    1336    1337    1334    1335    1336    1337    1335    1336
    1336    1337    1340    1339    1340    1341    1342    1343    1344    1345
    1346    1347    1348    1340    1341    1342    1344    1345    1341    1342
    1343    1344    1345    1342    1343    1344    1343    1344       0    1345
    1346    1347    1348    1349    1346    1347    1348    1349    1350    1351
    1352    1347    1348    1349    1348    1349    1349    1350    1351    1352
    1353    1354    1372    1350    1351    1352    1353    1354    1355    1372
    1373    1374    1378    1351    1352    1353    1354    1372    1352    1353
    1354    1372    1353    1354    1355    1356    1357    1372    1373    1374
    1375    1376    1378    1379    1354    1355    1372    1373    1374    1378
    1355    1356    1357    1358    1371    1372    1373    1374    1375    1376
    1378    1356    1357    1358    1359    1360    1361    1370    1371    1372
    1373    1374    1375    1376    1377    1378    1357    1358    1371    1372
    1374    1375    1376    1358    1359    1360    1361    1362    1366    1370
    1371    1372    1374    1375    1376    1359    1360    1361    1362    1370
    1371    1374    1360    1361    1371    1361    1362    1363    1364    1370
    1371    1362    1363    1364    1365    1366    1370    1371    1363    1364
    1365    1366    1367    1370    1371    1364    1365    1366    1371    1365
    1366    1367    1368    1369    1370    1371    1366    1367    1370    1367
    1368    1369    1370    1371    1368    1369    1370    1371    1369    1370
    1370    1371    1374    1373    1374    1375    1376    1377    1378    1379
    1380    1381    1382    1374    1375    1376    1378    1379    1375    1376
    1377    1378    1379    1376    1377    1378    1377    1378       0    1379
    1380    1381    1382    1383    1380    1381    1382    1383    1384    1385
    1386    1381    1382    1383    1382    1383    1383    1384    1385    1386
    1387    1388    1406    1384    1385    1386    1387    1388    1389    1406
    1407    1408    1412    1385    1386    1387    1388    1406    1386    1387
    1388    1406    1387    1388    1389    1390    1391    1406    1407    1408
    1409    1410    1412    1413    1388    1389    1406    1407    1408    1412
    1389    1390    1391    1392    1405    1406    1407    1408    1409    1410
    1412    1390    1391    1392    1393    1394    1395    1404    1405    1406
    1407    1408    1409    1410    1411    1412    1391    1392    1405    1406
    1408    1409    1410    1392    1393    1394    1395    1396    1400    1404
    1405    1406    1408    1409    1410    1393    1394    1395    1396    1404
    1405    1408    1394    1395    1405    1395    1396    1397    1398    1404
    1405    1396    1397    1398    1399    1400    1404    1405    1397    1398
    1399    1400    1401    1404    1405    1398    1399    1400    1405    1399
    1400    1401    1402    1403    1404    1405    1400    1401    1404    1401
    1402    1403    1404    1405    1402    1403    1404    1405    1403    1404
    1404    1405    1408    1407    1408    1409    1410    1411    1412    1413
    1414    1415    1416    1408    1409    1410    1412    1413    1409    1410
    1411    1412    1413    1410    1411    1412    1411    1412       0    1413
    1414    1415    1416    1417    1414    1415    1416    1417    1418    1419
    1420    1415    1416    1417    1416    1417    1417    1418    1419    1420
    1421    1422    1437    1418    1419    1420    1421    1422    1423    1437
    1438    1439    1443    1419    1420    1421    1422    1437    1420    1421
    1422    1437    1421    1422    1423    1424    1425    1437    1438    1439
    1440    1441    1443    1444    1422    1423    1437    1438    1439    1443
    1423    1424    1425    1426    1435    1437    1438    1439    1440    1441
    1443    1424    1425    1426    1427    1428    1434    1435    1436    1437
    1438    1439    1440    1441    1442    1443    1425    1426    1435    1437
    1439    1440    1441    1426    1427    1428    1429    1430    1434    1435
    1436    1437    1439    1440    1441    1427    1428    1429    1430    1431
    1434    1435    1436    1439    1428    1429    1430    1435    1429    1430
    1431    1432    1433    1434    1435    1430    1431    1434    1431    1432
    1433    1434    1435    1436    1432    1433    1434    1435    1433    1434
    1434    1435    1436    1436    1439       0    1438    1439    1440    1441
    1442    1443    1444    1445    1446    1447    1439    1440    1441    1443
    1444    1440    1441    1442    1443    1444    1441    1442    1443    1442
    1443       0    1444    1445    1446    1447    1448    1445    1446    1447
    1448    1449    1450    1451    1446    1447    1448    1447    1448    1448
    1449    1450    1451    1452    1453    1470    1449    1450    1451    1452
    1453    1454    1470    1471    1472    1476    1450    1451    1452    1453
    1470    1451    1452    1453    1470    1452    1453    1454    1455    1456
    1470    1471    1472    1473    1474    1476    1477    1453    1454    1470
    1471    1472    1476    1454    1455    1456    1457    1469    1470    1471
    1472    1473    1474    1476    1455    1456    1457    1458    1459    1460
    1468    1469    1470    1471    1472    1473    1474    1475    1476    1456
    1457    1469    1470    1472    1473    1474    1457    1458    1459    1460
    1461    1466    1468    1469    1470    1472    1473    1474    1458    1459
    1460    1461    1468    1469    1472    1459    1460    1469    1460    1461
    1462    1465    1468    1469    1461    1462    1463    1464    1465    1466
    1468    1469    1462    1463    1464    1465    1466    1467    1468    1469
    1463    1464    1465    1466    1469    1464    1465    1465    1466    1467
    1468    1469    1467    1468    1469    1468    1469    1469    1472    1471
    1472    1473    1474    1475    1476    1477    1478    1479    1480    1472
    1473    1474    1476    1477    1473    1474    1475    1476    1477    1474
    1475    1476    1475    1476       0    1477    1478    1479    1480    1481
    1478    1479    1480    1481    1482    1483    1484    1479    1480    1481
    1480    1481    1481    1482    1483    1484    1485    1486    1501    1482
    1483    1484    1485    1486    1487    1501    1502    1503    1507    1483
    1484    1485    1486    1501    1484    1485    1486    1501    1485    1486
    1487    1488    1489    1501    1502    1503    1504    1505    1507    1508
    1486    1487    1501    1502    1503    1507    1487    1488    1489    1490
    1499    1501    1502    1503    1504    1505    1507    1488    1489    1490
    1491    1492    1498    1499    1500    1501    1502    1503    1504    1505
    1506    1507    1489    1490    1499    1501    1503    1504    1505    1490
    1491    1492    1493    1494    1498    1499    1500    1501    1503    1504
    1505    1491    1492    1493    1494    1495    1498    1499    1500    1503
    1492    1493    1494    1499    1493    1494    1495    1496    1497    1498
    1499    1494    1495    1498    1495    1496    1497    1498    1499    1500
    1496    1497    1498    1499    1497    1498    1498    1499    1500    1500
    1503       0    1502    1503    1504    1505    1506    1507    1508    1509
    1510    1511    1503    1504    1505    1507    1508    1504    1505    1506
    1507    1508    1505    1506    1507    1506    1507       0    1508    1509
    1510    1511    1512    1509    1510    1511    1512    1513    1514    1515
    1510    1511    1512    1511    1512    1512    1513    1514    1515    1516
    1517    1532    1513    1514    1515    1516    1517    1518    1532    1533
    1534    1538    1514    1515    1516    1517    1532    1515    1516    1517
    1532    1516    1517    1518    1519    1520    1532    1533    1534    1535
    1536    1538    1539    1517    1518    1532    1533    1534    1538    1518
    1519    1520    1521    1530    1532    1533    1534    1535    1536    1538
    1519    1520    1521    1522    1523    1529    1530    1531    1532    1533
    1534    1535    1536    1537    1538    1520    1521    1530    1532    1534
    1535    1536    1521    1522    1523    1524    1525    1529    1530    1531
    1532    1534    1535    1536    1522    1523    1524    1525    1526    1529
    1530    1531    1534    1523    1524    1525    1530    1524    1525    1526
    1527    1528    1529    1530    1525    1526    1529    1526    1527    1528
    1529    1530    1531    1527    1528    1529    1530    1528    1529    1529
    1530    1531    1531    1534       0    1533    1534    1535    1536    1537
    1538    1539    1540    1541    1542    1534    1535    1536    1538    1539
    1535    1536    1537    1538    1539    1536    1537    1538    1537    1538
       0    1539    1540    1541    1542    1543    1540    1541    1542    1543
    1544    1545    1546    1541    1542    1543    1542    1543    1543    1544
    1545    1546    1547    1548    1566    1544    1545    1546    1547    1548
    1549    1566    1567    1568    1572    1545    1546    1547    1548    1566
    1546    1547    1548    1566    1547    1548    1549    1550    1551    1566
    1567    1568    1569    1570    1572    1573    1548    1549    1566    1567
    1568    1572    1549    1550    1551    1552    1565    1566    1567    1568
    1569    1570    1572    1550    1551    1552    1553    1554    1555    1564
    1565    1566    1567    1568    1569    1570    1571    1572    1551    1552
    1565    1566    1568    1569    1570    1552    1553    1554    1555    1556
    1560    1564    1565    1566    1568    1569    1570    1553    1554    1555
    1556    1564    1565    1568    1554    1555    1565    1555    1556    1557
    1558    1564    1565    1556    1557    1558    1559    1560    1564    1565
    1557    1558    1559    1560    1561    1564    1565    1558    1559    1560
    1565    1559    1560    1561    1562    1563    1564    1565    1560    1561
    1564    1561    1562    1563    1564    1565    1562    1563    1564    1565
    1563    1564    1564    1565    1568    1567    1568    1569    1570    1571
    1572    1573    1574    1575    1576    1568    1569    1570    1572    1573
    1569    1570    1571    1572    1573    1570    1571    1572    1571    1572
       0    1573    1574    1575    1576    1577    1574    1575    1576    1577
    1578    1579    1580    1575    1576    1577    1576    1577    1577    1578
    1579    1580    1581    1582    1596    1578    1579    1580    1581    1582
    1583    1596    1597    1598    1602    1579    1580    1581    1582    1596
    1580    1581    1582    1596    1581    1582    1583    1584    1585    1596
    1597    1598    1599    1600    1602    1603    1582    1583    1596    1597
    1598    1602    1583    1584    1585    1586    1594    1596    1597    1598
    1599    1600    1602    1584    1585    1586    1587    1588    1592    1594
    1595    1596    1597    1598    1599    1600    1601    1602    1585    1586
    1594    1596    1598    1599    1600    1586    1587    1588    1589    1590
    1592    1593    1594    1595    1596    1598    1599    1600    1587    1588
    1589    1590    1591    1592    1594    1595    1598    1588    1589    1590
    1594    1589    1590    1591    1592    1593    1594    1590    1591    1592
    1591    1592    1593    1594    1595    1592    1593    1594    1593    1594
    1595    1594    1595    1595    1598       0    1597    1598    1599    1600
    1601    1602    1603    1604    1605    1606    1598    1599    1600    1602
    1603    1599    1600    1601    1602    1603    1600    1601    1602    1601
    1602       0    1603    1604    1605    1606    1607    1604    1605    1606
    1607    1608    1609    1610    1605    1606    1607    1606    1607    1607
    1608    1609    1610    1611    1612    1629    1608    1609    1610    1611
    1612    1613    1629    1630    1631    1635    1609    1610    1611    1612
    1629    1610    1611    1612    1629    1611    1612    1613    1614    1615
    1629    1630    1631    1632    1633    1635    1636    1612    1613    1629
    1630    1631    1635    1613    1614    1615    1616    1628    1629    1630
    1631    1632    1633    1635    1614    1615    1616    1617    1618    1619
    1627    1628    1629    1630    1631    1632    1633    1634    1635    1615
    1616    1628    1629    1631    1632    1633    1616    1617    1618    1619
    1620    1625    1627    1628    1629    1631    1632    1633    1617    1618
    1619    1620    1627    1628    1631    1618    1619    1628    1619    1620
    1621    1624    1627    1628    1620    1621    1622    1623    1624    1625
    1627    1628    1621    1622    1623    1624    1625    1626    1627    1628
    1622    1623    1624    1625    1628    1623    1624    1624    1625    1626
    1627    1628    1626    1627    1628    1627    1628    1628    1631    1630
    1631    1632    1633    1634    1635    1636    1637    1638    1639    1631
    1632    1633    1635    1636    1632    1633    1634    1635    1636    1633
    1634    1635    1634    1635       0    1636    1637    1638    1639    1640
    1637    1638    1639    1640    1641    1642    1643    1638    1639    1640
    1639    1640    1640    1641    1642    1643    1644    1645    1662    1641
    1642    1643    1644    1645    1646    1662    1663    1664    1668    1642
    1643    1644    1645    1662    1643    1644    1645    1662    1644    1645
    1646    1647    1648    1662    1663    1664    1665    1666    1668    1669
    1645    1646    1662    1663    1664    1668    1646    1647    1648    1649
    1661    1662    1663    1664    1665    1666    1668    1647    1648    1649
    1650    1651    1652    1660    1661    1662    1663    1664    1665    1666
    1667    1668    1648    1649    1661    1662    1664    1665    1666    1649
    1650    1651    1652    1653    1658    1660    1661    1662    1664    1665
    1666    1650    1651    1652    1653    1660    1661    1664    1651    1652
    1661    1652    1653    1654    1657    1660    1661    1653    1654    1655
    1656    1657    1658    1660    1661    1654    1655    1656    1657    1658
    1659    1660    1661    1655    1656    1657    1658    1661    1656    1657
    1657    1658    1659    1660    1661    1659    1660    1661    1660    1661
    1661    1664    1663    1664    1665    1666    1667    1668    1669    1670
    1671    1672    1664    1665    1666    1668    1669    1665    1666    1667
    1668    1669    1666    1667    1668    1667    1668       0    1669    1670
    1671    1672    1673    1670    1671    1672    1673    1674    1675    1676
    1671    1672    1673    1672    1673    1673    1674    1675    1676    1677
    1678    1695    1674    1675    1676    1677    1678    1679    1695    1696
    1697    1701    1675    1676    1677    1678    1695    1676    1677    1678
    1695    1677    1678    1679    1680    1681    1695    1696    1697    1698
    1699    1701    1702    1678    1679    1695    1696    1697    1701    1679
    1680    1681    1682    1694    1695    1696    1697    1698    1699    1701
    1680    1681    1682    1683    1684    1685    1693    1694    1695    1696
    1697    1698    1699    1700    1701    1681    1682    1694    1695    1697
    1698    1699    1682    1683    1684    1685    1686    1691    1693    1694
    1695    1697    1698    1699    1683    1684    1685    1686    1693    1694
    1697    1684    1685    1694    1685    1686    1687    1690    1693    1694
    1686    1687    1688    1689    1690    1691    1693    1694    1687    1688
    1689    1690    1691    1692    1693    1694    1688    1689    1690    1691
    1694    1689    1690    1690    1691    1692    1693    1694    1692    1693
    1694    1693    1694    1694    1697    1696    1697    1698    1699    1700
    1701    1702    1703    1704    1705    1697    1698    1699    1701    1702
    1698    1699    1700    1701    1702    1699    1700    1701    1700    1701
       0    1702    1703    1704    1705    1706    1703    1704    1705    1706
    1707    1708    1709    1704    1705    1706    1705    1706    1706    1707
    1708    1709    1710    1711    1725    1707    1708    1709    1710    1711
    1712    1725    1726    1727    1731    1708    1709    1710    1711    1725
    1709    1710    1711    1725    1710    1711    1712    1713    1714    1725
    1726    1727    1728    1729    1731    1732    1711    1712    1725    1726
    1727    1731    1712    1713    1714    1715    1723    1725    1726    1727
    1728    1729    1731    1713    1714    1715    1716    1717    1721    1723
    1724    1725    1726    1727    1728    1729    1730    1731    1714    1715
    1723    1725    1727    1728    1729    1715    1716    1717    1718    1719
    1721    1722    1723    1724    1725    1727    1728    1729    1716    1717
    1718    1719    1720    1721    1723    1724    1727    1717    1718    1719
    1723    1718    1719    1720    1721    1722    1723    1719    1720    1721
    1720    1721    1722    1723    1724    1721    1722    1723    1722    1723
    1724    1723    1724    1724    1727       0    1726    1727    1728    1729
    1730    1731    1732    1733    1734    1735    1727    1728    1729    1731
    1732    1728    1729    1730    1731    1732    1729    1730    1731    1730
    1731       0    1732    1733    1734    1735    1736    1733    1734    1735
    1736    1737    1738    1739    1734    1735    1736    1735    1736    1736
    1737    1738    1739    1740    1741    1759    1737    1738    1739    1740
    1741    1742    1759    1760    1761    1765    1738    1739    1740    1741
    1759    1739    1740    1741    1759    1740    1741    1742    1743    1744
    1759    1760    1761    1762    1763    1765    1766    1741    1742    1759
    1760    1761    1765    1742    1743    1744    1745    1758    1759    1760
    1761    1762    1763    1765    1743    1744    1745    1746    1747    1748
    1757    1758    1759    1760    1761    1762    1763    1764    1765    1744
    1745    1758    1759    1761    1762    1763    1745    1746    1747    1748
    1749    1753    1757    1758    1759    1761    1762    1763    1746    1747
    1748    1749    1757    1758    1761    1747    1748    1758    1748    1749
    1750    1751    1757    1758    1749    1750    1751    1752    1753    1757
    1758    1750    1751    1752    1753    1754    1757    1758    1751    1752
    1753    1758    1752    1753    1754    1755    1756    1757    1758    1753
    1754    1757    1754    1755    1756    1757    1758    1755    1756    1757
    1758    1756    1757    1757    1758    1761    1760    1761    1762    1763
    1764    1765    1766    1767    1768    1769    1761    1762    1763    1765
    1766    1762    1763    1764    1765    1766    1763    1764    1765    1764
    1765       0    1766    1767    1768    1769    1770    1767    1768    1769
    1770    1771    1772    1773    1768    1769    1770    1769    1770    1770
    1771    1772    1773    1774    1775    1789    1771    1772    1773    1774
    1775    1776    1789    1790    1791    1795    1772    1773    1774    1775
    1789    1773    1774    1775    1789    1774    1775    1776    1777    1778
    1789    1790    1791    1792    1793    1795    1796    1775    1776    1789
    1790    1791    1795    1776    1777    1778    1779    1787    1789    1790
    1791    1792    1793    1795    1777    1778    1779    1780    1781    1785
    1787    1788    1789    1790    1791    1792    1793    1794    1795    1778
    1779    1787    1789    1791    1792    1793    1779    1780    1781    1782
    1783    1785    1786    1787    1788    1789    1791    1792    1793    1780
    1781    1782    1783    1784    1785    1787    1788    1791    1781    1782
    1783    1787    1782    1783    1784    1785    1786    1787    1783    1784
    1785    1784    1785    1786    1787    1788    1785    1786    1787    1786
    1787    1788    1787    1788    1788    1791       0    1790    1791    1792
    1793    1794    1795    1796    1797    1798    1799    1791    1792    1793
    1795    1796    1792    1793    1794    1795    1796    1793    1794    1795
    1794    1795       0    1796    1797    1798    1799    1800    1797    1798
    1799    1800    1801    1802    1803    1798    1799    1800    1799    1800
    1800    1801    1802    1803    1804    1805    1820    1801    1802    1803
    1804    1805    1806    1820    1821    1822    1826    1802    1803    1804
    1805    1820    1803    1804    1805    1820    1804    1805    1806    1807
    1808    1820    1821    1822    1823    1824    1826    1827    1805    1806
    1820    1821    1822    1826    1806    1807    1808    1809    1818    1820
    1821    1822    1823    1824    1826    1807    1808    1809    1810    1811
    1817    1818    1819    1820    1821    1822    1823    1824    1825    1826
    1808    1809    1818    1820    1822    1823    1824    1809    1810    1811
    1812    1813    1817    1818    1819    1820    1822    1823    1824    1810
    1811    1812    1813    1814    1817    1818    1819    1822    1811    1812
    1813    1818    1812    1813    1814    1815    1816    1817    1818    1813
    1814    1817    1814    1815    1816    1817    1818    1819    1815    1816
    1817    1818    1816    1817    1817    1818    1819    1819    1822       0
    1821    1822    1823    1824    1825    1826    1827    1828    1829    1830
    1822    1823    1824    1826    1827    1823    1824    1825    1826    1827
    1824    1825    1826    1825    1826       0    1827    1828    1829    1830
    1831    1828    1829    1830    1831    1832    1833    1834    1829    1830
    1831    1830    1831    1831    1832    1833    1834    1835    1836    1851
    1832    1833    1834    1835    1836    1837    1851    1852    1853    1857
    1833    1834    1835    1836    1851    1834    1835    1836    1851    1835
    1836    1837    1838    1839    1851    1852    1853    1854    1855    1857
    1858    1836    1837    1851    1852    1853    1857    1837    1838    1839
    1840    1849    1851    1852    1853    1854    1855    1857    1838    1839
    1840    1841    1842    1848    1849    1850    1851    1852    1853    1854
    1855    1856    1857    1839    1840    1849    1851    1853    1854    1855
    1840    1841    1842    1843    1844    1848    1849    1850    1851    1853
    1854    1855    1841    1842    1843    1844    1845    1848    1849    1850
    1853    1842    1843    1844    1849    1843    1844    1845    1846    1847
    1848    1849    1844    1845    1848    1845    1846    1847    1848    1849
    1850    1846    1847    1848    1849    1847    1848    1848    1849    1850
    1850    1853       0    1852    1853    1854    1855    1856    1857    1858
    1859    1860    1861    1853    1854    1855    1857    1858    1854    1855
    1856    1857    1858    1855    1856    1857    1856    1857       0    1858
    1859    1860    1861    1862    1859    1860    1861    1862    1863    1864
    1865    1860    1861    1862    1861    1862    1862    1863    1864    1865
    1866    1867    1885    1863    1864    1865    1866    1867    1868    1885
    1886    1887    1891    1864    1865    1866    1867    1885    1865    1866
    1867    1885    1866    1867    1868    1869    1870    1885    1886    1887
    1888    1889    1891    1892    1867    1868    1885    1886    1887    1891
    1868    1869    1870    1871    1884    1885    1886    1887    1888    1889
    1891    1869    1870    1871    1872    1873    1874    1883    1884    1885
    1886    1887    1888    1889    1890    1891    1870    1871    1884    1885
    1887    1888    1889    1871    1872    1873    1874    1875    1879    1883
    1884    1885    1887    1888    1889    1872    1873    1874    1875    1883
    1884    1887    1873    1874    1884    1874    1875    1876    1877    1883
    1884    1875    1876    1877    1878    1879    1883    1884    1876    1877
    1878    1879    1880    1883    1884    1877    1878    1879    1884    1878
    1879    1880    1881    1882    1883    1884    1879    1880    1883    1880
    1881    1882    1883    1884    1881    1882    1883    1884    1882    1883
    1883    1884    1887    1886    1887    1888    1889    1890    1891    1892
    1893    1894    1895    1887    1888    1889    1891    1892    1888    1889
    1890    1891    1892    1889    1890    1891    1890    1891       0    1892
    1893    1894    1895    1896    1893    1894    1895    1896    1897    1898
    1899    1894    1895    1896    1895    1896    1896    1897    1898    1899
    1900    1901    1918    1897    1898    1899    1900    1901    1902    1918
    1919    1920    1924    1898    1899    1900    1901    1918    1899    1900
    1901    1918    1900    1901    1902    1903    1904    1918    1919    1920
    1921    1922    1924    1925    1901    1902    1918    1919    1920    1924
    1902    1903    1904    1905    1917    1918    1919    1920    1921    1922
    1924    1903    1904    1905    1906    1907    1908    1916    1917    1918
    1919    1920    1921    1922    1923    1924    1904    1905    1917    1918
    1920    1921    1922    1905    1906    1907    1908    1909    1914    1916
    1917    1918    1920    1921    1922    1906    1907    1908    1909    1916
    1917    1920    1907    1908    1917    1908    1909    1910    1913    1916
    1917    1909    1910    1911    1912    1913    1914    1916    1917    1910
    1911    1912    1913    1914    1915    1916    1917    1911    1912    1913
    1914    1917    1912    1913    1913    1914    1915    1916    1917    1915
    1916    1917    1916    1917    1917    1920    1919    1920    1921    1922
    1923    1924    1925    1926    1927    1928    1920    1921    1922    1924
    1925    1921    1922    1923    1924    1925    1922    1923    1924    1923
    1924       0    1925    1926    1927    1928    1929    1926    1927    1928
    1929    1930    1931    1932    1927    1928    1929    1928    1929    1929
    1930    1931    1932    1933    1934    1949    1930    1931    1932    1933
    1934    1935    1949    1950    1951    1955    1931    1932    1933    1934
    1949    1932    1933    1934    1949    1933    1934    1935    1936    1937
    1949    1950    1951    1952    1953    1955    1956    1934    1935    1949
    1950    1951    1955    1935    1936    1937    1938    1947    1949    1950
    1951    1952    1953    1955    1936    1937    1938    1939    1940    1946
    1947    1948    1949    1950    1951    1952    1953    1954    1955    1937
    1938    1947    1949    1951    1952    1953    1938    1939    1940    1941
    1942    1946    1947    1948    1949    1951    1952    1953    1939    1940
    1941    1942    1943    1946    1947    1948    1951    1940    1941    1942
    1947    1941    1942    1943    1944    1945    1946    1947    1942    1943
    1946    1943    1944    1945    1946    1947    1948    1944    1945    1946
    1947    1945    1946    1946    1947    1948    1948    1951       0    1950
    1951    1952    1953    1954    1955    1956    1957    1958    1959    1951
    1952    1953    1955    1956    1952    1953    1954    1955    1956    1953
    1954    1955    1954    1955       0    1956    1957    1958    1959    1960
    1957    1958    1959    1960    1961    1962    1963    1958    1959    1960
    1959    1960    1960    1961    1962    1963    1964    1965    1979    1961
    1962    1963    1964    1965    1966    1979    1980    1981    1985    1962
    1963    1964    1965    1979    1963    1964    1965    1979    1964    1965
    1966    1967    1968    1979    1980    1981    1982    1983    1985    1986
    1965    1966    1979    1980    1981    1985    1966    1967    1968    1969
    1977    1979    1980    1981    1982    1983    1985    1967    1968    1969
    1970    1971    1975    1977    1978    1979    1980    1981    1982    1983
    1984    1985    1968    1969    1977    1979    1981    1982    1983    1969
    1970    1971    1972    1973    1975    1976    1977    1978    1979    1981
    1982    1983    1970    1971    1972    1973    1974    1975    1977    1978
    1981    1971    1972    1973    1977    1972    1973    1974    1975    1976
    1977    1973    1974    1975    1974    1975    1976    1977    1978    1975
    1976    1977    1976    1977    1978    1977    1978    1978    1981       0
    1980    1981    1982    1983    1984    1985    1986    1987    1988    1989
    1981    1982    1983    1985    1986    1982    1983    1984    1985    1986
    1983    1984    1985    1984    1985       0    1986    1987    1988    1989
    1990    1987    1988    1989    1990    1991    1992    1993    1988    1989
    1990    1989    1990    1990    1991    1992    1993    1994    1995    2012
    1991    1992    1993    1994    1995    1996    2012    2013    2014    2018
    1992    1993    1994    1995    2012    1993    1994    1995    2012    1994
    1995    1996    1997    1998    2012    2013    2014    2015    2016    2018
    2019    1995    1996    2012    2013    2014    2018    1996    1997    1998
    1999    2011    2012    2013    2014    2015    2016    2018    1997    1998
    1999    2000    2001    2002    2010    2011    2012    2013    2014    2015
    2016    2017    2018    1998    1999    2011    2012    2014    2015    2016
    1999    2000    2001    2002    2003    2008    2010    2011    2012    2014
    2015    2016    2000    2001    2002    2003    2010    2011    2014    2001
    2002    2011    2002    2003    2004    2007    2010    2011    2003    2004
    2005    2006    2007    2008    2010    2011    2004    2005    2006    2007
    2008    2009    2010    2011    2005    2006    2007    2008    2011    2006
    2007    2007    2008    2009    2010    2011    2009    2010    2011    2010
    2011    2011    2014    2013    2014    2015    2016    2017    2018    2019
    2020    2021    2022    2014    2015    2016    2018    2019    2015    2016
    2017    2018    2019    2016    2017    2018    2017    2018       0    2019
    2020    2021    2022    2023    2020    2021    2022    2023    2024    2025
    2026    2021    2022    2023    2022    2023    2023    2024    2025    2026
    2027    2028    2042    2024    2025    2026    2027    2028    2029    2042
    2043    2044    2048    2025    2026    2027    2028    2042    2026    2027
    2028    2042    2027    2028    2029    2030    2031    2042    2043    2044
    2045    2046    2048    2049    2028    2029    2042    2043    2044    2048
    2029    2030    2031    2032    2040    2042    2043    2044    2045    2046
    2048    2030    2031    2032    2033    2034    2038    2040    2041    2042
    2043    2044    2045    2046    2047    2048    2031    2032    2040    2042
    2044    2045    2046    2032    2033    2034    2035    2036    2038    2039
    2040    2041    2042    2044    2045    2046    2033    2034    2035    2036
    2037    2038    2040    2041    2044    2034    2035    2036    2040    2035
    2036    2037    2038    2039    2040    2036    2037    2038    2037    2038
    2039    2040    2041    2038    2039    2040    2039    2040    2041    2040
    2041    2041    2044       0    2043    2044    2045    2046    2047    2048
    2049    2050    2051    2052    2044    2045    2046    2048    2049    2045
    2046    2047    2048    2049    2046    2047    2048    2047    2048       0
    2049    2050    2051    2052    2053    2050    2051    2052    2053    2054
    2055    2056    2051    2052    2053    2052    2053    2053    2054    2055
    2056    2057    2058    2076    2054    2055    2056    2057    2058    2059
    2076    2077    2078    2082    2055    2056    2057    2058    2076    2056
    2057    2058    2076    2057    2058    2059    2060    2061    2076    2077
    2078    2079    2080    2082    2083    2058    2059    2076    2077    2078
    2082    2059    2060    2061    2062    2075    2076    2077    2078    2079
    2080    2082    2060    2061    2062    2063    2064    2065    2074    2075
    2076    2077    2078    2079    2080    2081    2082    2061    2062    2075
    2076    2078    2079    2080    2062    2063    2064    2065    2066    2070
    2074    2075    2076    2078    2079    2080    2063    2064    2065    2066
    2074    2075    2078    2064    2065    2075    2065    2066    2067    2068
    2074    2075    2066    2067    2068    2069    2070    2074    2075    2067
    2068    2069    2070    2071    2074    2075    2068    2069    2070    2075
    2069    2070    2071    2072    2073    2074    2075    2070    2071    2074
    2071    2072    2073    2074    2075    2072    2073    2074    2075    2073
    2074    2074    2075    2078    2077    2078    2079    2080    2081    2082
    2083    2084    2085    2086    2078    2079    2080    2082    2083    2079
    2080    2081    2082    2083    2080    2081    2082    2081    2082       0
    2083    2084    2085    2086    2087    2084    2085    2086    2087    2088
    2089    2090    2085    2086    2087    2086    2087    2087    2088    2089
    2090    2091    2092    2110    2088    2089    2090    2091    2092    2093
    2110    2111    2112    2116    2089    2090    2091    2092    2110    2090
    2091    2092    2110    2091    2092    2093    2094    2095    2110    2111
    2112    2113    2114    2116    2117    2092    2093    2110    2111    2112
    2116    2093    2094    2095    2096    2109    2110    2111    2112    2113
    2114    2116    2094    2095    2096    2097    2098    2099    2108    2109
    2110    2111    2112    2113    2114    2115    2116    2095    2096    2109
    2110    2112    2113    2114    2096    2097    2098    2099    2100    2104
    2108    2109    2110    2112    2113    2114    2097    2098    2099    2100
    2108    2109    2112    2098    2099    2109    2099    2100    2101    2102
    2108    2109    2100    2101    2102    2103    2104    2108    2109    2101
    2102    2103    2104    2105    2108    2109    2102    2103    2104    2109
    2103    2104    2105    2106    2107    2108    2109    2104    2105    2108
    2105    2106    2107    2108    2109    2106    2107    2108    2109    2107
    2108    2108    2109    2112    2111    2112    2113    2114    2115    2116
    2117    2118    2119    2120    2112    2113    2114    2116    2117    2113
    2114    2115    2116    2117    2114    2115    2116    2115    2116       0
    2117    2118    2119    2120    2121    2118    2119    2120    2121    2122
    2123    2124    2119    2120    2121    2120    2121    2121    2122    2123
    2124    2125    2126    2140    2122    2123    2124    2125    2126    2127
    2140    2141    2142    2146    2123    2124    2125    2126    2140    2124
    2125    2126    2140    2125    2126    2127    2128    2129    2140    2141
    2142    2143    2144    2146    2147    2126    2127    2140    2141    2142
    2146    2127    2128    2129    2130    2138    2140    2141    2142    2143
    2144    2146    2128    2129    2130    2131    2132    2136    2138    2139
    2140    2141    2142    2143    2144    2145    2146    2129    2130    2138
    2140    2142    2143    2144    2130    2131    2132    2133    2134    2136
    2137    2138    2139    2140    2142    2143    2144    2131    2132    2133
    2134    2135    2136    2138    2139    2142    2132    2133    2134    2138
    2133    2134    2135    2136    2137    2138    2134    2135    2136    2135
    2136    2137    2138    2139    2136    2137    2138    2137    2138    2139
    2138    2139    2139    2142       0    2141    2142    2143    2144    2145
    2146    2147    2148    2149    2150    2142    2143    2144    2146    2147
    2143    2144    2145    2146    2147    2144    2145    2146    2145    2146
       0    2147    2148    2149    2150    2151    2148    2149    2150    2151
    2152    2153    2154    2149    2150    2151    2150    2151    2151    2152
    2153    2154    2155    2156    2171    2152    2153    2154    2155    2156
    2157    2171    2172    2173    2177    2153    2154    2155    2156    2171
    2154    2155    2156    2171    2155    2156    2157    2158    2159    2171
    2172    2173    2174    2175    2177    2178    2156    2157    2171    2172
    2173    2177    2157    2158    2159    2160    2169    2171    2172    2173
    2174    2175    2177    2158    2159    2160    2161    2162    2168    2169
    2170    2171    2172    2173    2174    2175    2176    2177    2159    2160
    2169    2171    2173    2174    2175    2160    2161    2162    2163    2164
    2168    2169    2170    2171    2173    2174    2175    2161    2162    2163
    2164    2165    2168    2169    2170    2173    2162    2163    2164    2169
    2163    2164    2165    2166    2167    2168    2169    2164    2165    2168
    2165    2166    2167    2168    2169    2170    2166    2167    2168    2169
    2167    2168    2168    2169    2170    2170    2173       0    2172    2173
    2174    2175    2176    2177    2178    2173    2174    2175    2177    2178
    2174    2175    2176    2177    2178    2175    2176    2177    2176    2177
       0    2178       0       0       0       0       0       0       0       0
       0       0       0       0       0       0       0       0       0       0
       0       0       0       0       0       0       0       0       0       0
       0       0       0       0       0       0       0       0       0       0
       0       0       0       0       0       0       0       0       0       0
       0       0       0       0       0       0       0       0       0       0
       0       0       0       0       0       0       0       0       0       0
       0       0       0       0       0       0       0       0       0       0
       0       0       0       0       0       0       0       0       0       0
       0       0       0       0       0       0       0       0       0       0
       0       0       0       0       0       0       0       0       0       0
       0       0       0       0       0       0       0       0       0       0
       0       0       0       0       0       0       0       0       0       0
       0       0       0       0    2311    2312    2313    2319    2320    2321
    2324    2312    2313    2314    2318    2319    2320    2321    2322    2323
    2324    2313    2314    2315    2316    2317    2318    2319    2320    2321
    2324    2314    2315    2316    2317    2318    2319    2320    2323    2324
    2315    2316    2317    2318    2319    2324    2316    2317    2318    2317
    2318    2318    2319    2320    2321    2322    2323    2324    2326    2320
    2321    2322    2323    2325    2326    2321    2322    2323    2324    2325
    2326    2322    2323    2325    2326    2323    2325    2326    2325    2326
       0    2326       0    2328    2329    2330    2329    2330    2330       0
    2332    2333    2334    2333    2334    2334       0    2336    2337    2338
    2337    2338    2338       0    2340    2341    2342    2341    2342    2342
       0    2344    2345    2346    2345    2346    2346       0    2348    2349
    2350    2349    2350    2350       0    2352    2353    2354    2353    2354
    2354       0    2356    2357    2358    2357    2358    2358       0    2360
    2361    2362    2361    2362    2362       0    2364    2365    2366    2365
    2366    2366       0    2368    2369    2370    2369    2370    2370       0
    2372    2373    2374    2373    2374    2374       0    2376    2377    2378
    2377    2378    2378       0    2380    2381    2382    2381    2382    2382
       0    2384    2385    2386    2385    2386    2386       0    2388    2389
    2390    2389    2390    2390       0    2392    2393    2394    2393    2394
    2394       0    2396    2397    2398    2397    2398    2398       0    2400
    2401    2402    2401    2402    2402       0    2404    2405    2406    2405
    2406    2406       0    2408    2409    2410    2409    2410    2410       0
    2412    2413    2414    2413    2414    2414       0    2416    2417    2418
    2417    2418    2418       0    2420    2421    2422    2421    2422    2422
       0    2424    2425    2426    2425    2426    2426       0    2428    2429
    2430    2429    2430    2430       0    2432    2433    2434    2433    2434
    2434       0    2436    2437    2438    2437    2438    2438       0    2440
    2441    2442    2441    2442    2442       0    2444    2445    2446    2445
    2446    2446       0    2448    2449    2450    2449    2450    2450       0
    2452    2453    2454    2453    2454    2454       0    2456    2457    2458
    2457    2458    2458       0    2460    2461    2462    2461    2462    2462
       0    2464    2465    2466    2465    2466    2466       0    2468    2469
    2470    2469    2470    2470       0    2472    2473    2474    2473    2474
    2474       0    2476    2477    2478    2477    2478    2478       0    2480
    2481    2482    2481    2482    2482       0    2484    2485    2486    2485
    2486    2486       0    2488    2489    2490    2489    2490    2490       0
    2492    2493    2494    2493    2494    2494       0    2496    2497    2498
    2497    2498    2498       0    2500    2501    2502    2501    2502    2502
       0    2504    2505    2506    2505    2506    2506       0    2508    2509
    2510    2509    2510    2510       0    2512    2513    2514    2513    2514
    2514       0    2516    2517    2518    2517    2518    2518       0    2520
    2521    2522    2521    2522    2522       0    2524    2525    2526    2525
    2526    2526       0    2528    2529    2530    2529    2530    2530       0
    2532    2533    2534    2533    2534    2534       0    2536    2537    2538
    2537    2538    2538       0    2540    2541    2542    2541    2542    2542
       0    2544    2545    2546    2545    2546    2546       0    2548    2549
    2550    2549    2550    2550       0    2552    2553    2554    2553    2554
    2554       0    2556    2557    2558    2557    2558    2558       0    2560
    2561    2562    2561    2562    2562       0    2564    2565    2566    2565
    2566    2566       0    2568    2569    2570    2569    2570    2570       0
    2572    2573    2574    2573    2574    2574       0    2576    2577    2578
    2577    2578    2578       0    2580    2581    2582    2581    2582    2582
       0    2584    2585    2586    2585    2586    2586       0    2588    2589
    2590    2589    2590    2590       0    2592    2593    2594    2593    2594
    2594       0    2596    2597    2598    2597    2598    2598       0    2600
    2601    2602    2601    2602    2602       0    2604    2605    2606    2605
    2606    2606       0    2608    2609    2610    2609    2610    2610       0
    2612    2613    2614    2613    2614    2614       0    2616    2617    2618
    2617    2618    2618       0    2620    2621    2622    2621    2622    2622
       0    2624    2625    2626    2625    2626    2626       0    2628    2629
    2630    2629    2630    2630       0    2632    2633    2634    2633    2634
    2634       0    2636    2637    2638    2637    2638    2638       0    2640
    2641    2642    2641    2642    2642       0    2644    2645    2646    2645
    2646    2646       0    2648    2649    2650    2649    2650    2650       0
    2652    2653    2654    2653    2654    2654       0    2656    2657    2658
    2657    2658    2658       0    2660    2661    2662    2661    2662    2662
       0    2664    2665    2666    2665    2666    2666       0    2668    2669
    2670    2669    2670    2670       0    2672    2673    2674    2673    2674
    2674       0    2676    2677    2678    2677    2678    2678       0    2680
    2681    2682    2681    2682    2682       0    2684    2685    2686    2685
    2686    2686       0    2688    2689    2690    2689    2690    2690       0
    2692    2693    2694    2693    2694    2694       0    2696    2697    2698
    2697    2698    2698       0    2700    2701    2702    2701    2702    2702
       0    2704    2705    2706    2705    2706    2706       0    2708    2709
    2710    2709    2710    2710       0    2712    2713    2714    2713    2714
    2714       0    2716    2717    2718    2717    2718    2718       0    2720
    2721    2722    2721    2722    2722       0    2724    2725    2726    2725
    2726    2726       0    2728    2729    2730    2729    2730    2730       0
    2732    2733    2734    2733    2734    2734       0    2736    2737    2738
    2737    2738    2738       0    2740    2741    2742    2741    2742    2742
       0    2744    2745    2746    2745    2746    2746       0    2748    2749
    2750    2749    2750    2750       0    2752    2753    2754    2753    2754
    2754       0    2756    2757    2758    2757    2758    2758       0    2760
    2761    2762    2761    2762    2762       0    2764    2765    2766    2765
    2766    2766       0    2768    2769    2770    2769    2770    2770       0
    2772    2773    2774    2773    2774    2774       0    2776    2777    2778
    2777    2778    2778       0    2780    2781    2782    2781    2782    2782
       0    2784    2785    2786    2785    2786    2786       0    2788    2789
    2790    2789    2790    2790       0    2792    2793    2794    2793    2794
    2794       0    2796    2797    2798    2797    2798    2798       0    2800
    2801    2802    2801    2802    2802       0    2804    2805    2806    2805
    2806    2806       0    2808    2809    2810    2809    2810    2810       0
    2812    2813    2814    2813    2814    2814       0    2816    2817    2818
    2817    2818    2818       0    2820    2821    2822    2821    2822    2822
       0    2824    2825    2826    2825    2826    2826       0    2828    2829
    2830    2829    2830    2830       0    2832    2833    2834    2833    2834
    2834       0    2836    2837    2838    2837    2838    2838       0    2840
    2841    2842    2841    2842    2842       0    2844    2845    2846    2845
    2846    2846       0    2848    2849    2850    2849    2850    2850       0
    2852    2853    2854    2853    2854    2854       0    2856    2857    2858
    2857    2858    2858       0    2860    2861    2862    2861    2862    2862
       0    2864    2865    2866    2865    2866    2866       0    2868    2869
    2870    2869    2870    2870       0    2872    2873    2874    2873    2874
    2874       0    2876    2877    2878    2877    2878    2878       0    2880
    2881    2882    2881    2882    2882       0    2884    2885    2886    2885
    2886    2886       0    2888    2889    2890    2889    2890    2890       0
    2892    2893    2894    2893    2894    2894       0    2896    2897    2898
    2897    2898    2898       0    2900    2901    2902    2901    2902    2902
       0    2904    2905    2906    2905    2906    2906       0    2908    2909
    2910    2909    2910    2910       0    2912    2913    2914    2913    2914
    2914       0    2916    2917    2918    2917    2918    2918       0    2920
    2921    2922    2921    2922    2922       0    2924    2925    2926    2925
    2926    2926       0    2928    2929    2930    2929    2930    2930       0
    2932    2933    2934    2933    2934    2934       0    2936    2937    2938
    2937    2938    2938       0    2940    2941    2942    2941    2942    2942
       0    2944    2945    2946    2945    2946    2946       0    2948    2949
    2950    2949    2950    2950       0    2952    2953    2954    2953    2954
    2954       0    2956    2957    2958    2957    2958    2958       0    2960
    2961    2962    2961    2962    2962       0    2964    2965    2966    2965
    2966    2966       0    2968    2969    2970    2969    2970    2970       0
    2972    2973    2974    2973    2974    2974       0    2976    2977    2978
    2977    2978    2978       0    2980    2981    2982    2981    2982    2982
       0    2984    2985    2986    2985    2986    2986       0    2988    2989
    2990    2989    2990    2990       0    2992    2993    2994    2993    2994
    2994       0    2996    2997    2998    2997    2998    2998       0    3000
    3001    3002    3001    3002    3002       0    3004    3005    3006    3005
    3006    3006       0    3008    3009    3010    3009    3010    3010       0
    3012    3013    3014    3013    3014    3014       0    3016    3017    3018
    3017    3018    3018       0    3020    3021    3022    3021    3022    3022
       0    3024    3025    3026    3025    3026    3026       0    3028    3029
    3030    3029    3030    3030       0    3032    3033    3034    3033    3034
    3034       0    3036    3037    3038    3037    3038    3038       0    3040
    3041    3042    3041    3042    3042       0    3044    3045    3046    3045
    3046    3046       0    3048    3049    3050    3049    3050    3050       0
    3052    3053    3054    3053    3054    3054       0    3056    3057    3058
    3057    3058    3058       0    3060    3061    3062    3061    3062    3062
       0    3064    3065    3066    3065    3066    3066       0    3068    3069
    3070    3069    3070    3070       0    3072    3073    3074    3073    3074
    3074       0    3076    3077    3078    3077    3078    3078       0    3080
    3081    3082    3081    3082    3082       0    3084    3085    3086    3085
    3086    3086       0    3088    3089    3090    3089    3090    3090       0
    3092    3093    3094    3093    3094    3094       0    3096    3097    3098
    3097    3098    3098       0    3100    3101    3102    3101    3102    3102
       0    3104    3105    3106    3105    3106    3106       0    3108    3109
    3110    3109    3110    3110       0    3112    3113    3114    3113    3114
    3114       0    3116    3117    3118    3117    3118    3118       0    3120
    3121    3122    3121    3122    3122       0    3124    3125    3126    3125
    3126    3126       0    3128    3129    3130    3129    3130    3130       0
    3132    3133    3134    3133    3134    3134       0    3136    3137    3138
    3137    3138    3138       0    3140    3141    3142    3141    3142    3142
       0    3144    3145    3146    3145    3146    3146       0    3148    3149
    3150    3149    3150    3150       0    3152    3153    3154    3153    3154
    3154       0    3156    3157    3158    3157    3158    3158       0    3160
    3161    3162    3161    3162    3162       0    3164    3165    3166    3165
    3166    3166       0    3168    3169    3170    3169    3170    3170       0
    3172    3173    3174    3173    3174    3174       0    3176    3177    3178
    3177    3178    3178       0    3180    3181    3182    3181    3182    3182
       0    3184    3185    3186    3185    3186    3186       0    3188    3189
    3190    3189    3190    3190       0    3192    3193    3194    3193    3194
    3194       0    3196    3197    3198    3197    3198    3198       0    3200
    3201    3202    3201    3202    3202       0    3204    3205    3206    3205
    3206    3206       0    3208    3209    3210    3209    3210    3210       0
    3212    3213    3214    3213    3214    3214       0    3216    3217    3218
    3217    3218    3218       0    3220    3221    3222    3221    3222    3222
       0    3224    3225    3226    3225    3226    3226       0    3228    3229
    3230    3229    3230    3230       0    3232    3233    3234    3233    3234
    3234       0    3236    3237    3238    3237    3238    3238       0    3240
    3241    3242    3241    3242    3242       0    3244    3245    3246    3245
    3246    3246       0    3248    3249    3250    3249    3250    3250       0
    3252    3253    3254    3253    3254    3254       0    3256    3257    3258
    3257    3258    3258       0    3260    3261    3262    3261    3262    3262
       0    3264    3265    3266    3265    3266    3266       0    3268    3269
    3270    3269    3270    3270       0    3272    3273    3274    3273    3274
    3274       0    3276    3277    3278    3277    3278    3278       0    3280
    3281    3282    3281    3282    3282       0    3284    3285    3286    3285
    3286    3286       0    3288    3289    3290    3289    3290    3290       0
    3292    3293    3294    3293    3294    3294       0    3296    3297    3298
    3297    3298    3298       0    3300    3301    3302    3301    3302    3302
       0    3304    3305    3306    3305    3306    3306       0    3308    3309
    3310    3309    3310    3310       0    3312    3313    3314    3313    3314
    3314       0    3316    3317    3318    3317    3318    3318       0    3320
    3321    3322    3321    3322    3322       0    3324    3325    3326    3325
    3326    3326       0    3328    3329    3330    3329    3330    3330       0
    3332    3333    3334    3333    3334    3334       0    3336    3337    3338
    3337    3338    3338       0    3340    3341    3342    3341    3342    3342
       0    3344    3345    3346    3345    3346    3346       0    3348    3349
    3350    3349    3350    3350       0    3352    3353    3354    3353    3354
    3354       0    3356    3357    3358    3357    3358    3358       0    3360
    3361    3362    3361    3362    3362       0    3364    3365    3366    3365
    3366    3366       0    3368    3369    3370    3369    3370    3370       0
    3372    3373    3374    3373    3374    3374       0    3376    3377    3378
    3377    3378    3378       0    3380    3381    3382    3381    3382    3382
       0    3384    3385    3386    3385    3386    3386       0    3388    3389
    3390    3389    3390    3390       0    3392    3393    3394    3393    3394
    3394       0    3396    3397    3398    3397    3398    3398       0    3400
    3401    3402    3401    3402    3402       0    3404    3405    3406    3405
    3406    3406       0    3408    3409    3410    3409    3410    3410       0
    3412    3413    3414    3413    3414    3414       0    3416    3417    3418
    3417    3418    3418       0    3420    3421    3422    3421    3422    3422
       0    3424    3425    3426    3425    3426    3426       0    3428    3429
    3430    3429    3430    3430       0    3432    3433    3434    3433    3434
    3434       0    3436    3437    3438    3437    3438    3438       0    3440
    3441    3442    3441    3442    3442       0    3444    3445    3446    3445
    3446    3446       0    3448    3449    3450    3449    3450    3450       0
    3452    3453    3454    3453    3454    3454       0    3456    3457    3458
    3457    3458    3458       0    3460    3461    3462    3461    3462    3462
       0    3464    3465    3466    3465    3466    3466       0    3468    3469
    3470    3469    3470    3470       0    3472    3473    3474    3473    3474
    3474       0    3476    3477    3478    3477    3478    3478       0    3480
    3481    3482    3481    3482    3482       0    3484    3485    3486    3485
    3486    3486       0    3488    3489    3490    3489    3490    3490       0
    3492    3493    3494    3493    3494    3494       0    3496    3497    3498
    3497    3498    3498       0    3500    3501    3502    3501    3502    3502
       0    3504    3505    3506    3505    3506    3506       0    3508    3509
    3510    3509    3510    3510       0    3512    3513    3514    3513    3514
    3514       0    3516    3517    3518    3517    3518    3518       0    3520
    3521    3522    3521    3522    3522       0    3524    3525    3526    3525
    3526    3526       0    3528    3529    3530    3529    3530    3530       0
    3532    3533    3534    3533    3534    3534       0    3536    3537    3538
    3537    3538    3538       0    3540    3541    3542    3541    3542    3542
       0    3544    3545    3546    3545    3546    3546       0    3548    3549
    3550    3549    3550    3550       0    3552    3553    3554    3553    3554
    3554       0    3556    3557    3558    3557    3558    3558       0    3560
    3561    3562    3561    3562    3562       0    3564    3565    3566    3565
    3566    3566       0    3568    3569    3570    3569    3570    3570       0
    3572    3573    3574    3573    3574    3574       0    3576    3577    3578
    3577    3578    3578       0    3580    3581    3582    3581    3582    3582
       0    3584    3585    3586    3585    3586    3586       0    3588    3589
    3590    3589    3590    3590       0    3592    3593    3594    3593    3594
    3594       0    3596    3597    3598    3597    3598    3598       0    3600
    3601    3602    3601    3602    3602       0    3604    3605    3606    3605
    3606    3606       0    3608    3609    3610    3609    3610    3610       0
    3612    3613    3614    3613    3614    3614       0    3616    3617    3618
    3617    3618    3618       0    3620    3621    3622    3621    3622    3622
       0    3624    3625    3626    3625    3626    3626       0    3628    3629
    3630    3629    3630    3630       0    3632    3633    3634    3633    3634
    3634       0    3636    3637    3638    3637    3638    3638       0    3640
    3641    3642    3641    3642    3642       0    3644    3645    3646    3645
    3646    3646       0    3648    3649    3650    3649    3650    3650       0
    3652    3653    3654    3653    3654    3654       0    3656    3657    3658
    3657    3658    3658       0    3660    3661    3662    3661    3662    3662
       0    3664    3665    3666    3665    3666    3666       0    3668    3669
    3670    3669    3670    3670       0    3672    3673    3674    3673    3674
    3674       0    3676    3677    3678    3677    3678    3678       0    3680
    3681    3682    3681    3682    3682       0    3684    3685    3686    3685
    3686    3686       0    3688    3689    3690    3689    3690    3690       0
    3692    3693    3694    3693    3694    3694       0    3696    3697    3698
    3697    3698    3698       0    3700    3701    3702    3701    3702    3702
       0    3704    3705    3706    3705    3706    3706       0    3708    3709
    3710    3709    3710    3710       0    3712    3713    3714    3713    3714
    3714       0    3716    3717    3718    3717    3718    3718       0    3720
    3721    3722    3721    3722    3722       0    3724    3725    3726    3725
    3726    3726       0    3728    3729    3730    3729    3730    3730       0
    3732    3733    3734    3733    3734    3734       0    3736    3737    3738
    3737    3738    3738       0    3740    3741    3742    3741    3742    3742
       0    3744    3745    3746    3745    3746    3746       0    3748    3749
    3750    3749    3750    3750       0    3752    3753    3754    3753    3754
    3754       0    3756    3757    3758    3757    3758    3758       0    3760
    3761    3762    3761    3762    3762       0    3764    3765    3766    3765
    3766    3766       0    3768    3769    3770    3769    3770    3770       0
    3772    3773    3774    3773    3774    3774       0    3776    3777    3778
    3777    3778    3778       0    3780    3781    3782    3781    3782    3782
       0    3784    3785    3786    3785    3786    3786       0    3788    3789
    3790    3789    3790    3790       0    3792    3793    3794    3793    3794
    3794       0    3796    3797    3798    3797    3798    3798       0    3800
    3801    3802    3801    3802    3802       0    3804    3805    3806    3805
    3806    3806       0    3808    3809    3810    3809    3810    3810       0
    3812    3813    3814    3813    3814    3814       0    3816    3817    3818
    3817    3818    3818       0    3820    3821    3822    3821    3822    3822
       0    3824    3825    3826    3825    3826    3826       0    3828    3829
    3830    3829    3830    3830       0    3832    3833    3834    3833    3834
    3834       0    3836    3837    3838    3837    3838    3838       0    3840
    3841    3842    3841    3842    3842       0    3844    3845    3846    3845
    3846    3846       0    3848    3849    3850    3849    3850    3850       0
    3852    3853    3854    3853    3854    3854       0    3856    3857    3858
    3857    3858    3858       0    3860    3861    3862    3861    3862    3862
       0    3864    3865    3866    3865    3866    3866       0    3868    3869
    3870    3869    3870    3870       0    3872    3873    3874    3873    3874
    3874       0    3876    3877    3878    3877    3878    3878       0    3880
    3881    3882    3881    3882    3882       0    3884    3885    3886    3885
    3886    3886       0    3888    3889    3890    3889    3890    3890       0
    3892    3893    3894    3893    3894    3894       0    3896    3897    3898
    3897    3898    3898       0    3900    3901    3902    3901    3902    3902
       0    3904    3905    3906    3905    3906    3906       0    3908    3909
    3910    3909    3910    3910       0    3912    3913    3914    3913    3914
    3914       0    3916    3917    3918    3917    3918    3918       0    3920
    3921    3922    3921    3922    3922       0    3924    3925    3926    3925
    3926    3926       0    3928    3929    3930    3929    3930    3930       0
    3932    3933    3934    3933    3934    3934       0    3936    3937    3938
    3937    3938    3938       0    3940    3941    3942    3941    3942    3942
       0    3944    3945    3946    3945    3946    3946       0    3948    3949
    3950    3949    3950    3950       0    3952    3953    3954    3953    3954
    3954       0    3956    3957    3958    3957    3958    3958       0    3960
    3961    3962    3961    3962    3962       0    3964    3965    3966    3965
    3966    3966       0    3968    3969    3970    3969    3970    3970       0
    3972    3973    3974    3973    3974    3974       0    3976    3977    3978
    3977    3978    3978       0    3980    3981    3982    3981    3982    3982
       0    3984    3985    3986    3985    3986    3986       0    3988    3989
    3990    3989    3990    3990       0    3992    3993    3994    3993    3994
    3994       0    3996    3997    3998    3997    3998    3998       0    4000
    4001    4002    4001    4002    4002       0    4004    4005    4006    4005
    4006    4006       0    4008    4009    4010    4009    4010    4010       0
    4012    4013    4014    4013    4014    4014       0    4016    4017    4018
    4017    4018    4018       0    4020    4021    4022    4021    4022    4022
       0    4024    4025    4026    4025    4026    4026       0    4028    4029
    4030    4029    4030    4030       0    4032    4033    4034    4033    4034
    4034       0    4036    4037    4038    4037    4038    4038       0    4040
    4041    4042    4041    4042    4042       0    4044    4045    4046    4045
    4046    4046       0    4048    4049    4050    4049    4050    4050       0
    4052    4053    4054    4053    4054    4054       0    4056    4057    4058
    4057    4058    4058       0    4060    4061    4062    4061    4062    4062
       0    4064    4065    4066    4065    4066    4066       0    4068    4069
    4070    4069    4070    4070       0    4072    4073    4074    4073    4074
    4074       0    4076    4077    4078    4077    4078    4078       0    4080
    4081    4082    4081    4082    4082       0    4084    4085    4086    4085
    4086    4086       0    4088    4089    4090    4089    4090    4090       0
    4092    4093    4094    4093    4094    4094       0    4096    4097    4098
    4097    4098    4098       0    4100    4101    4102    4101    4102    4102
       0    4104    4105    4106    4105    4106    4106       0    4108    4109
    4110    4109    4110    4110       0    4112    4113    4114    4113    4114
    4114       0    4116    4117    4118    4117    4118    4118       0    4120
    4121    4122    4121    4122    4122       0    4124    4125    4126    4125
    4126    4126       0    4128    4129    4130    4129    4130    4130       0
    4132    4133    4134    4133    4134    4134       0    4136    4137    4138
    4137    4138    4138       0    4140    4141    4142    4141    4142    4142
       0    4144    4145    4146    4145    4146    4146       0    4148    4149
    4150    4149    4150    4150       0    4152    4153    4154    4153    4154
    4154       0    4156    4157    4158    4157    4158    4158       0    4160
    4161    4162    4161    4162    4162       0    4164    4165    4166    4165
    4166    4166       0    4168    4169    4170    4169    4170    4170       0
    4172    4173    4174    4173    4174    4174       0    4176    4177    4178
    4177    4178    4178       0    4180    4181    4182    4181    4182    4182
       0    4184    4185    4186    4185    4186    4186       0    4188    4189
    4190    4189    4190    4190       0    4192    4193    4194    4193    4194
    4194       0    4196    4197    4198    4197    4198    4198       0    4200
    4201    4202    4201    4202    4202       0    4204    4205    4206    4205
    4206    4206       0    4208    4209    4210    4209    4210    4210       0
    4212    4213    4214    4213    4214    4214       0    4216    4217    4218
    4217    4218    4218       0    4220    4221    4222    4221    4222    4222
       0    4224    4225    4226    4225    4226    4226       0    4228    4229
    4230    4229    4230    4230       0    4232    4233    4234    4233    4234
    4234       0    4236    4237    4238    4237    4238    4238       0    4240
    4241    4242    4241    4242    4242       0    4244    4245    4246    4245
    4246    4246       0    4248    4249    4250    4249    4250    4250       0
    4252    4253    4254    4253    4254    4254       0    4256    4257    4258
    4257    4258    4258       0    4260    4261    4262    4261    4262    4262
       0    4264    4265    4266    4265    4266    4266       0    4268    4269
    4270    4269    4270    4270       0    4272    4273    4274    4273    4274
    4274       0    4276    4277    4278    4277    4278    4278       0    4280
    4281    4282    4281    4282    4282       0    4284    4285    4286    4285
    4286    4286       0    4288    4289    4290    4289    4290    4290       0
    4292    4293    4294    4293    4294    4294       0    4296    4297    4298
    4297    4298    4298       0    4300    4301    4302    4301    4302    4302
       0    4304    4305    4306    4305    4306    4306       0    4308    4309
    4310    4309    4310    4310       0    4312    4313    4314    4313    4314
    4314       0    4316    4317    4318    4317    4318    4318       0    4320
    4321    4322    4321    4322    4322       0    4324    4325    4326    4325
    4326    4326       0    4328    4329    4330    4329    4330    4330       0
    4332    4333    4334    4333    4334    4334       0    4336    4337    4338
    4337    4338    4338       0    4340    4341    4342    4341    4342    4342
       0    4344    4345    4346    4345    4346    4346       0    4348    4349
    4350    4349    4350    4350       0    4352    4353    4354    4353    4354
    4354       0    4356    4357    4358    4357    4358    4358       0    4360
    4361    4362    4361    4362    4362       0    4364    4365    4366    4365
    4366    4366       0    4368    4369    4370    4369    4370    4370       0
    4372    4373    4374    4373    4374    4374       0    4376    4377    4378
    4377    4378    4378       0    4380    4381    4382    4381    4382    4382
       0    4384    4385    4386    4385    4386    4386       0    4388    4389
    4390    4389    4390    4390       0    4392    4393    4394    4393    4394
    4394       0    4396    4397    4398    4397    4398    4398       0    4400
    4401    4402    4401    4402    4402       0    4404    4405    4406    4405
    4406    4406       0    4408    4409    4410    4409    4410    4410       0
    4412    4413    4414    4413    4414    4414       0    4416    4417    4418
    4417    4418    4418       0    4420    4421    4422    4421    4422    4422
       0    4424    4425    4426    4425    4426    4426       0    4428    4429
    4430    4429    4430    4430       0    4432    4433    4434    4433    4434
    4434       0    4436    4437    4438    4437    4438    4438       0    4440
    4441    4442    4441    4442    4442       0    4444    4445    4446    4445
    4446    4446       0    4448    4449    4450    4449    4450    4450       0
    4452    4453    4454    4453    4454    4454       0    4456    4457    4458
    4457    4458    4458       0    4460    4461    4462    4461    4462    4462
       0    4464    4465    4466    4465    4466    4466       0    4468    4469
    4470    4469    4470    4470       0    4472    4473    4474    4473    4474
    4474       0    4476    4477    4478    4477    4478    4478       0    4480
    4481    4482    4481    4482    4482       0    4484    4485    4486    4485
    4486    4486       0    4488    4489    4490    4489    4490    4490       0
    4492    4493    4494    4493    4494    4494       0    4496    4497    4498
    4497    4498    4498       0    4500    4501    4502    4501    4502    4502
       0    4504    4505    4506    4505    4506    4506       0    4508    4509
    4510    4509    4510    4510       0    4512    4513    4514    4513    4514
    4514       0    4516    4517    4518    4517    4518    4518       0    4520
    4521    4522    4521    4522    4522       0    4524    4525    4526    4525
    4526    4526       0    4528    4529    4530    4529    4530    4530       0
    4532    4533    4534    4533    4534    4534       0    4536    4537    4538
    4537    4538    4538       0    4540    4541    4542    4541    4542    4542
       0    4544    4545    4546    4545    4546    4546       0    4548    4549
    4550    4549    4550    4550       0    4552    4553    4554    4553    4554
    4554       0    4556    4557    4558    4557    4558    4558       0    4560
    4561    4562    4561    4562    4562       0    4564    4565    4566    4565
    4566    4566       0    4568    4569    4570    4569    4570    4570       0
    4572    4573    4574    4573    4574    4574       0    4576    4577    4578
    4577    4578    4578       0    4580    4581    4582    4581    4582    4582
       0    4584    4585    4586    4585    4586    4586       0    4588    4589
    4590    4589    4590    4590       0    4592    4593    4594    4593    4594
    4594       0    4596    4597    4598    4597    4598    4598       0    4600
    4601    4602    4601    4602    4602       0    4604    4605    4606    4605
    4606    4606       0    4608    4609    4610    4609    4610    4610       0
    4612    4613    4614    4613    4614    4614       0    4616    4617    4618
    4617    4618    4618       0    4620    4621    4622    4621    4622    4622
       0    4624    4625    4626    4625    4626    4626       0    4628    4629
    4630    4629    4630    4630       0    4632    4633    4634    4633    4634
    4634       0    4636    4637    4638    4637    4638    4638       0    4640
    4641    4642    4641    4642    4642       0    4644    4645    4646    4645
    4646    4646       0    4648    4649    4650    4649    4650    4650       0
    4652    4653    4654    4653    4654    4654       0    4656    4657    4658
    4657    4658    4658       0    4660    4661    4662    4661    4662    4662
       0    4664    4665    4666    4665    4666    4666       0    4668    4669
    4670    4669    4670    4670       0    4672    4673    4674    4673    4674
    4674       0    4676    4677    4678    4677    4678    4678       0    4680
    4681    4682    4681    4682    4682       0    4684    4685    4686    4685
    4686    4686       0    4688    4689    4690    4689    4690    4690       0
    4692    4693    4694    4693    4694    4694       0    4696    4697    4698
    4697    4698    4698       0    4700    4701    4702    4701    4702    4702
       0    4704    4705    4706    4705    4706    4706       0    4708    4709
    4710    4709    4710    4710       0    4712    4713    4714    4713    4714
    4714       0    4716    4717    4718    4717    4718    4718       0    4720
    4721    4722    4721    4722    4722       0    4724    4725    4726    4725
    4726    4726       0    4728    4729    4730    4729    4730    4730       0
    4732    4733    4734    4733    4734    4734       0    4736    4737    4738
    4737    4738    4738       0    4740    4741    4742    4741    4742    4742
       0    4744    4745    4746    4745    4746    4746       0    4748    4749
    4750    4749    4750    4750       0    4752    4753    4754    4753    4754
    4754       0    4756    4757    4758    4757    4758    4758       0    4760
    4761    4762    4761    4762    4762       0    4764    4765    4766    4765
    4766    4766       0    4768    4769    4770    4769    4770    4770       0
    4772    4773    4774    4773    4774    4774       0    4776    4777    4778
    4777    4778    4778       0    4780    4781    4782    4781    4782    4782
       0    4784    4785    4786    4785    4786    4786       0    4788    4789
    4790    4789    4790    4790       0    4792    4793    4794    4793    4794
    4794       0    4796    4797    4798    4797    4798    4798       0    4800
    4801    4802    4801    4802    4802       0    4804    4805    4806    4805
    4806    4806       0    4808    4809    4810    4809    4810    4810       0
    4812    4813    4814    4813    4814    4814       0    4816    4817    4818
    4817    4818    4818       0    4820    4821    4822    4821    4822    4822
       0    4824    4825    4826    4825    4826    4826       0    4828    4829
    4830    4829    4830    4830       0    4832    4833    4834    4833    4834
    4834       0    4836    4837    4838    4837    4838    4838       0    4840
    4841    4842    4841    4842    4842       0    4844    4845    4846    4845
    4846    4846       0    4848    4849    4850    4849    4850    4850       0
    4852    4853    4854    4853    4854    4854       0    4856    4857    4858
    4857    4858    4858       0    4860    4861    4862    4861    4862    4862
       0    4864    4865    4866    4865    4866    4866       0    4868    4869
    4870    4869    4870    4870       0    4872    4873    4874    4873    4874
    4874       0    4876    4877    4878    4877    4878    4878       0    4880
    4881    4882    4881    4882    4882       0    4884    4885    4886    4885
    4886    4886       0    4888    4889    4890    4889    4890    4890       0
    4892    4893    4894    4893    4894    4894       0    4896    4897    4898
    4897    4898    4898       0    4900    4901    4902    4901    4902    4902
       0    4904    4905    4906    4905    4906    4906       0    4908    4909
    4910    4909    4910    4910       0    4912    4913    4914    4913    4914
    4914       0    4916    4917    4918    4917    4918    4918       0    4920
    4921    4922    4921    4922    4922       0    4924    4925    4926    4925
    4926    4926       0    4928    4929    4930    4929    4930    4930       0
    4932    4933    4934    4933    4934    4934       0    4936    4937    4938
    4937    4938    4938       0    4940    4941    4942    4941    4942    4942
       0    4944    4945    4946    4945    4946    4946       0    4948    4949
    4950    4949    4950    4950       0    4952    4953    4954    4953    4954
    4954       0    4956    4957    4958    4957    4958    4958       0    4960
    4961    4962    4961    4962    4962       0    4964    4965    4966    4965
    4966    4966       0    4968    4969    4970    4969    4970    4970       0
    4972    4973    4974    4973    4974    4974       0    4976    4977    4978
    4977    4978    4978       0    4980    4981    4982    4981    4982    4982
       0    4984    4985    4986    4985    4986    4986       0    4988    4989
    4990    4989    4990    4990       0    4992    4993    4994    4993    4994
    4994       0    4996    4997    4998    4997    4998    4998       0    5000
    5001    5002    5001    5002    5002       0    5004    5005    5006    5005
    5006    5006       0    5008    5009    5010    5009    5010    5010       0
    5012    5013    5014    5013    5014    5014       0    5016    5017    5018
    5017    5018    5018       0    5020    5021    5022    5021    5022    5022
       0    5024    5025    5026    5025    5026    5026       0    5028    5029
    5030    5029    5030    5030       0    5032    5033    5034    5033    5034
    5034       0    5036    5037    5038    5037    5038    5038       0    5040
    5041    5042    5041    5042    5042       0    5044    5045    5046    5045
    5046    5046       0    5048    5049    5050    5049    5050    5050       0
    5052    5053    5054    5053    5054    5054       0    5056    5057    5058
    5057    5058    5058       0    5060    5061    5062    5061    5062    5062
       0    5064    5065    5066    5065    5066    5066       0    5068    5069
    5070    5069    5070    5070       0    5072    5073    5074    5073    5074
    5074       0    5076    5077    5078    5077    5078    5078       0    5080
    5081    5082    5081    5082    5082       0    5084    5085    5086    5085
    5086    5086       0    5088    5089    5090    5089    5090    5090       0
    5092    5093    5094    5093    5094    5094       0    5096    5097    5098
    5097    5098    5098       0    5100    5101    5102    5101    5102    5102
       0    5104    5105    5106    5105    5106    5106       0    5108    5109
    5110    5109    5110    5110       0    5112    5113    5114    5113    5114
    5114       0    5116    5117    5118    5117    5118    5118       0    5120
    5121    5122    5121    5122    5122       0    5124    5125    5126    5125
    5126    5126       0    5128    5129    5130    5129    5130    5130       0
    5132    5133    5134    5133    5134    5134       0    5136    5137    5138
    5137    5138    5138       0    5140    5141    5142    5141    5142    5142
       0    5144    5145    5146    5145    5146    5146       0    5148    5149
    5150    5149    5150    5150       0    5152    5153    5154    5153    5154
    5154       0    5156    5157    5158    5157    5158    5158       0    5160
    5161    5162    5161    5162    5162       0    5164    5165    5166    5165
    5166    5166       0    5168    5169    5170    5169    5170    5170       0
    5172    5173    5174    5173    5174    5174       0    5176    5177    5178
    5177    5178    5178       0    5180    5181    5182    5181    5182    5182
       0    5184    5185    5186    5185    5186    5186       0    5188    5189
    5190    5189    5190    5190       0    5192    5193    5194    5193    5194
    5194       0    5196    5197    5198    5197    5198    5198       0    5200
    5201    5202    5201    5202    5202       0    5204    5205    5206    5205
    5206    5206       0    5208    5209    5210    5209    5210    5210       0
    5212    5213    5214    5213    5214    5214       0    5216    5217    5218
    5217    5218    5218       0    5220    5221    5222    5221    5222    5222
       0    5224    5225    5226    5225    5226    5226       0    5228    5229
    5230    5229    5230    5230       0    5232    5233    5234    5233    5234
    5234       0    5236    5237    5238    5237    5238    5238       0    5240
    5241    5242    5241    5242    5242       0    5244    5245    5246    5245
    5246    5246       0    5248    5249    5250    5249    5250    5250       0
    5252    5253    5254    5253    5254    5254       0    5256    5257    5258
    5257    5258    5258       0    5260    5261    5262    5261    5262    5262
       0    5264    5265    5266    5265    5266    5266       0    5268    5269
    5270    5269    5270    5270       0    5272    5273    5274    5273    5274
    5274       0    5276    5277    5278    5277    5278    5278       0    5280
    5281    5282    5281    5282    5282       0    5284    5285    5286    5285
    5286    5286       0    5288    5289    5290    5289    5290    5290       0
    5292    5293    5294    5293    5294    5294       0    5296    5297    5298
    5297    5298    5298       0    5300    5301    5302    5301    5302    5302
       0    5304    5305    5306    5305    5306    5306       0    5308    5309
    5310    5309    5310    5310       0    5312    5313    5314    5313    5314
    5314       0    5316    5317    5318    5317    5318    5318       0    5320
    5321    5322    5321    5322    5322       0    5324    5325    5326    5325
    5326    5326       0    5328    5329    5330    5329    5330    5330       0
    5332    5333    5334    5333    5334    5334       0    5336    5337    5338
    5337    5338    5338       0    5340    5341    5342    5341    5342    5342
       0    5344    5345    5346    5345    5346    5346       0    5348    5349
    5350    5349    5350    5350       0    5352    5353    5354    5353    5354
    5354       0    5356    5357    5358    5357    5358    5358       0    5360
    5361    5362    5361    5362    5362       0    5364    5365    5366    5365
    5366    5366       0    5368    5369    5370    5369    5370    5370       0
    5372    5373    5374    5373    5374    5374       0    5376    5377    5378
    5377    5378    5378       0    5380    5381    5382    5381    5382    5382
       0    5384    5385    5386    5385    5386    5386       0    5388    5389
    5390    5389    5390    5390       0    5392    5393    5394    5393    5394
    5394       0    5396    5397    5398    5397    5398    5398       0    5400
    5401    5402    5401    5402    5402       0    5404    5405    5406    5405
    5406    5406       0    5408    5409    5410    5409    5410    5410       0
    5412    5413    5414    5413    5414    5414       0    5416    5417    5418
    5417    5418    5418       0    5420    5421    5422    5421    5422    5422
       0    5424    5425    5426    5425    5426    5426       0    5428    5429
    5430    5429    5430    5430       0    5432    5433    5434    5433    5434
    5434       0    5436    5437    5438    5437    5438    5438       0    5440
    5441    5442    5441    5442    5442       0    5444    5445    5446    5445
    5446    5446       0    5448    5449    5450    5449    5450    5450       0
    5452    5453    5454    5453    5454    5454       0    5456    5457    5458
    5457    5458    5458       0    5460    5461    5462    5461    5462    5462
       0    5464    5465    5466    5465    5466    5466       0    5468    5469
    5470    5469    5470    5470       0    5472    5473    5474    5473    5474
    5474       0    5476    5477    5478    5477    5478    5478       0    5480
    5481    5482    5481    5482    5482       0    5484    5485    5486    5485
    5486    5486       0    5488    5489    5490    5489    5490    5490       0
    5492    5493    5494    5493    5494    5494       0    5496    5497    5498
    5497    5498    5498       0    5500    5501    5502    5501    5502    5502
       0    5504    5505    5506    5505    5506    5506       0    5508    5509
    5510    5509    5510    5510       0    5512    5513    5514    5513    5514
    5514       0    5516    5517    5518    5517    5518    5518       0    5520
    5521    5522    5521    5522    5522       0    5524    5525    5526    5525
    5526    5526       0    5528    5529    5530    5529    5530    5530       0
    5532    5533    5534    5533    5534    5534       0    5536    5537    5538
    5537    5538    5538       0    5540    5541    5542    5541    5542    5542
       0    5544    5545    5546    5545    5546    5546       0    5548    5549
    5550    5549    5550    5550       0    5552    5553    5554    5553    5554
    5554       0    5556    5557    5558    5557    5558    5558       0    5560
    5561    5562    5561    5562    5562       0    5564    5565    5566    5565
    5566    5566       0    5568    5569    5570    5569    5570    5570       0
    5572    5573    5574    5573    5574    5574       0    5576    5577    5578
    5577    5578    5578       0    5580    5581    5582    5581    5582    5582
       0    5584    5585    5586    5585    5586    5586       0    5588    5589
    5590    5589    5590    5590       0    5592    5593    5594    5593    5594
    5594       0    5596    5597    5598    5597    5598    5598       0    5600
    5601    5602    5601    5602    5602       0    5604    5605    5606    5605
    5606    5606       0    5608    5609    5610    5609    5610    5610       0
    5612    5613    5614    5613    5614    5614       0    5616    5617    5618
    5617    5618    5618       0    5620    5621    5622    5621    5622    5622
       0    5624    5625    5626    5625    5626    5626       0    5628    5629
    5630    5629    5630    5630       0    5632    5633    5634    5633    5634
    5634       0    5636    5637    5638    5637    5638    5638       0    5640
    5641    5642    5641    5642    5642       0    5644    5645    5646    5645
    5646    5646       0    5648    5649    5650    5649    5650    5650       0
    5652    5653    5654    5653    5654    5654       0    5656    5657    5658
    5657    5658    5658       0    5660    5661    5662    5661    5662    5662
       0    5664    5665    5666    5665    5666    5666       0    5668    5669
    5670    5669    5670    5670       0    5672    5673    5674    5673    5674
    5674       0    5676    5677    5678    5677    5678    5678       0    5680
    5681    5682    5681    5682    5682       0    5684    5685    5686    5685
    5686    5686       0    5688    5689    5690    5689    5690    5690       0
    5692    5693    5694    5693    5694    5694       0    5696    5697    5698
    5697    5698    5698       0    5700    5701    5702    5701    5702    5702
       0    5704    5705    5706    5705    5706    5706       0    5708    5709
    5710    5709    5710    5710       0    5712    5713    5714    5713    5714
    5714       0    5716    5717    5718    5717    5718    5718       0    5720
    5721    5722    5721    5722    5722       0    5724    5725    5726    5725
    5726    5726       0    5728    5729    5730    5729    5730    5730       0
    5732    5733    5734    5733    5734    5734       0    5736    5737    5738
    5737    5738    5738       0    5740    5741    5742    5741    5742    5742
       0    5744    5745    5746    5745    5746    5746       0    5748    5749
    5750    5749    5750    5750       0    5752    5753    5754    5753    5754
    5754       0    5756    5757    5758    5757    5758    5758       0    5760
    5761    5762    5761    5762    5762       0    5764    5765    5766    5765
    5766    5766       0    5768    5769    5770    5769    5770    5770       0
    5772    5773    5774    5773    5774    5774       0    5776    5777    5778
    5777    5778    5778       0    5780    5781    5782    5781    5782    5782
       0    5784    5785    5786    5785    5786    5786       0    5788    5789
    5790    5789    5790    5790       0    5792    5793    5794    5793    5794
    5794       0    5796    5797    5798    5797    5798    5798       0    5800
    5801    5802    5801    5802    5802       0    5804    5805    5806    5805
    5806    5806       0    5808    5809    5810    5809    5810    5810       0
    5812    5813    5814    5813    5814    5814       0    5816    5817    5818
    5817    5818    5818       0    5820    5821    5822    5821    5822    5822
       0    5824    5825    5826    5825    5826    5826       0    5828    5829
    5830    5829    5830    5830       0    5832    5833    5834    5833    5834
    5834       0    5836    5837    5838    5837    5838    5838       0    5840
    5841    5842    5841    5842    5842       0    5844    5845    5846    5845
    5846    5846       0    5848    5849    5850    5849    5850    5850       0
    5852    5853    5854    5853    5854    5854       0    5856    5857    5858
    5857    5858    5858       0    5860    5861    5862    5861    5862    5862
       0    5864    5865    5866    5865    5866    5866       0    5868    5869
    5870    5869    5870    5870       0    5872    5873    5874    5873    5874
    5874       0    5876    5877    5878    5877    5878    5878       0    5880
    5881    5882    5881    5882    5882       0    5884    5885    5886    5885
    5886    5886       0    5888    5889    5890    5889    5890    5890       0
    5892    5893    5894    5893    5894    5894       0    5896    5897    5898
    5897    5898    5898       0    5900    5901    5902    5901    5902    5902
       0    5904    5905    5906    5905    5906    5906       0    5908    5909
    5910    5909    5910    5910       0    5912    5913    5914    5913    5914
    5914       0    5916    5917    5918    5917    5918    5918       0    5920
    5921    5922    5921    5922    5922       0    5924    5925    5926    5925
    5926    5926       0    5928    5929    5930    5929    5930    5930       0
    5932    5933    5934    5933    5934    5934       0    5936    5937    5938
    5937    5938    5938       0    5940    5941    5942    5941    5942    5942
       0    5944    5945    5946    5945    5946    5946       0    5948    5949
    5950    5949    5950    5950       0    5952    5953    5954    5953    5954
    5954       0    5956    5957    5958    5957    5958    5958       0    5960
    5961    5962    5961    5962    5962       0    5964    5965    5966    5965
    5966    5966       0    5968    5969    5970    5969    5970    5970       0
    5972    5973    5974    5973    5974    5974       0    5976    5977    5978
    5977    5978    5978       0    5980    5981    5982    5981    5982    5982
       0    5984    5985    5986    5985    5986    5986       0    5988    5989
    5990    5989    5990    5990       0    5992    5993    5994    5993    5994
    5994       0    5996    5997    5998    5997    5998    5998       0    6000
    6001    6002    6001    6002    6002       0    6004    6005    6006    6005
    6006    6006       0    6008    6009    6010    6009    6010    6010       0
    6012    6013    6014    6013    6014    6014       0    6016    6017    6018
    6017    6018    6018       0    6020    6021    6022    6021    6022    6022
       0    6024    6025    6026    6025    6026    6026       0    6028    6029
    6030    6029    6030    6030       0    6032    6033    6034    6033    6034
    6034       0    6036    6037    6038    6037    6038    6038       0    6040
    6041    6042    6041    6042    6042       0    6044    6045    6046    6045
    6046    6046       0    6048    6049    6050    6049    6050    6050       0
    6052    6053    6054    6053    6054    6054       0    6056    6057    6058
    6057    6058    6058       0    6060    6061    6062    6061    6062    6062
       0    6064    6065    6066    6065    6066    6066       0    6068    6069
    6070    6069    6070    6070       0    6072    6073    6074    6073    6074
    6074       0    6076    6077    6078    6077    6078    6078       0    6080
    6081    6082    6081    6082    6082       0    6084    6085    6086    6085
    6086    6086       0    6088    6089    6090    6089    6090    6090       0
    6092    6093    6094    6093    6094    6094       0    6096    6097    6098
    6097    6098    6098       0    6100    6101    6102    6101    6102    6102
       0    6104    6105    6106    6105    6106    6106       0    6108    6109
    6110    6109    6110    6110       0    6112    6113    6114    6113    6114
    6114       0    6116    6117    6118    6117    6118    6118       0    6120
    6121    6122    6121    6122    6122       0    6124    6125    6126    6125
    6126    6126       0    6128    6129    6130    6129    6130    6130       0
    6132    6133    6134    6133    6134    6134       0    6136    6137    6138
    6137    6138    6138       0    6140    6141    6142    6141    6142    6142
       0    6144    6145    6146    6145    6146    6146       0    6148    6149
    6150    6149    6150    6150       0    6152    6153    6154    6153    6154
    6154       0    6156    6157    6158    6157    6158    6158       0    6160
    6161    6162    6161    6162    6162       0    6164    6165    6166    6165
    6166    6166       0    6168    6169    6170    6169    6170    6170       0
    6172    6173    6174    6173    6174    6174       0    6176    6177    6178
    6177    6178    6178       0    6180    6181    6182    6181    6182    6182
       0    6184    6185    6186    6185    6186    6186       0    6188    6189
    6190    6189    6190    6190       0    6192    6193    6194    6193    6194
    6194       0    6196    6197    6198    6197    6198    6198       0    6200
    6201    6202    6201    6202    6202       0    6204    6205    6206    6205
    6206    6206       0    6208    6209    6210    6209    6210    6210       0
    6212    6213    6214    6213    6214    6214       0    6216    6217    6218
    6217    6218    6218       0    6220    6221    6222    6221    6222    6222
       0    6224    6225    6226    6225    6226    6226       0    6228    6229
    6230    6229    6230    6230       0    6232    6233    6234    6233    6234
    6234       0    6236    6237    6238    6237    6238    6238       0    6240
    6241    6242    6241    6242    6242       0    6244    6245    6246    6245
    6246    6246       0    6248    6249    6250    6249    6250    6250       0
    6252    6253    6254    6253    6254    6254       0    6256    6257    6258
    6257    6258    6258       0    6260    6261    6262    6261    6262    6262
       0    6264    6265    6266    6265    6266    6266       0    6268    6269
    6270    6269    6270    6270       0    6272    6273    6274    6273    6274
    6274       0    6276    6277    6278    6277    6278    6278       0    6280
    6281    6282    6281    6282    6282       0    6284    6285    6286    6285
    6286    6286       0    6288    6289    6290    6289    6290    6290       0
    6292    6293    6294    6293    6294    6294       0    6296    6297    6298
    6297    6298    6298       0    6300    6301    6302    6301    6302    6302
       0    6304    6305    6306    6305    6306    6306       0    6308    6309
    6310    6309    6310    6310       0    6312    6313    6314    6313    6314
    6314       0    6316    6317    6318    6317    6318    6318       0    6320
    6321    6322    6321    6322    6322       0    6324    6325    6326    6325
    6326    6326       0    6328    6329    6330    6329    6330    6330       0
    6332    6333    6334    6333    6334    6334       0    6336    6337    6338
    6337    6338    6338       0    6340    6341    6342    6341    6342    6342
       0    6344    6345    6346    6345    6346    6346       0    6348    6349
    6350    6349    6350    6350       0    6352    6353    6354    6353    6354
    6354       0    6356    6357    6358    6357    6358    6358       0    6360
    6361    6362    6361    6362    6362       0    6364    6365    6366    6365
    6366    6366       0    6368    6369    6370    6369    6370    6370       0
    6372    6373    6374    6373    6374    6374       0    6376    6377    6378
    6377    6378    6378       0    6380    6381    6382    6381    6382    6382
       0    6384    6385    6386    6385    6386    6386       0    6388    6389
    6390    6389    6390    6390       0    6392    6393    6394    6393    6394
    6394       0    6396    6397    6398    6397    6398    6398       0    6400
    6401    6402    6401    6402    6402       0    6404    6405    6406    6405
    6406    6406       0    6408    6409    6410    6409    6410    6410       0
    6412    6413    6414    6413    6414    6414       0    6416    6417    6418
    6417    6418    6418       0    6420    6421    6422    6421    6422    6422
       0    6424    6425    6426    6425    6426    6426       0    6428    6429
    6430    6429    6430    6430       0    6432    6433    6434    6433    6434
    6434       0    6436    6437    6438    6437    6438    6438       0    6440
    6441    6442    6441    6442    6442       0    6444    6445    6446    6445
    6446    6446       0    6448    6449    6450    6449    6450    6450       0
    6452    6453    6454    6453    6454    6454       0    6456    6457    6458
    6457    6458    6458       0    6460    6461    6462    6461    6462    6462
       0    6464    6465    6466    6465    6466    6466       0    6468    6469
    6470    6469    6470    6470       0    6472    6473    6474    6473    6474
    6474       0    6476    6477    6478    6477    6478    6478       0    6480
    6481    6482    6481    6482    6482       0    6484    6485    6486    6485
    6486    6486       0    6488    6489    6490    6489    6490    6490       0
    6492    6493    6494    6493    6494    6494       0    6496    6497    6498
    6497    6498    6498       0    6500    6501    6502    6501    6502    6502
       0    6504    6505    6506    6505    6506    6506       0    6508    6509
    6510    6509    6510    6510       0    6512    6513    6514    6513    6514
    6514       0    6516    6517    6518    6517    6518    6518       0    6520
    6521    6522    6521    6522    6522       0    6524    6525    6526    6525
    6526    6526       0    6528    6529    6530    6529    6530    6530       0
    6532    6533    6534    6533    6534    6534       0    6536    6537    6538
    6537    6538    6538       0    6540    6541    6542    6541    6542    6542
       0    6544    6545    6546    6545    6546    6546       0    6548    6549
    6550    6549    6550    6550       0    6552    6553    6554    6553    6554
    6554       0    6556    6557    6558    6557    6558    6558       0    6560
    6561    6562    6561    6562    6562       0    6564    6565    6566    6565
    6566    6566       0    6568    6569    6570    6569    6570    6570       0
    6572    6573    6574    6573    6574    6574       0    6576    6577    6578
    6577    6578    6578       0    6580    6581    6582    6581    6582    6582
       0    6584    6585    6586    6585    6586    6586       0    6588    6589
    6590    6589    6590    6590       0    6592    6593    6594    6593    6594
    6594       0    6596    6597    6598    6597    6598    6598       0    6600
    6601    6602    6601    6602    6602       0    6604    6605    6606    6605
    6606    6606       0    6608    6609    6610    6609    6610    6610       0
    6612    6613    6614    6613    6614    6614       0    6616    6617    6618
    6617    6618    6618       0    6620    6621    6622    6621    6622    6622
       0    6624    6625    6626    6625    6626    6626       0    6628    6629
    6630    6629    6630    6630       0    6632    6633    6634    6633    6634
    6634       0    6636    6637    6638    6637    6638    6638       0    6640
    6641    6642    6641    6642    6642       0    6644    6645    6646    6645
    6646    6646       0    6648    6649    6650    6649    6650    6650       0
    6652    6653    6654    6653    6654    6654       0    6656    6657    6658
    6657    6658    6658       0    6660    6661    6662    6661    6662    6662
       0    6664    6665    6666    6665    6666    6666       0    6668    6669
    6670    6669    6670    6670       0    6672    6673    6674    6673    6674
    6674       0    6676    6677    6678    6677    6678    6678       0    6680
    6681    6682    6681    6682    6682       0    6684    6685    6686    6685
    6686    6686       0    6688    6689    6690    6689    6690    6690       0
    6692    6693    6694    6693    6694    6694       0    6696    6697    6698
    6697    6698    6698       0    6700    6701    6702    6701    6702    6702
       0    6704    6705    6706    6705    6706    6706       0    6708    6709
    6710    6709    6710    6710       0    6712    6713    6714    6713    6714
    6714       0    6716    6717    6718    6717    6718    6718       0    6720
    6721    6722    6721    6722    6722       0    6724    6725    6726    6725
    6726    6726       0    6728    6729    6730    6729    6730    6730       0
    6732    6733    6734    6733    6734    6734       0    6736    6737    6738
    6737    6738    6738       0    6740    6741    6742    6741    6742    6742
       0    6744    6745    6746    6745    6746    6746       0    6748    6749
    6750    6749    6750    6750       0    6752    6753    6754    6753    6754
    6754       0    6756    6757    6758    6757    6758    6758       0    6760
    6761    6762    6761    6762    6762       0    6764    6765    6766    6765
    6766    6766       0    6768    6769    6770    6769    6770    6770       0
    6772    6773    6774    6773    6774    6774       0    6776    6777    6778
    6777    6778    6778       0    6780    6781    6782    6781    6782    6782
       0    6784    6785    6786    6785    6786    6786       0    6788    6789
    6790    6789    6790    6790       0    6792    6793    6794    6793    6794
    6794       0    6796    6797    6798    6797    6798    6798       0    6800
    6801    6802    6801    6802    6802       0    6804    6805    6806    6805
    6806    6806       0    6808    6809    6810    6809    6810    6810       0
    6812    6813    6814    6813    6814    6814       0    6816    6817    6818
    6817    6818    6818       0    6820    6821    6822    6821    6822    6822
       0    6824    6825    6826    6825    6826    6826       0    6828    6829
    6830    6829    6830    6830       0    6832    6833    6834    6833    6834
    6834       0    6836    6837    6838    6837    6838    6838       0    6840
    6841    6842    6841    6842    6842       0    6844    6845    6846    6845
    6846    6846       0    6848    6849    6850    6849    6850    6850       0
    6852    6853    6854    6853    6854    6854       0    6856    6857    6858
    6857    6858    6858       0    6860    6861    6862    6861    6862    6862
       0    6864    6865    6866    6865    6866    6866       0    6868    6869
    6870    6869    6870    6870       0    6872    6873    6874    6873    6874
    6874       0    6876    6877    6878    6877    6878    6878       0    6880
    6881    6882    6881    6882    6882       0    6884    6885    6886    6885
    6886    6886       0    6888    6889    6890    6889    6890    6890       0
    6892    6893    6894    6893    6894    6894       0    6896    6897    6898
    6897    6898    6898       0    6900    6901    6902    6901    6902    6902
       0    6904    6905    6906    6905    6906    6906       0    6908    6909
    6910    6909    6910    6910       0    6912    6913    6914    6913    6914
    6914       0    6916    6917    6918    6917    6918    6918       0    6920
    6921    6922    6921    6922    6922       0    6924    6925    6926    6925
    6926    6926       0    6928    6929    6930    6929    6930    6930       0
    6932    6933    6934    6933    6934    6934       0    6936    6937    6938
    6937    6938    6938       0    6940    6941    6942    6941    6942    6942
       0    6944    6945    6946    6945    6946    6946       0    6948    6949
    6950    6949    6950    6950       0    6952    6953    6954    6953    6954
    6954       0    6956    6957    6958    6957    6958    6958       0    6960
    6961    6962    6961    6962    6962       0    6964    6965    6966    6965
    6966    6966       0    6968    6969    6970    6969    6970    6970       0
    6972    6973    6974    6973    6974    6974       0    6976    6977    6978
    6977    6978    6978       0    6980    6981    6982    6981    6982    6982
       0    6984    6985    6986    6985    6986    6986       0    6988    6989
    6990    6989    6990    6990       0    6992    6993    6994    6993    6994
    6994       0    6996    6997    6998    6997    6998    6998       0    7000
    7001    7002    7001    7002    7002       0    7004    7005    7006    7005
    7006    7006       0    7008    7009    7010    7009    7010    7010       0
    7012    7013    7014    7013    7014    7014       0    7016    7017    7018
    7017    7018    7018       0    7020    7021    7022    7021    7022    7022
       0    7024    7025    7026    7025    7026    7026       0    7028    7029
    7030    7029    7030    7030       0    7032    7033    7034    7033    7034
    7034       0    7036    7037    7038    7037    7038    7038       0    7040
    7041    7042    7041    7042    7042       0    7044    7045    7046    7045
    7046    7046       0    7048    7049    7050    7049    7050    7050       0
    7052    7053    7054    7053    7054    7054       0    7056    7057    7058
    7057    7058    7058       0    7060    7061    7062    7061    7062    7062
       0    7064    7065    7066    7065    7066    7066       0    7068    7069
    7070    7069    7070    7070       0    7072    7073    7074    7073    7074
    7074       0    7076    7077    7078    7077    7078    7078       0    7080
    7081    7082    7081    7082    7082       0    7084    7085    7086    7085
    7086    7086       0    7088    7089    7090    7089    7090    7090       0
    7092    7093    7094    7093    7094    7094       0    7096    7097    7098
    7097    7098    7098       0    7100    7101    7102    7101    7102    7102
       0    7104    7105    7106    7105    7106    7106       0    7108    7109
    7110    7109    7110    7110       0    7112    7113    7114    7113    7114
    7114       0    7116    7117    7118    7117    7118    7118       0    7120
    7121    7122    7121    7122    7122       0    7124    7125    7126    7125
    7126    7126       0    7128    7129    7130    7129    7130    7130       0
    7132    7133    7134    7133    7134    7134       0    7136    7137    7138
    7137    7138    7138       0    7140    7141    7142    7141    7142    7142
       0    7144    7145    7146    7145    7146    7146       0    7148    7149
    7150    7149    7150    7150       0    7152    7153    7154    7153    7154
    7154       0    7156    7157    7158    7157    7158    7158       0    7160
    7161    7162    7161    7162    7162       0    7164    7165    7166    7165
    7166    7166       0    7168    7169    7170    7169    7170    7170       0
    7172    7173    7174    7173    7174    7174       0    7176    7177    7178
    7177    7178    7178       0    7180    7181    7182    7181    7182    7182
       0    7184    7185    7186    7185    7186    7186       0    7188    7189
    7190    7189    7190    7190       0    7192    7193    7194    7193    7194
    7194       0    7196    7197    7198    7197    7198    7198       0    7200
    7201    7202    7201    7202    7202       0    7204    7205    7206    7205
    7206    7206       0    7208    7209    7210    7209    7210    7210       0
    7212    7213    7214    7213    7214    7214       0    7216    7217    7218
    7217    7218    7218       0    7220    7221    7222    7221    7222    7222
       0    7224    7225    7226    7225    7226    7226       0    7228    7229
    7230    7229    7230    7230       0    7232    7233    7234    7233    7234
    7234       0    7236    7237    7238    7237    7238    7238       0    7240
    7241    7242    7241    7242    7242       0    7244    7245    7246    7245
    7246    7246       0    7248    7249    7250    7249    7250    7250       0
    7252    7253    7254    7253    7254    7254       0    7256    7257    7258
    7257    7258    7258       0    7260    7261    7262    7261    7262    7262
       0    7264    7265    7266    7265    7266    7266       0    7268    7269
    7270    7269    7270    7270       0    7272    7273    7274    7273    7274
    7274       0    7276    7277    7278    7277    7278    7278       0    7280
    7281    7282    7281    7282    7282       0    7284    7285    7286    7285
    7286    7286       0    7288    7289    7290    7289    7290    7290       0
    7292    7293    7294    7293    7294    7294       0    7296    7297    7298
    7297    7298    7298       0    7300    7301    7302    7301    7302    7302
       0    7304    7305    7306    7305    7306    7306       0    7308    7309
    7310    7309    7310    7310       0    7312    7313    7314    7313    7314
    7314       0    7316    7317    7318    7317    7318    7318       0    7320
    7321    7322    7321    7322    7322       0    7324    7325    7326    7325
    7326    7326       0    7328    7329    7330    7329    7330    7330       0
    7332    7333    7334    7333    7334    7334       0    7336    7337    7338
    7337    7338    7338       0    7340    7341    7342    7341    7342    7342
       0    7344    7345    7346    7345    7346    7346       0    7348    7349
    7350    7349    7350    7350       0    7352    7353    7354    7353    7354
    7354       0    7356    7357    7358    7357    7358    7358       0    7360
    7361    7362    7361    7362    7362       0    7364    7365    7366    7365
    7366    7366       0    7368    7369    7370    7369    7370    7370       0
    7372    7373    7374    7373    7374    7374       0    7376    7377    7378
    7377    7378    7378       0    7380    7381    7382    7381    7382    7382
       0    7384    7385    7386    7385    7386    7386       0    7388    7389
    7390    7389    7390    7390       0    7392    7393    7394    7393    7394
    7394       0    7396    7397    7398    7397    7398    7398       0    7400
    7401    7402    7401    7402    7402       0    7404    7405    7406    7405
    7406    7406       0    7408    7409    7410    7409    7410    7410       0
    7412    7413    7414    7413    7414    7414       0    7416    7417    7418
    7417    7418    7418       0    7420    7421    7422    7421    7422    7422
       0    7424    7425    7426    7425    7426    7426       0    7428    7429
    7430    7429    7430    7430       0    7432    7433    7434    7433    7434
    7434       0    7436    7437    7438    7437    7438    7438       0    7440
    7441    7442    7441    7442    7442       0    7444    7445    7446    7445
    7446    7446       0    7448    7449    7450    7449    7450    7450       0
    7452    7453    7454    7453    7454    7454       0    7456    7457    7458
    7457    7458    7458       0    7460    7461    7462    7461    7462    7462
       0    7464    7465    7466    7465    7466    7466       0    7468    7469
    7470    7469    7470    7470       0    7472    7473    7474    7473    7474
    7474       0    7476    7477    7478    7477    7478    7478       0    7480
    7481    7482    7481    7482    7482       0    7484    7485    7486    7485
    7486    7486       0    7488    7489    7490    7489    7490    7490       0
    7492    7493    7494    7493    7494    7494       0    7496    7497    7498
    7497    7498    7498       0    7500    7501    7502    7501    7502    7502
       0    7504    7505    7506    7505    7506    7506       0    7508    7509
    7510    7509    7510    7510       0    7512    7513    7514    7513    7514
    7514       0    7516    7517    7518    7517    7518    7518       0    7520
    7521    7522    7521    7522    7522       0    7524    7525    7526    7525
    7526    7526       0    7528    7529    7530    7529    7530    7530       0
    7532    7533    7534    7533    7534    7534       0    7536    7537    7538
    7537    7538    7538       0    7540    7541    7542    7541    7542    7542
       0    7544    7545    7546    7545    7546    7546       0    7548    7549
    7550    7549    7550    7550       0    7552    7553    7554    7553    7554
    7554       0    7556    7557    7558    7557    7558    7558       0    7560
    7561    7562    7561    7562    7562       0    7564    7565    7566    7565
    7566    7566       0    7568    7569    7570    7569    7570    7570       0
    7572    7573    7574    7573    7574    7574       0    7576    7577    7578
    7577    7578    7578       0    7580    7581    7582    7581    7582    7582
       0    7584    7585    7586    7585    7586    7586       0    7588    7589
    7590    7589    7590    7590       0    7592    7593    7594    7593    7594
    7594       0    7596    7597    7598    7597    7598    7598       0    7600
    7601    7602    7601    7602    7602       0    7604    7605    7606    7605
    7606    7606       0    7608    7609    7610    7609    7610    7610       0
    7612    7613    7614    7613    7614    7614       0    7616    7617    7618
    7617    7618    7618       0    7620    7621    7622    7621    7622    7622
       0    7624    7625    7626    7625    7626    7626       0    7628    7629
    7630    7629    7630    7630       0    7632    7633    7634    7633    7634
    7634       0    7636    7637    7638    7637    7638    7638       0    7640
    7641    7642    7641    7642    7642       0    7644    7645    7646    7645
    7646    7646       0    7648    7649    7650    7649    7650    7650       0
    7652    7653    7654    7653    7654    7654       0    7656    7657    7658
    7657    7658    7658       0    7660    7661    7662    7661    7662    7662
       0    7664    7665    7666    7665    7666    7666       0    7668    7669
    7670    7669    7670    7670       0    7672    7673    7674    7673    7674
    7674       0    7676    7677    7678    7677    7678    7678       0    7680
    7681    7682    7681    7682    7682       0    7684    7685    7686    7685
    7686    7686       0    7688    7689    7690    7689    7690    7690       0
    7692    7693    7694    7693    7694    7694       0    7696    7697    7698
    7697    7698    7698       0    7700    7701    7702    7701    7702    7702
       0    7704    7705    7706    7705    7706    7706       0    7708    7709
    7710    7709    7710    7710       0    7712    7713    7714    7713    7714
    7714       0    7716    7717    7718    7717    7718    7718       0    7720
    7721    7722    7721    7722    7722       0    7724    7725    7726    7725
    7726    7726       0    7728    7729    7730    7729    7730    7730       0
    7732    7733    7734    7733    7734    7734       0    7736    7737    7738
    7737    7738    7738       0    7740    7741    7742    7741    7742    7742
       0    7744    7745    7746    7745    7746    7746       0    7748    7749
    7750    7749    7750    7750       0    7752    7753    7754    7753    7754
    7754       0    7756    7757    7758    7757    7758    7758       0    7760
    7761    7762    7761    7762    7762       0    7764    7765    7766    7765
    7766    7766       0    7768    7769    7770    7769    7770    7770       0
    7772    7773    7774    7773    7774    7774       0    7776    7777    7778
    7777    7778    7778       0    7780    7781    7782    7781    7782    7782
       0    7784    7785    7786    7785    7786    7786       0    7788    7789
    7790    7789    7790    7790       0    7792    7793    7794    7793    7794
    7794       0    7796    7797    7798    7797    7798    7798       0    7800
    7801    7802    7801    7802    7802       0    7804    7805    7806    7805
    7806    7806       0    7808    7809    7810    7809    7810    7810       0
    7812    7813    7814    7813    7814    7814       0    7816    7817    7818
    7817    7818    7818       0    7820    7821    7822    7821    7822    7822
       0    7824    7825    7826    7825    7826    7826       0    7828    7829
    7830    7829    7830    7830       0    7832    7833    7834    7833    7834
    7834       0    7836    7837    7838    7837    7838    7838       0    7840
    7841    7842    7841    7842    7842       0    7844    7845    7846    7845
    7846    7846       0    7848    7849    7850    7849    7850    7850       0
    7852    7853    7854    7853    7854    7854       0    7856    7857    7858
    7857    7858    7858       0    7860    7861    7862    7861    7862    7862
       0    7864    7865    7866    7865    7866    7866       0    7868    7869
    7870    7869    7870    7870       0    7872    7873    7874    7873    7874
    7874       0    7876    7877    7878    7877    7878    7878       0    7880
    7881    7882    7881    7882    7882       0    7884    7885    7886    7885
    7886    7886       0    7888    7889    7890    7889    7890    7890       0
    7892    7893    7894    7893    7894    7894       0    7896    7897    7898
    7897    7898    7898       0    7900    7901    7902    7901    7902    7902
       0    7904    7905    7906    7905    7906    7906       0    7908    7909
    7910    7909    7910    7910       0    7912    7913    7914    7913    7914
    7914       0    7916    7917    7918    7917    7918    7918       0    7920
    7921    7922    7921    7922    7922       0    7924    7925    7926    7925
    7926    7926       0    7928    7929    7930    7929    7930    7930       0
    7932    7933    7934    7933    7934    7934       0    7936    7937    7938
    7937    7938    7938       0    7940    7941    7942    7941    7942    7942
       0    7944    7945    7946    7945    7946    7946       0    7948    7949
    7950    7949    7950    7950       0    7952    7953    7954    7953    7954
    7954       0    7956    7957    7958    7957    7958    7958       0    7960
    7961    7962    7961    7962    7962       0    7964    7965    7966    7965
    7966    7966       0    7968    7969    7970    7969    7970    7970       0
    7972    7973    7974    7973    7974    7974       0    7976    7977    7978
    7977    7978    7978       0    7980    7981    7982    7981    7982    7982
       0    7984    7985    7986    7985    7986    7986       0    7988    7989
    7990    7989    7990    7990       0    7992    7993    7994    7993    7994
    7994       0    7996    7997    7998    7997    7998    7998       0    8000
    8001    8002    8001    8002    8002       0    8004    8005    8006    8005
    8006    8006       0    8008    8009    8010    8009    8010    8010       0
    8012    8013    8014    8013    8014    8014       0    8016    8017    8018
    8017    8018    8018       0    8020    8021    8022    8021    8022    8022
       0    8024    8025    8026    8025    8026    8026       0    8028    8029
    8030    8029    8030    8030       0    8032    8033    8034    8033    8034
    8034       0    8036    8037    8038    8037    8038    8038       0    8040
    8041    8042    8041    8042    8042       0    8044    8045    8046    8045
    8046    8046       0    8048    8049    8050    8049    8050    8050       0
    8052    8053    8054    8053    8054    8054       0    8056    8057    8058
    8057    8058    8058       0    8060    8061    8062    8061    8062    8062
       0    8064    8065    8066    8065    8066    8066       0    8068    8069
    8070    8069    8070    8070       0    8072    8073    8074    8073    8074
    8074       0    8076    8077    8078    8077    8078    8078       0    8080
    8081    8082    8081    8082    8082       0    8084    8085    8086    8085
    8086    8086       0    8088    8089    8090    8089    8090    8090       0
    8092    8093    8094    8093    8094    8094       0    8096    8097    8098
    8097    8098    8098       0    8100    8101    8102    8101    8102    8102
       0    8104    8105    8106    8105    8106    8106       0    8108    8109
    8110    8109    8110    8110       0    8112    8113    8114    8113    8114
    8114       0    8116    8117    8118    8117    8118    8118       0    8120
    8121    8122    8121    8122    8122       0    8124    8125    8126    8125
    8126    8126       0    8128    8129    8130    8129    8130    8130       0
    8132    8133    8134    8133    8134    8134       0    8136    8137    8138
    8137    8138    8138       0    8140    8141    8142    8141    8142    8142
       0    8144    8145    8146    8145    8146    8146       0    8148    8149
    8150    8149    8150    8150       0    8152    8153    8154    8153    8154
    8154       0    8156    8157    8158    8157    8158    8158       0    8160
    8161    8162    8161    8162    8162       0    8164    8165    8166    8165
    8166    8166       0    8168    8169    8170    8169    8170    8170       0
    8172    8173    8174    8173    8174    8174       0    8176    8177    8178
    8177    8178    8178       0    8180    8181    8182    8181    8182    8182
       0    8184    8185    8186    8185    8186    8186       0    8188    8189
    8190    8189    8190    8190       0    8192    8193    8194    8193    8194
    8194       0    8196    8197    8198    8197    8198    8198       0    8200
    8201    8202    8201    8202    8202       0    8204    8205    8206    8205
    8206    8206       0    8208    8209    8210    8209    8210    8210       0
    8212    8213    8214    8213    8214    8214       0    8216    8217    8218
    8217    8218    8218       0    8220    8221    8222    8221    8222    8222
       0    8224    8225    8226    8225    8226    8226       0    8228    8229
    8230    8229    8230    8230       0    8232    8233    8234    8233    8234
    8234       0    8236    8237    8238    8237    8238    8238       0    8240
    8241    8242    8241    8242    8242       0    8244    8245    8246    8245
    8246    8246       0    8248    8249    8250    8249    8250    8250       0
    8252    8253    8254    8253    8254    8254       0    8256    8257    8258
    8257    8258    8258       0    8260    8261    8262    8261    8262    8262
       0    8264    8265    8266    8265    8266    8266       0    8268    8269
    8270    8269    8270    8270       0    8272    8273    8274    8273    8274
    8274       0    8276    8277    8278    8277    8278    8278       0    8280
    8281    8282    8281    8282    8282       0    8284    8285    8286    8285
    8286    8286       0    8288    8289    8290    8289    8290    8290       0
    8292    8293    8294    8293    8294    8294       0    8296    8297    8298
    8297    8298    8298       0    8300    8301    8302    8301    8302    8302
       0    8304    8305    8306    8305    8306    8306       0    8308    8309
    8310    8309    8310    8310       0    8312    8313    8314    8313    8314
    8314       0    8316    8317    8318    8317    8318    8318       0    8320
    8321    8322    8321    8322    8322       0    8324    8325    8326    8325
    8326    8326       0    8328    8329    8330    8329    8330    8330       0
    8332    8333    8334    8333    8334    8334       0    8336    8337    8338
    8337    8338    8338       0    8340    8341    8342    8341    8342    8342
       0    8344    8345    8346    8345    8346    8346       0    8348    8349
    8350    8349    8350    8350       0    8352    8353    8354    8353    8354
    8354       0    8356    8357    8358    8357    8358    8358       0    8360
    8361    8362    8361    8362    8362       0    8364    8365    8366    8365
    8366    8366       0    8368    8369    8370    8369    8370    8370       0
    8372    8373    8374    8373    8374    8374       0    8376    8377    8378
    8377    8378    8378       0    8380    8381    8382    8381    8382    8382
       0    8384    8385    8386    8385    8386    8386       0    8388    8389
    8390    8389    8390    8390       0    8392    8393    8394    8393    8394
    8394       0    8396    8397    8398    8397    8398    8398       0    8400
    8401    8402    8401    8402    8402       0    8404    8405    8406    8405
    8406    8406       0    8408    8409    8410    8409    8410    8410       0
    8412    8413    8414    8413    8414    8414       0    8416    8417    8418
    8417    8418    8418       0    8420    8421    8422    8421    8422    8422
       0    8424    8425    8426    8425    8426    8426       0    8428    8429
    8430    8429    8430    8430       0    8432    8433    8434    8433    8434
    8434       0    8436    8437    8438    8437    8438    8438       0    8440
    8441    8442    8441    8442    8442       0    8444    8445    8446    8445
    8446    8446       0    8448    8449    8450    8449    8450    8450       0
    8452    8453    8454    8453    8454    8454       0    8456    8457    8458
    8457    8458    8458       0    8460    8461    8462    8461    8462    8462
       0    8464    8465    8466    8465    8466    8466       0    8468    8469
    8470    8469    8470    8470       0    8472    8473    8474    8473    8474
    8474       0    8476    8477    8478    8477    8478    8478       0    8480
    8481    8482    8481    8482    8482       0    8484    8485    8486    8485
    8486    8486       0    8488    8489    8490    8489    8490    8490       0
    8492    8493    8494    8493    8494    8494       0    8496    8497    8498
    8497    8498    8498       0    8500    8501    8502    8501    8502    8502
       0    8504    8505    8506    8505    8506    8506       0    8508    8509
    8510    8509    8510    8510       0    8512    8513    8514    8513    8514
    8514       0    8516    8517    8518    8517    8518    8518       0    8520
    8521    8522    8521    8522    8522       0    8524    8525    8526    8525
    8526    8526       0    8528    8529    8530    8529    8530    8530       0
    8532    8533    8534    8533    8534    8534       0    8536    8537    8538
    8537    8538    8538       0    8540    8541    8542    8541    8542    8542
       0    8544    8545    8546    8545    8546    8546       0    8548    8549
    8550    8549    8550    8550       0    8552    8553    8554    8553    8554
    8554       0    8556    8557    8558    8557    8558    8558       0    8560
    8561    8562    8561    8562    8562       0    8564    8565    8566    8565
    8566    8566       0    8568    8569    8570    8569    8570    8570       0
    8572    8573    8574    8573    8574    8574       0    8576    8577    8578
    8577    8578    8578       0    8580    8581    8582    8581    8582    8582
       0    8584    8585    8586    8585    8586    8586       0    8588    8589
    8590    8589    8590    8590       0    8592    8593    8594    8593    8594
    8594       0    8596    8597    8598    8597    8598    8598       0    8600
    8601    8602    8601    8602    8602       0    8604    8605    8606    8605
    8606    8606       0    8608    8609    8610    8609    8610    8610       0
    8612    8613    8614    8613    8614    8614       0    8616    8617    8618
    8617    8618    8618       0    8620    8621    8622    8621    8622    8622
       0    8624    8625    8626    8625    8626    8626       0    8628    8629
    8630    8629    8630    8630       0    8632    8633    8634    8633    8634
    8634       0    8636    8637    8638    8637    8638    8638       0    8640
    8641    8642    8641    8642    8642       0    8644    8645    8646    8645
    8646    8646       0    8648    8649    8650    8649    8650    8650       0
    8652    8653    8654    8653    8654    8654       0    8656    8657    8658
    8657    8658    8658       0    8660    8661    8662    8661    8662    8662
       0    8664    8665    8666    8665    8666    8666       0    8668    8669
    8670    8669    8670    8670       0    8672    8673    8674    8673    8674
    8674       0    8676    8677    8678    8677    8678    8678       0    8680
    8681    8682    8681    8682    8682       0    8684    8685    8686    8685
    8686    8686       0    8688    8689    8690    8689    8690    8690       0
    8692    8693    8694    8693    8694    8694       0    8696    8697    8698
    8697    8698    8698       0    8700    8701    8702    8701    8702    8702
       0    8704    8705    8706    8705    8706    8706       0    8708    8709
    8710    8709    8710    8710       0    8712    8713    8714    8713    8714
    8714       0    8716    8717    8718    8717    8718    8718       0    8720
    8721    8722    8721    8722    8722       0    8724    8725    8726    8725
    8726    8726       0    8728    8729    8730    8729    8730    8730       0
    8732    8733    8734    8733    8734    8734       0    8736    8737    8738
    8737    8738    8738       0    8740    8741    8742    8741    8742    8742
       0    8744    8745    8746    8745    8746    8746       0    8748    8749
    8750    8749    8750    8750       0    8752    8753    8754    8753    8754
    8754       0    8756    8757    8758    8757    8758    8758       0    8760
    8761    8762    8761    8762    8762       0    8764    8765    8766    8765
    8766    8766       0    8768    8769    8770    8769    8770    8770       0
    8772    8773    8774    8773    8774    8774       0    8776    8777    8778
    8777    8778    8778       0    8780    8781    8782    8781    8782    8782
       0    8784    8785    8786    8785    8786    8786       0    8788    8789
    8790    8789    8790    8790       0    8792    8793    8794    8793    8794
    8794       0    8796    8797    8798    8797    8798    8798       0    8800
    8801    8802    8801    8802    8802       0    8804    8805    8806    8805
    8806    8806       0    8808    8809    8810    8809    8810    8810       0
    8812    8813    8814    8813    8814    8814       0    8816    8817    8818
    8817    8818    8818       0    8820    8821    8822    8821    8822    8822
       0    8824    8825    8826    8825    8826    8826       0    8828    8829
    8830    8829    8830    8830       0    8832    8833    8834    8833    8834
    8834       0    8836    8837    8838    8837    8838    8838       0    8840
    8841    8842    8841    8842    8842       0    8844    8845    8846    8845
    8846    8846       0    8848    8849    8850    8849    8850    8850       0
    8852    8853    8854    8853    8854    8854       0    8856    8857    8858
    8857    8858    8858       0    8860    8861    8862    8861    8862    8862
       0    8864    8865    8866    8865    8866    8866       0    8868    8869
    8870    8869    8870    8870       0    8872    8873    8874    8873    8874
    8874       0    8876    8877    8878    8877    8878    8878       0    8880
    8881    8882    8881    8882    8882       0    8884    8885    8886    8885
    8886    8886       0    8888    8889    8890    8889    8890    8890       0
    8892    8893    8894    8893    8894    8894       0    8896    8897    8898
    8897    8898    8898       0    8900    8901    8902    8901    8902    8902
       0    8904    8905    8906    8905    8906    8906       0    8908    8909
    8910    8909    8910    8910       0    8912    8913    8914    8913    8914
    8914       0    8916    8917    8918    8917    8918    8918       0    8920
    8921    8922    8921    8922    8922       0    8924    8925    8926    8925
    8926    8926       0    8928    8929    8930    8929    8930    8930       0
    8932    8933    8934    8933    8934    8934       0    8936    8937    8938
    8937    8938    8938       0    8940    8941    8942    8941    8942    8942
       0    8944    8945    8946    8945    8946    8946       0    8948    8949
    8950    8949    8950    8950       0    8952    8953    8954    8953    8954
    8954       0    8956    8957    8958    8957    8958    8958       0    8960
    8961    8962    8961    8962    8962       0    8964    8965    8966    8965
    8966    8966       0    8968    8969    8970    8969    8970    8970       0
    8972    8973    8974    8973    8974    8974       0    8976    8977    8978
    8977    8978    8978       0    8980    8981    8982    8981    8982    8982
       0    8984    8985    8986    8985    8986    8986       0    8988    8989
    8990    8989    8990    8990       0    8992    8993    8994    8993    8994
    8994       0    8996    8997    8998    8997    8998    8998       0    9000
    9001    9002    9001    9002    9002       0    9004    9005    9006    9005
    9006    9006       0    9008    9009    9010    9009    9010    9010       0
    9012    9013    9014    9013    9014    9014       0    9016    9017    9018
    9017    9018    9018       0    9020    9021    9022    9021    9022    9022
       0    9024    9025    9026    9025    9026    9026       0    9028    9029
    9030    9029    9030    9030       0    9032    9033    9034    9033    9034
    9034       0    9036    9037    9038    9037    9038    9038       0    9040
    9041    9042    9041    9042    9042       0    9044    9045    9046    9045
    9046    9046       0    9048    9049    9050    9049    9050    9050       0
    9052    9053    9054    9053    9054    9054       0    9056    9057    9058
    9057    9058    9058       0    9060    9061    9062    9061    9062    9062
       0    9064    9065    9066    9065    9066    9066       0    9068    9069
    9070    9069    9070    9070       0    9072    9073    9074    9073    9074
    9074       0    9076    9077    9078    9077    9078    9078       0    9080
    9081    9082    9081    9082    9082       0    9084    9085    9086    9085
    9086    9086       0    9088    9089    9090    9089    9090    9090       0
    9092    9093    9094    9093    9094    9094       0    9096    9097    9098
    9097    9098    9098       0    9100    9101    9102    9101    9102    9102
       0    9104    9105    9106    9105    9106    9106       0    9108    9109
    9110    9109    9110    9110       0    9112    9113    9114    9113    9114
    9114       0    9116    9117    9118    9117    9118    9118       0    9120
    9121    9122    9121    9122    9122       0    9124    9125    9126    9125
    9126    9126       0    9128    9129    9130    9129    9130    9130       0
    9132    9133    9134    9133    9134    9134       0    9136    9137    9138
    9137    9138    9138       0    9140    9141    9142    9141    9142    9142
       0    9144    9145    9146    9145    9146    9146       0    9148    9149
    9150    9149    9150    9150       0    9152    9153    9154    9153    9154
    9154       0    9156    9157    9158    9157    9158    9158       0    9160
    9161    9162    9161    9162    9162       0    9164    9165    9166    9165
    9166    9166       0    9168    9169    9170    9169    9170    9170       0
    9172    9173    9174    9173    9174    9174       0    9176    9177    9178
    9177    9178    9178       0    9180    9181    9182    9181    9182    9182
       0    9184    9185    9186    9185    9186    9186       0    9188    9189
    9190    9189    9190    9190       0    9192    9193    9194    9193    9194
    9194       0    9196    9197    9198    9197    9198    9198       0    9200
    9201    9202    9201    9202    9202       0    9204    9205    9206    9205
    9206    9206       0    9208    9209    9210    9209    9210    9210       0
    9212    9213    9214    9213    9214    9214       0    9216    9217    9218
    9217    9218    9218       0    9220    9221    9222    9221    9222    9222
       0    9224    9225    9226    9225    9226    9226       0    9228    9229
    9230    9229    9230    9230       0    9232    9233    9234    9233    9234
    9234       0    9236    9237    9238    9237    9238    9238       0    9240
    9241    9242    9241    9242    9242       0    9244    9245    9246    9245
    9246    9246       0    9248    9249    9250    9249    9250    9250       0
    9252    9253    9254    9253    9254    9254       0    9256    9257    9258
    9257    9258    9258       0    9260    9261    9262    9261    9262    9262
       0    9264    9265    9266    9265    9266    9266       0    9268    9269
    9270    9269    9270    9270       0    9272    9273    9274    9273    9274
    9274       0    9276    9277    9278    9277    9278    9278       0    9280
    9281    9282    9281    9282    9282       0    9284    9285    9286    9285
    9286    9286       0    9288    9289    9290    9289    9290    9290       0
    9292    9293    9294    9293    9294    9294       0    9296    9297    9298
    9297    9298    9298       0    9300    9301    9302    9301    9302    9302
       0    9304    9305    9306    9305    9306    9306       0    9308    9309
    9310    9309    9310    9310       0    9312    9313    9314    9313    9314
    9314       0    9316    9317    9318    9317    9318    9318       0    9320
    9321    9322    9321    9322    9322       0    9324    9325    9326    9325
    9326    9326       0    9328    9329    9330    9329    9330    9330       0
    9332    9333    9334    9333    9334    9334       0    9336    9337    9338
    9337    9338    9338       0    9340    9341    9342    9341    9342    9342
       0    9344    9345    9346    9345    9346    9346       0    9348    9349
    9350    9349    9350    9350       0    9352    9353    9354    9353    9354
    9354       0    9356    9357    9358    9357    9358    9358       0    9360
    9361    9362    9361    9362    9362       0    9364    9365    9366    9365
    9366    9366       0    9368    9369    9370    9369    9370    9370       0
    9372    9373    9374    9373    9374    9374       0    9376    9377    9378
    9377    9378    9378       0    9380    9381    9382    9381    9382    9382
       0    9384    9385    9386    9385    9386    9386       0    9388    9389
    9390    9389    9390    9390       0    9392    9393    9394    9393    9394
    9394       0    9396    9397    9398    9397    9398    9398       0    9400
    9401    9402    9401    9402    9402       0    9404    9405    9406    9405
    9406    9406       0    9408    9409    9410    9409    9410    9410       0
    9412    9413    9414    9413    9414    9414       0    9416    9417    9418
    9417    9418    9418       0    9420    9421    9422    9421    9422    9422
       0    9424    9425    9426    9425    9426    9426       0    9428    9429
    9430    9429    9430    9430       0    9432    9433    9434    9433    9434
    9434       0    9436    9437    9438    9437    9438    9438       0    9440
    9441    9442    9441    9442    9442       0    9444    9445    9446    9445
    9446    9446       0    9448    9449    9450    9449    9450    9450       0
    9452    9453    9454    9453    9454    9454       0    9456    9457    9458
    9457    9458    9458       0    9460    9461    9462    9461    9462    9462
       0    9464    9465    9466    9465    9466    9466       0    9468    9469
    9470    9469    9470    9470       0    9472    9473    9474    9473    9474
    9474       0    9476    9477    9478    9477    9478    9478       0    9480
    9481    9482    9481    9482    9482       0    9484    9485    9486    9485
    9486    9486       0    9488    9489    9490    9489    9490    9490       0
    9492    9493    9494    9493    9494    9494       0    9496    9497    9498
    9497    9498    9498       0    9500    9501    9502    9501    9502    9502
       0    9504    9505    9506    9505    9506    9506       0    9508    9509
    9510    9509    9510    9510       0    9512    9513    9514    9513    9514
    9514       0    9516    9517    9518    9517    9518    9518       0    9520
    9521    9522    9521    9522    9522       0    9524    9525    9526    9525
    9526    9526       0    9528    9529    9530    9529    9530    9530       0
    9532    9533    9534    9533    9534    9534       0    9536    9537    9538
    9537    9538    9538       0    9540    9541    9542    9541    9542    9542
       0    9544    9545    9546    9545    9546    9546       0    9548    9549
    9550    9549    9550    9550       0    9552    9553    9554    9553    9554
    9554       0    9556    9557    9558    9557    9558    9558       0    9560
    9561    9562    9561    9562    9562       0    9564    9565    9566    9565
    9566    9566       0    9568    9569    9570    9569    9570    9570       0
    9572    9573    9574    9573    9574    9574       0    9576    9577    9578
    9577    9578    9578       0    9580    9581    9582    9581    9582    9582
       0    9584    9585    9586    9585    9586    9586       0    9588    9589
    9590    9589    9590    9590       0    9592    9593    9594    9593    9594
    9594       0    9596    9597    9598    9597    9598    9598       0    9600
    9601    9602    9601    9602    9602       0    9604    9605    9606    9605
    9606    9606       0    9608    9609    9610    9609    9610    9610       0
    9612    9613    9614    9613    9614    9614       0    9616    9617    9618
    9617    9618    9618       0    9620    9621    9622    9621    9622    9622
       0    9624    9625    9626    9625    9626    9626       0    9628    9629
    9630    9629    9630    9630       0    9632    9633    9634    9633    9634
    9634       0    9636    9637    9638    9637    9638    9638       0    9640
    9641    9642    9641    9642    9642       0    9644    9645    9646    9645
    9646    9646       0    9648    9649    9650    9649    9650    9650       0
    9652    9653    9654    9653    9654    9654       0    9656    9657    9658
    9657    9658    9658       0    9660    9661    9662    9661    9662    9662
       0    9664    9665    9666    9665    9666    9666       0    9668    9669
    9670    9669    9670    9670       0    9672    9673    9674    9673    9674
    9674       0    9676    9677    9678    9677    9678    9678       0    9680
    9681    9682    9681    9682    9682       0    9684    9685    9686    9685
    9686    9686       0    9688    9689    9690    9689    9690    9690       0
    9692    9693    9694    9693    9694    9694       0    9696    9697    9698
    9697    9698    9698       0    9700    9701    9702    9701    9702    9702
       0    9704    9705    9706    9705    9706    9706       0    9708    9709
    9710    9709    9710    9710       0    9712    9713    9714    9713    9714
    9714       0    9716    9717    9718    9717    9718    9718       0    9720
    9721    9722    9721    9722    9722       0    9724    9725    9726    9725
    9726    9726       0    9728    9729    9730    9729    9730    9730       0
    9732    9733    9734    9733    9734    9734       0    9736    9737    9738
    9737    9738    9738       0    9740    9741    9742    9741    9742    9742
       0    9744    9745    9746    9745    9746    9746       0    9748    9749
    9750    9749    9750    9750       0    9752    9753    9754    9753    9754
    9754       0    9756    9757    9758    9757    9758    9758       0    9760
    9761    9762    9761    9762    9762       0    9764    9765    9766    9765
    9766    9766       0    9768    9769    9770    9769    9770    9770       0
    9772    9773    9774    9773    9774    9774       0    9776    9777    9778
    9777    9778    9778       0    9780    9781    9782    9781    9782    9782
       0    9784    9785    9786    9785    9786    9786       0    9788    9789
    9790    9789    9790    9790       0    9792    9793    9794    9793    9794
    9794       0    9796    9797    9798    9797    9798    9798       0    9800
    9801    9802    9801    9802    9802       0    9804    9805    9806    9805
    9806    9806       0    9808    9809    9810    9809    9810    9810       0
    9812    9813    9814    9813    9814    9814       0    9816    9817    9818
    9817    9818    9818       0    9820    9821    9822    9821    9822    9822
       0    9824    9825    9826    9825    9826    9826       0    9828    9829
    9830    9829    9830    9830       0    9832    9833    9834    9833    9834
    9834       0    9836    9837    9838    9837    9838    9838       0    9840
    9841    9842    9841    9842    9842       0    9844    9845    9846    9845
    9846    9846       0    9848    9849    9850    9849    9850    9850       0
    9852    9853    9854    9853    9854    9854       0    9856    9857    9858
    9857    9858    9858       0    9860    9861    9862    9861    9862    9862
       0    9864    9865    9866    9865    9866    9866       0    9868    9869
    9870    9869    9870    9870       0    9872    9873    9874    9873    9874
    9874       0    9876    9877    9878    9877    9878    9878       0    9880
    9881    9882    9881    9882    9882       0    9884    9885    9886    9885
    9886    9886       0    9888    9889    9890    9889    9890    9890       0
    9892    9893    9894    9893    9894    9894       0    9896    9897    9898
    9897    9898    9898       0    9900    9901    9902    9901    9902    9902
       0    9904    9905    9906    9905    9906    9906       0    9908    9909
    9910    9909    9910    9910       0    9912    9913    9914    9913    9914
    9914       0    9916    9917    9918    9917    9918    9918       0    9920
    9921    9922    9921    9922    9922       0    9924    9925    9926    9925
    9926    9926       0    9928    9929    9930    9929    9930    9930       0
    9932    9933    9934    9933    9934    9934       0    9936    9937    9938
    9937    9938    9938       0    9940    9941    9942    9941    9942    9942
       0    9944    9945    9946    9945    9946    9946       0    9948    9949
    9950    9949    9950    9950       0    9952    9953    9954    9953    9954
    9954       0    9956    9957    9958    9957    9958    9958       0    9960
    9961    9962    9961    9962    9962       0    9964    9965    9966    9965
    9966    9966       0    9968    9969    9970    9969    9970    9970       0
    9972    9973    9974    9973    9974    9974       0    9976    9977    9978
    9977    9978    9978       0    9980    9981    9982    9981    9982    9982
       0    9984    9985    9986    9985    9986    9986       0    9988    9989
    9990    9989    9990    9990       0    9992    9993    9994    9993    9994
    9994       0    9996    9997    9998    9997    9998    9998       0   10000
   10001   10002   10001   10002   10002       0   10004   10005   10006   10005
   10006   10006       0   10008   10009   10010   10009   10010   10010       0
   10012   10013   10014   10013   10014   10014       0   10016   10017   10018
   10017   10018   10018       0   10020   10021   10022   10021   10022   10022
       0   10024   10025   10026   10025   10026   10026       0   10028   10029
   10030   10029   10030   10030       0   10032   10033   10034   10033   10034
   10034       0   10036   10037   10038   10037   10038   10038       0   10040
   10041   10042   10041   10042   10042       0   10044   10045   10046   10045
   10046   10046       0   10048   10049   10050   10049   10050   10050       0
   10052   10053   10054   10053   10054   10054       0   10056   10057   10058
   10057   10058   10058       0   10060   10061   10062   10061   10062   10062
       0   10064   10065   10066   10065   10066   10066       0   10068   10069
   10070   10069   10070   10070       0   10072   10073   10074   10073   10074
   10074       0   10076   10077   10078   10077   10078   10078       0   10080
   10081   10082   10081   10082   10082       0   10084   10085   10086   10085
   10086   10086       0   10088   10089   10090   10089   10090   10090       0
   10092   10093   10094   10093   10094   10094       0   10096   10097   10098
   10097   10098   10098       0   10100   10101   10102   10101   10102   10102
       0   10104   10105   10106   10105   10106   10106       0   10108   10109
   10110   10109   10110   10110       0   10112   10113   10114   10113   10114
   10114       0   10116   10117   10118   10117   10118   10118       0   10120
   10121   10122   10121   10122   10122       0   10124   10125   10126   10125
   10126   10126       0   10128   10129   10130   10129   10130   10130       0
   10132   10133   10134   10133   10134   10134       0   10136   10137   10138
   10137   10138   10138       0   10140   10141   10142   10141   10142   10142
       0   10144   10145   10146   10145   10146   10146       0   10148   10149
   10150   10149   10150   10150       0   10152   10153   10154   10153   10154
   10154       0   10156   10157   10158   10157   10158   10158       0   10160
   10161   10162   10161   10162   10162       0   10164   10165   10166   10165
   10166   10166       0   10168   10169   10170   10169   10170   10170       0
   10172   10173   10174   10173   10174   10174       0   10176   10177   10178
   10177   10178   10178       0   10180   10181   10182   10181   10182   10182
       0   10184   10185   10186   10185   10186   10186       0   10188   10189
   10190   10189   10190   10190       0   10192   10193   10194   10193   10194
   10194       0   10196   10197   10198   10197   10198   10198       0   10200
   10201   10202   10201   10202   10202       0   10204   10205   10206   10205
   10206   10206       0   10208   10209   10210   10209   10210   10210       0
   10212   10213   10214   10213   10214   10214       0   10216   10217   10218
   10217   10218   10218       0   10220   10221   10222   10221   10222   10222
       0   10224   10225   10226   10225   10226   10226       0   10228   10229
   10230   10229   10230   10230       0   10232   10233   10234   10233   10234
   10234       0   10236   10237   10238   10237   10238   10238       0   10240
   10241   10242   10241   10242   10242       0   10244   10245   10246   10245
   10246   10246       0   10248   10249   10250   10249   10250   10250       0
   10252   10253   10254   10253   10254   10254       0   10256   10257   10258
   10257   10258   10258       0   10260   10261   10262   10261   10262   10262
       0   10264   10265   10266   10265   10266   10266       0   10268   10269
   10270   10269   10270   10270       0   10272   10273   10274   10273   10274
   10274       0   10276   10277   10278   10277   10278   10278       0   10280
   10281   10282   10281   10282   10282       0   10284   10285   10286   10285
   10286   10286       0   10288   10289   10290   10289   10290   10290       0
   10292   10293   10294   10293   10294   10294       0   10296   10297   10298
   10297   10298   10298       0   10300   10301   10302   10301   10302   10302
       0   10304   10305   10306   10305   10306   10306       0   10308   10309
   10310   10309   10310   10310       0   10312   10313   10314   10313   10314
   10314       0   10316   10317   10318   10317   10318   10318       0   10320
   10321   10322   10321   10322   10322       0   10324   10325   10326   10325
   10326   10326       0   10328   10329   10330   10329   10330   10330       0
   10332   10333   10334   10333   10334   10334       0   10336   10337   10338
   10337   10338   10338       0   10340   10341   10342   10341   10342   10342
       0   10344   10345   10346   10345   10346   10346       0   10348   10349
   10350   10349   10350   10350       0   10352   10353   10354   10353   10354
   10354       0   10356   10357   10358   10357   10358   10358       0   10360
   10361   10362   10361   10362   10362       0   10364   10365   10366   10365
   10366   10366       0   10368   10369   10370   10369   10370   10370       0
   10372   10373   10374   10373   10374   10374       0   10376   10377   10378
   10377   10378   10378       0   10380   10381   10382   10381   10382   10382
       0   10384   10385   10386   10385   10386   10386       0   10388   10389
   10390   10389   10390   10390       0   10392   10393   10394   10393   10394
   10394       0   10396   10397   10398   10397   10398   10398       0   10400
   10401   10402   10401   10402   10402       0   10404   10405   10406   10405
   10406   10406       0   10408   10409   10410   10409   10410   10410       0
   10412   10413   10414   10413   10414   10414       0   10416   10417   10418
   10417   10418   10418       0   10420   10421   10422   10421   10422   10422
       0   10424   10425   10426   10425   10426   10426       0   10428   10429
   10430   10429   10430   10430       0   10432   10433   10434   10433   10434
   10434       0   10436   10437   10438   10437   10438   10438       0   10440
   10441   10442   10441   10442   10442       0   10444   10445   10446   10445
   10446   10446       0   10448   10449   10450   10449   10450   10450       0
   10452   10453   10454   10453   10454   10454       0   10456   10457   10458
   10457   10458   10458       0   10460   10461   10462   10461   10462   10462
       0   10464   10465   10466   10465   10466   10466       0   10468   10469
   10470   10469   10470   10470       0   10472   10473   10474   10473   10474
   10474       0   10476   10477   10478   10477   10478   10478       0   10480
   10481   10482   10481   10482   10482       0   10484   10485   10486   10485
   10486   10486       0   10488   10489   10490   10489   10490   10490       0
   10492   10493   10494   10493   10494   10494       0   10496   10497   10498
   10497   10498   10498       0   10500   10501   10502   10501   10502   10502
       0   10504   10505   10506   10505   10506   10506       0   10508   10509
   10510   10509   10510   10510       0   10512   10513   10514   10513   10514
   10514       0   10516   10517   10518   10517   10518   10518       0   10520
   10521   10522   10521   10522   10522       0   10524   10525   10526   10525
   10526   10526       0   10528   10529   10530   10529   10530   10530       0
   10532   10533   10534   10533   10534   10534       0   10536   10537   10538
   10537   10538   10538       0   10540   10541   10542   10541   10542   10542
       0   10544   10545   10546   10545   10546   10546       0   10548   10549
   10550   10549   10550   10550       0   10552   10553   10554   10553   10554
   10554       0   10556   10557   10558   10557   10558   10558       0   10560
   10561   10562   10561   10562   10562       0   10564   10565   10566   10565
   10566   10566       0   10568   10569   10570   10569   10570   10570       0
   10572   10573   10574   10573   10574   10574       0   10576   10577   10578
   10577   10578   10578       0   10580   10581   10582   10581   10582   10582
       0   10584   10585   10586   10585   10586   10586       0   10588   10589
   10590   10589   10590   10590       0   10592   10593   10594   10593   10594
   10594       0   10596   10597   10598   10597   10598   10598       0   10600
   10601   10602   10601   10602   10602       0   10604   10605   10606   10605
   10606   10606       0   10608   10609   10610   10609   10610   10610       0
   10612   10613   10614   10613   10614   10614       0   10616   10617   10618
   10617   10618   10618       0   10620   10621   10622   10621   10622   10622
       0   10624   10625   10626   10625   10626   10626       0   10628   10629
   10630   10629   10630   10630       0   10632   10633   10634   10633   10634
   10634       0   10636   10637   10638   10637   10638   10638       0   10640
   10641   10642   10641   10642   10642       0   10644   10645   10646   10645
   10646   10646       0   10648   10649   10650   10649   10650   10650       0
   10652   10653   10654   10653   10654   10654       0   10656   10657   10658
   10657   10658   10658       0   10660   10661   10662   10661   10662   10662
       0   10664   10665   10666   10665   10666   10666       0   10668   10669
   10670   10669   10670   10670       0   10672   10673   10674   10673   10674
   10674       0   10676   10677   10678   10677   10678   10678       0   10680
   10681   10682   10681   10682   10682       0   10684   10685   10686   10685
   10686   10686       0   10688   10689   10690   10689   10690   10690       0
   10692   10693   10694   10693   10694   10694       0   10696   10697   10698
   10697   10698   10698       0   10700   10701   10702   10701   10702   10702
       0   10704   10705   10706   10705   10706   10706       0   10708   10709
   10710   10709   10710   10710       0   10712   10713   10714   10713   10714
   10714       0   10716   10717   10718   10717   10718   10718       0   10720
   10721   10722   10721   10722   10722       0   10724   10725   10726   10725
   10726   10726       0   10728   10729   10730   10729   10730   10730       0
   10732   10733   10734   10733   10734   10734       0   10736   10737   10738
   10737   10738   10738       0   10740   10741   10742   10741   10742   10742
       0   10744   10745   10746   10745   10746   10746       0   10748   10749
   10750   10749   10750   10750       0   10752   10753   10754   10753   10754
   10754       0   10756   10757   10758   10757   10758   10758       0   10760
   10761   10762   10761   10762   10762       0   10764   10765   10766   10765
   10766   10766       0   10768   10769   10770   10769   10770   10770       0
   10772   10773   10774   10773   10774   10774       0   10776   10777   10778
   10777   10778   10778       0   10780   10781   10782   10781   10782   10782
       0   10784   10785   10786   10785   10786   10786       0   10788   10789
   10790   10789   10790   10790       0   10792   10793   10794   10793   10794
   10794       0   10796   10797   10798   10797   10798   10798       0   10800
   10801   10802   10801   10802   10802       0   10804   10805   10806   10805
   10806   10806       0   10808   10809   10810   10809   10810   10810       0
   10812   10813   10814   10813   10814   10814       0   10816   10817   10818
   10817   10818   10818       0   10820   10821   10822   10821   10822   10822
       0   10824   10825   10826   10825   10826   10826       0   10828   10829
   10830   10829   10830   10830       0   10832   10833   10834   10833   10834
   10834       0   10836   10837   10838   10837   10838   10838       0   10840
   10841   10842   10841   10842   10842       0   10844   10845   10846   10845
   10846   10846       0   10848   10849   10850   10849   10850   10850       0
   10852   10853   10854   10853   10854   10854       0   10856   10857   10858
   10857   10858   10858       0   10860   10861   10862   10861   10862   10862
       0   10864   10865   10866   10865   10866   10866       0   10868   10869
   10870   10869   10870   10870       0   10872   10873   10874   10873   10874
   10874       0   10876   10877   10878   10877   10878   10878       0   10880
   10881   10882   10881   10882   10882       0   10884   10885   10886   10885
   10886   10886       0   10888   10889   10890   10889   10890   10890       0
   10892   10893   10894   10893   10894   10894       0   10896   10897   10898
   10897   10898   10898       0   10900   10901   10902   10901   10902   10902
       0   10904   10905   10906   10905   10906   10906       0   10908   10909
   10910   10909   10910   10910       0   10912   10913   10914   10913   10914
   10914       0   10916   10917   10918   10917   10918   10918       0   10920
   10921   10922   10921   10922   10922       0   10924   10925   10926   10925
   10926   10926       0   10928   10929   10930   10929   10930   10930       0
   10932   10933   10934   10933   10934   10934       0   10936   10937   10938
   10937   10938   10938       0   10940   10941   10942   10941   10942   10942
       0   10944   10945   10946   10945   10946   10946       0   10948   10949
   10950   10949   10950   10950       0   10952   10953   10954   10953   10954
   10954       0   10956   10957   10958   10957   10958   10958       0   10960
   10961   10962   10961   10962   10962       0   10964   10965   10966   10965
   10966   10966       0   10968   10969   10970   10969   10970   10970       0
   10972   10973   10974   10973   10974   10974       0   10976   10977   10978
   10977   10978   10978       0   10980   10981   10982   10981   10982   10982
       0   10984   10985   10986   10985   10986   10986       0   10988   10989
   10990   10989   10990   10990       0   10992   10993   10994   10993   10994
   10994       0   10996   10997   10998   10997   10998   10998       0   11000
   11001   11002   11001   11002   11002       0   11004   11005   11006   11005
   11006   11006       0   11008   11009   11010   11009   11010   11010       0
   11012   11013   11014   11013   11014   11014       0   11016   11017   11018
   11017   11018   11018       0   11020   11021   11022   11021   11022   11022
       0   11024   11025   11026   11025   11026   11026       0   11028   11029
   11030   11029   11030   11030       0   11032   11033   11034   11033   11034
   11034       0   11036   11037   11038   11037   11038   11038       0   11040
   11041   11042   11041   11042   11042       0   11044   11045   11046   11045
   11046   11046       0   11048   11049   11050   11049   11050   11050       0
   11052   11053   11054   11053   11054   11054       0   11056   11057   11058
   11057   11058   11058       0   11060   11061   11062   11061   11062   11062
       0   11064   11065   11066   11065   11066   11066       0   11068   11069
   11070   11069   11070   11070       0   11072   11073   11074   11073   11074
   11074       0   11076   11077   11078   11077   11078   11078       0   11080
   11081   11082   11081   11082   11082       0   11084   11085   11086   11085
   11086   11086       0   11088   11089   11090   11089   11090   11090       0
   11092   11093   11094   11093   11094   11094       0   11096   11097   11098
   11097   11098   11098       0   11100   11101   11102   11101   11102   11102
       0   11104   11105   11106   11105   11106   11106       0   11108   11109
   11110   11109   11110   11110       0   11112   11113   11114   11113   11114
   11114       0   11116   11117   11118   11117   11118   11118       0   11120
   11121   11122   11121   11122   11122       0   11124   11125   11126   11125
   11126   11126       0   11128   11129   11130   11129   11130   11130       0
   11132   11133   11134   11133   11134   11134       0   11136   11137   11138
   11137   11138   11138       0   11140   11141   11142   11141   11142   11142
       0   11144   11145   11146   11145   11146   11146       0   11148   11149
   11150   11149   11150   11150       0   11152   11153   11154   11153   11154
   11154       0   11156   11157   11158   11157   11158   11158       0   11160
   11161   11162   11161   11162   11162       0   11164   11165   11166   11165
   11166   11166       0   11168   11169   11170   11169   11170   11170       0
   11172   11173   11174   11173   11174   11174       0   11176   11177   11178
   11177   11178   11178       0   11180   11181   11182   11181   11182   11182
       0   11184   11185   11186   11185   11186   11186       0   11188   11189
   11190   11189   11190   11190       0   11192   11193   11194   11193   11194
   11194       0   11196   11197   11198   11197   11198   11198       0   11200
   11201   11202   11201   11202   11202       0   11204   11205   11206   11205
   11206   11206       0   11208   11209   11210   11209   11210   11210       0
   11212   11213   11214   11213   11214   11214       0   11216   11217   11218
   11217   11218   11218       0   11220   11221   11222   11221   11222   11222
       0   11224   11225   11226   11225   11226   11226       0   11228   11229
   11230   11229   11230   11230       0   11232   11233   11234   11233   11234
   11234       0   11236   11237   11238   11237   11238   11238       0   11240
   11241   11242   11241   11242   11242       0   11244   11245   11246   11245
   11246   11246       0   11248   11249   11250   11249   11250   11250       0
   11252   11253   11254   11253   11254   11254       0   11256   11257   11258
   11257   11258   11258       0   11260   11261   11262   11261   11262   11262
       0   11264   11265   11266   11265   11266   11266       0   11268   11269
   11270   11269   11270   11270       0   11272   11273   11274   11273   11274
   11274       0   11276   11277   11278   11277   11278   11278       0   11280
   11281   11282   11281   11282   11282       0   11284   11285   11286   11285
   11286   11286       0   11288   11289   11290   11289   11290   11290       0
   11292   11293   11294   11293   11294   11294       0   11296   11297   11298
   11297   11298   11298       0   11300   11301   11302   11301   11302   11302
       0   11304   11305   11306   11305   11306   11306       0   11308   11309
   11310   11309   11310   11310       0   11312   11313   11314   11313   11314
   11314       0   11316   11317   11318   11317   11318   11318       0   11320
   11321   11322   11321   11322   11322       0   11324   11325   11326   11325
   11326   11326       0   11328   11329   11330   11329   11330   11330       0
   11332   11333   11334   11333   11334   11334       0   11336   11337   11338
   11337   11338   11338       0   11340   11341   11342   11341   11342   11342
       0   11344   11345   11346   11345   11346   11346       0   11348   11349
   11350   11349   11350   11350       0   11352   11353   11354   11353   11354
   11354       0   11356   11357   11358   11357   11358   11358       0   11360
   11361   11362   11361   11362   11362       0   11364   11365   11366   11365
   11366   11366       0   11368   11369   11370   11369   11370   11370       0
   11372   11373   11374   11373   11374   11374       0   11376   11377   11378
   11377   11378   11378       0   11380   11381   11382   11381   11382   11382
       0   11384   11385   11386   11385   11386   11386       0   11388   11389
   11390   11389   11390   11390       0   11392   11393   11394   11393   11394
   11394       0   11396   11397   11398   11397   11398   11398       0   11400
   11401   11402   11401   11402   11402       0   11404   11405   11406   11405
   11406   11406       0   11408   11409   11410   11409   11410   11410       0
   11412   11413   11414   11413   11414   11414       0   11416   11417   11418
   11417   11418   11418       0   11420   11421   11422   11421   11422   11422
       0   11424   11425   11426   11425   11426   11426       0   11428   11429
   11430   11429   11430   11430       0   11432   11433   11434   11433   11434
   11434       0   11436   11437   11438   11437   11438   11438       0   11440
   11441   11442   11441   11442   11442       0   11444   11445   11446   11445
   11446   11446       0   11448   11449   11450   11449   11450   11450       0
   11452   11453   11454   11453   11454   11454       0   11456   11457   11458
   11457   11458   11458       0   11460   11461   11462   11461   11462   11462
       0   11464   11465   11466   11465   11466   11466       0   11468   11469
   11470   11469   11470   11470       0   11472   11473   11474   11473   11474
   11474       0   11476   11477   11478   11477   11478   11478       0   11480
   11481   11482   11481   11482   11482       0   11484   11485   11486   11485
   11486   11486       0   11488   11489   11490   11489   11490   11490       0
   11492   11493   11494   11493   11494   11494       0   11496   11497   11498
   11497   11498   11498       0   11500   11501   11502   11501   11502   11502
       0   11504   11505   11506   11505   11506   11506       0   11508   11509
   11510   11509   11510   11510       0   11512   11513   11514   11513   11514
   11514       0   11516   11517   11518   11517   11518   11518       0   11520
   11521   11522   11521   11522   11522       0   11524   11525   11526   11525
   11526   11526       0   11528   11529   11530   11529   11530   11530       0
   11532   11533   11534   11533   11534   11534       0   11536   11537   11538
   11537   11538   11538       0   11540   11541   11542   11541   11542   11542
       0   11544   11545   11546   11545   11546   11546       0   11548   11549
   11550   11549   11550   11550       0   11552   11553   11554   11553   11554
   11554       0   11556   11557   11558   11557   11558   11558       0   11560
   11561   11562   11561   11562   11562       0   11564   11565   11566   11565
   11566   11566       0   11568   11569   11570   11569   11570   11570       0
   11572   11573   11574   11573   11574   11574       0   11576   11577   11578
   11577   11578   11578       0   11580   11581   11582   11581   11582   11582
       0   11584   11585   11586   11585   11586   11586       0   11588   11589
   11590   11589   11590   11590       0   11592   11593   11594   11593   11594
   11594       0   11596   11597   11598   11597   11598   11598       0   11600
   11601   11602   11601   11602   11602       0   11604   11605   11606   11605
   11606   11606       0   11608   11609   11610   11609   11610   11610       0
   11612   11613   11614   11613   11614   11614       0   11616   11617   11618
   11617   11618   11618       0   11620   11621   11622   11621   11622   11622
       0   11624   11625   11626   11625   11626   11626       0   11628   11629
   11630   11629   11630   11630       0   11632   11633   11634   11633   11634
   11634       0   11636   11637   11638   11637   11638   11638       0   11640
   11641   11642   11641   11642   11642       0   11644   11645   11646   11645
   11646   11646       0   11648   11649   11650   11649   11650   11650       0
   11652   11653   11654   11653   11654   11654       0   11656   11657   11658
   11657   11658   11658       0   11660   11661   11662   11661   11662   11662
       0   11664   11665   11666   11665   11666   11666       0   11668   11669
   11670   11669   11670   11670       0   11672   11673   11674   11673   11674
   11674       0   11676   11677   11678   11677   11678   11678       0   11680
   11681   11682   11681   11682   11682       0   11684   11685   11686   11685
   11686   11686       0   11688   11689   11690   11689   11690   11690       0
   11692   11693   11694   11693   11694   11694       0   11696   11697   11698
   11697   11698   11698       0   11700   11701   11702   11701   11702   11702
       0   11704   11705   11706   11705   11706   11706       0   11708   11709
   11710   11709   11710   11710       0   11712   11713   11714   11713   11714
   11714       0   11716   11717   11718   11717   11718   11718       0   11720
   11721   11722   11721   11722   11722       0   11724   11725   11726   11725
   11726   11726       0   11728   11729   11730   11729   11730   11730       0
   11732   11733   11734   11733   11734   11734       0   11736   11737   11738
   11737   11738   11738       0   11740   11741   11742   11741   11742   11742
       0   11744   11745   11746   11745   11746   11746       0   11748   11749
   11750   11749   11750   11750       0   11752   11753   11754   11753   11754
   11754       0   11756   11757   11758   11757   11758   11758       0   11760
   11761   11762   11761   11762   11762       0   11764   11765   11766   11765
   11766   11766       0   11768   11769   11770   11769   11770   11770       0
   11772   11773   11774   11773   11774   11774       0   11776   11777   11778
   11777   11778   11778       0   11780   11781   11782   11781   11782   11782
       0   11784   11785   11786   11785   11786   11786       0   11788   11789
   11790   11789   11790   11790       0   11792   11793   11794   11793   11794
   11794       0   11796   11797   11798   11797   11798   11798       0   11800
   11801   11802   11801   11802   11802       0   11804   11805   11806   11805
   11806   11806       0   11808   11809   11810   11809   11810   11810       0
   11812   11813   11814   11813   11814   11814       0   11816   11817   11818
   11817   11818   11818       0   11820   11821   11822   11821   11822   11822
       0   11824   11825   11826   11825   11826   11826       0   11828   11829
   11830   11829   11830   11830       0   11832   11833   11834   11833   11834
   11834       0   11836   11837   11838   11837   11838   11838       0   11840
   11841   11842   11841   11842   11842       0   11844   11845   11846   11845
   11846   11846       0   11848   11849   11850   11849   11850   11850       0
   11852   11853   11854   11853   11854   11854       0   11856   11857   11858
   11857   11858   11858       0   11860   11861   11862   11861   11862   11862
       0   11864   11865   11866   11865   11866   11866       0   11868   11869
   11870   11869   11870   11870       0   11872   11873   11874   11873   11874
   11874       0   11876   11877   11878   11877   11878   11878       0   11880
   11881   11882   11881   11882   11882       0   11884   11885   11886   11885
   11886   11886       0   11888   11889   11890   11889   11890   11890       0
   11892   11893   11894   11893   11894   11894       0   11896   11897   11898
   11897   11898   11898       0   11900   11901   11902   11901   11902   11902
       0   11904   11905   11906   11905   11906   11906       0   11908   11909
   11910   11909   11910   11910       0   11912   11913   11914   11913   11914
   11914       0   11916   11917   11918   11917   11918   11918       0   11920
   11921   11922   11921   11922   11922       0   11924   11925   11926   11925
   11926   11926       0   11928   11929   11930   11929   11930   11930       0
   11932   11933   11934   11933   11934   11934       0   11936   11937   11938
   11937   11938   11938       0   11940   11941   11942   11941   11942   11942
       0   11944   11945   11946   11945   11946   11946       0   11948   11949
   11950   11949   11950   11950       0   11952   11953   11954   11953   11954
   11954       0   11956   11957   11958   11957   11958   11958       0   11960
   11961   11962   11961   11962   11962       0   11964   11965   11966   11965
   11966   11966       0   11968   11969   11970   11969   11970   11970       0
   11972   11973   11974   11973   11974   11974       0   11976   11977   11978
   11977   11978   11978       0   11980   11981   11982   11981   11982   11982
       0   11984   11985   11986   11985   11986   11986       0   11988   11989
   11990   11989   11990   11990       0   11992   11993   11994   11993   11994
   11994       0   11996   11997   11998   11997   11998   11998       0   12000
   12001   12002   12001   12002   12002       0   12004   12005   12006   12005
   12006   12006       0   12008   12009   12010   12009   12010   12010       0
   12012   12013   12014   12013   12014   12014       0   12016   12017   12018
   12017   12018   12018       0   12020   12021   12022   12021   12022   12022
       0   12024   12025   12026   12025   12026   12026       0   12028   12029
   12030   12029   12030   12030       0   12032   12033   12034   12033   12034
   12034       0   12036   12037   12038   12037   12038   12038       0   12040
   12041   12042   12041   12042   12042       0   12044   12045   12046   12045
   12046   12046       0   12048   12049   12050   12049   12050   12050       0
   12052   12053   12054   12053   12054   12054       0   12056   12057   12058
   12057   12058   12058       0   12060   12061   12062   12061   12062   12062
       0   12064   12065   12066   12065   12066   12066       0   12068   12069
   12070   12069   12070   12070       0   12072   12073   12074   12073   12074
   12074       0   12076   12077   12078   12077   12078   12078       0   12080
   12081   12082   12081   12082   12082       0   12084   12085   12086   12085
   12086   12086       0   12088   12089   12090   12089   12090   12090       0
   12092   12093   12094   12093   12094   12094       0   12096   12097   12098
   12097   12098   12098       0   12100   12101   12102   12101   12102   12102
       0   12104   12105   12106   12105   12106   12106       0   12108   12109
   12110   12109   12110   12110       0   12112   12113   12114   12113   12114
   12114       0   12116   12117   12118   12117   12118   12118       0   12120
   12121   12122   12121   12122   12122       0   12124   12125   12126   12125
   12126   12126       0   12128   12129   12130   12129   12130   12130       0
   12132   12133   12134   12133   12134   12134       0   12136   12137   12138
   12137   12138   12138       0   12140   12141   12142   12141   12142   12142
       0   12144   12145   12146   12145   12146   12146       0   12148   12149
   12150   12149   12150   12150       0   12152   12153   12154   12153   12154
   12154       0   12156   12157   12158   12157   12158   12158       0   12160
   12161   12162   12161   12162   12162       0   12164   12165   12166   12165
   12166   12166       0   12168   12169   12170   12169   12170   12170       0
   12172   12173   12174   12173   12174   12174       0   12176   12177   12178
   12177   12178   12178       0   12180   12181   12182   12181   12182   12182
       0   12184   12185   12186   12185   12186   12186       0   12188   12189
   12190   12189   12190   12190       0   12192   12193   12194   12193   12194
   12194       0   12196   12197   12198   12197   12198   12198       0   12200
   12201   12202   12201   12202   12202       0   12204   12205   12206   12205
   12206   12206       0   12208   12209   12210   12209   12210   12210       0
   12212   12213   12214   12213   12214   12214       0   12216   12217   12218
   12217   12218   12218       0   12220   12221   12222   12221   12222   12222
       0   12224   12225   12226   12225   12226   12226       0   12228   12229
   12230   12229   12230   12230       0   12232   12233   12234   12233   12234
   12234       0   12236   12237   12238   12237   12238   12238       0   12240
   12241   12242   12241   12242   12242       0   12244   12245   12246   12245
   12246   12246       0   12248   12249   12250   12249   12250   12250       0
   12252   12253   12254   12253   12254   12254       0   12256   12257   12258
   12257   12258   12258       0   12260   12261   12262   12261   12262   12262
       0   12264   12265   12266   12265   12266   12266       0   12268   12269
   12270   12269   12270   12270       0   12272   12273   12274   12273   12274
   12274       0   12276   12277   12278   12277   12278   12278       0   12280
   12281   12282   12281   12282   12282       0   12284   12285   12286   12285
   12286   12286       0   12288   12289   12290   12289   12290   12290       0
   12292   12293   12294   12293   12294   12294       0   12296   12297   12298
   12297   12298   12298       0   12300   12301   12302   12301   12302   12302
       0   12304   12305   12306   12305   12306   12306       0   12308   12309
   12310   12309   12310   12310       0   12312   12313   12314   12313   12314
   12314       0   12316   12317   12318   12317   12318   12318       0   12320
   12321   12322   12321   12322   12322       0   12324   12325   12326   12325
   12326   12326       0   12328   12329   12330   12329   12330   12330       0
   12332   12333   12334   12333   12334   12334       0   12336   12337   12338
   12337   12338   12338       0   12340   12341   12342   12341   12342   12342
       0   12344   12345   12346   12345   12346   12346       0   12348   12349
   12350   12349   12350   12350       0   12352   12353   12354   12353   12354
   12354       0   12356   12357   12358   12357   12358   12358       0   12360
   12361   12362   12361   12362   12362       0   12364   12365   12366   12365
   12366   12366       0   12368   12369   12370   12369   12370   12370       0
   12372   12373   12374   12373   12374   12374       0   12376   12377   12378
   12377   12378   12378       0   12380   12381   12382   12381   12382   12382
       0   12384   12385   12386   12385   12386   12386       0   12388   12389
   12390   12389   12390   12390       0   12392   12393   12394   12393   12394
   12394       0   12396   12397   12398   12397   12398   12398       0   12400
   12401   12402   12401   12402   12402       0   12404   12405   12406   12405
   12406   12406       0   12408   12409   12410   12409   12410   12410       0
   12412   12413   12414   12413   12414   12414       0   12416   12417   12418
   12417   12418   12418       0   12420   12421   12422   12421   12422   12422
       0   12424   12425   12426   12425   12426   12426       0   12428   12429
   12430   12429   12430   12430       0   12432   12433   12434   12433   12434
   12434       0   12436   12437   12438   12437   12438   12438       0   12440
   12441   12442   12441   12442   12442       0   12444   12445   12446   12445
   12446   12446       0   12448   12449   12450   12449   12450   12450       0
   12452   12453   12454   12453   12454   12454       0   12456   12457   12458
   12457   12458   12458       0   12460   12461   12462   12461   12462   12462
       0   12464   12465   12466   12465   12466   12466       0   12468   12469
   12470   12469   12470   12470       0   12472   12473   12474   12473   12474
   12474       0   12476   12477   12478   12477   12478   12478       0   12480
   12481   12482   12481   12482   12482       0   12484   12485   12486   12485
   12486   12486       0   12488   12489   12490   12489   12490   12490       0
   12492   12493   12494   12493   12494   12494       0   12496   12497   12498
   12497   12498   12498       0   12500   12501   12502   12501   12502   12502
       0   12504   12505   12506   12505   12506   12506       0   12508   12509
   12510   12509   12510   12510       0   12512   12513   12514   12513   12514
   12514       0   12516   12517   12518   12517   12518   12518       0   12520
   12521   12522   12521   12522   12522       0   12524   12525   12526   12525
   12526   12526       0   12528   12529   12530   12529   12530   12530       0
   12532   12533   12534   12533   12534   12534       0   12536   12537   12538
   12537   12538   12538       0   12540   12541   12542   12541   12542   12542
       0   12544   12545   12546   12545   12546   12546       0   12548   12549
   12550   12549   12550   12550       0   12552   12553   12554   12553   12554
   12554       0   12556   12557   12558   12557   12558   12558       0   12560
   12561   12562   12561   12562   12562       0   12564   12565   12566   12565
   12566   12566       0   12568   12569   12570   12569   12570   12570       0
   12572   12573   12574   12573   12574   12574       0   12576   12577   12578
   12577   12578   12578       0   12580   12581   12582   12581   12582   12582
       0   12584   12585   12586   12585   12586   12586       0   12588   12589
   12590   12589   12590   12590       0   12592   12593   12594   12593   12594
   12594       0   12596   12597   12598   12597   12598   12598       0   12600
   12601   12602   12601   12602   12602       0   12604   12605   12606   12605
   12606   12606       0   12608   12609   12610   12609   12610   12610       0
   12612   12613   12614   12613   12614   12614       0   12616   12617   12618
   12617   12618   12618       0   12620   12621   12622   12621   12622   12622
       0   12624   12625   12626   12625   12626   12626       0   12628   12629
   12630   12629   12630   12630       0   12632   12633   12634   12633   12634
   12634       0   12636   12637   12638   12637   12638   12638       0   12640
   12641   12642   12641   12642   12642       0   12644   12645   12646   12645
   12646   12646       0   12648   12649   12650   12649   12650   12650       0
   12652   12653   12654   12653   12654   12654       0   12656   12657   12658
   12657   12658   12658       0   12660   12661   12662   12661   12662   12662
       0   12664   12665   12666   12665   12666   12666       0   12668   12669
   12670   12669   12670   12670       0   12672   12673   12674   12673   12674
   12674       0   12676   12677   12678   12677   12678   12678       0   12680
   12681   12682   12681   12682   12682       0   12684   12685   12686   12685
   12686   12686       0   12688   12689   12690   12689   12690   12690       0
   12692   12693   12694   12693   12694   12694       0   12696   12697   12698
   12697   12698   12698       0   12700   12701   12702   12701   12702   12702
       0   12704   12705   12706   12705   12706   12706       0   12708   12709
   12710   12709   12710   12710       0   12712   12713   12714   12713   12714
   12714       0   12716   12717   12718   12717   12718   12718       0   12720
   12721   12722   12721   12722   12722       0   12724   12725   12726   12725
   12726   12726       0   12728   12729   12730   12729   12730   12730       0
   12732   12733   12734   12733   12734   12734       0   12736   12737   12738
   12737   12738   12738       0   12740   12741   12742   12741   12742   12742
       0   12744   12745   12746   12745   12746   12746       0   12748   12749
   12750   12749   12750   12750       0   12752   12753   12754   12753   12754
   12754       0   12756   12757   12758   12757   12758   12758       0   12760
   12761   12762   12761   12762   12762       0   12764   12765   12766   12765
   12766   12766       0   12768   12769   12770   12769   12770   12770       0
   12772   12773   12774   12773   12774   12774       0   12776   12777   12778
   12777   12778   12778       0   12780   12781   12782   12781   12782   12782
       0   12784   12785   12786   12785   12786   12786       0   12788   12789
   12790   12789   12790   12790       0   12792   12793   12794   12793   12794
   12794       0   12796   12797   12798   12797   12798   12798       0   12800
   12801   12802   12801   12802   12802       0   12804   12805   12806   12805
   12806   12806       0   12808   12809   12810   12809   12810   12810       0
   12812   12813   12814   12813   12814   12814       0   12816   12817   12818
   12817   12818   12818       0   12820   12821   12822   12821   12822   12822
       0   12824   12825   12826   12825   12826   12826       0   12828   12829
   12830   12829   12830   12830       0   12832   12833   12834   12833   12834
   12834       0   12836   12837   12838   12837   12838   12838       0   12840
   12841   12842   12841   12842   12842       0   12844   12845   12846   12845
   12846   12846       0   12848   12849   12850   12849   12850   12850       0
   12852   12853   12854   12853   12854   12854       0   12856   12857   12858
   12857   12858   12858       0   12860   12861   12862   12861   12862   12862
       0   12864   12865   12866   12865   12866   12866       0   12868   12869
   12870   12869   12870   12870       0   12872   12873   12874   12873   12874
   12874       0   12876   12877   12878   12877   12878   12878       0   12880
   12881   12882   12881   12882   12882       0   12884   12885   12886   12885
   12886   12886       0   12888   12889   12890   12889   12890   12890       0
   12892   12893   12894   12893   12894   12894       0   12896   12897   12898
   12897   12898   12898       0   12900   12901   12902   12901   12902   12902
       0   12904   12905   12906   12905   12906   12906       0   12908   12909
   12910   12909   12910   12910       0   12912   12913   12914   12913   12914
   12914       0   12916   12917   12918   12917   12918   12918       0   12920
   12921   12922   12921   12922   12922       0   12924   12925   12926   12925
   12926   12926       0   12928   12929   12930   12929   12930   12930       0
   12932   12933   12934   12933   12934   12934       0   12936   12937   12938
   12937   12938   12938       0   12940   12941   12942   12941   12942   12942
       0   12944   12945   12946   12945   12946   12946       0   12948   12949
   12950   12949   12950   12950       0   12952   12953   12954   12953   12954
   12954       0   12956   12957   12958   12957   12958   12958       0   12960
   12961   12962   12961   12962   12962       0   12964   12965   12966   12965
   12966   12966       0   12968   12969   12970   12969   12970   12970       0
   12972   12973   12974   12973   12974   12974       0   12976   12977   12978
   12977   12978   12978       0   12980   12981   12982   12981   12982   12982
       0   12984   12985   12986   12985   12986   12986       0   12988   12989
   12990   12989   12990   12990       0   12992   12993   12994   12993   12994
   12994       0   12996   12997   12998   12997   12998   12998       0   13000
   13001   13002   13001   13002   13002       0   13004   13005   13006   13005
   13006   13006       0   13008   13009   13010   13009   13010   13010       0
   13012   13013   13014   13013   13014   13014       0   13016   13017   13018
   13017   13018   13018       0   13020   13021   13022   13021   13022   13022
       0   13024   13025   13026   13025   13026   13026       0   13028   13029
   13030   13029   13030   13030       0   13032   13033   13034   13033   13034
   13034       0   13036   13037   13038   13037   13038   13038       0   13040
   13041   13042   13041   13042   13042       0   13044   13045   13046   13045
   13046   13046       0   13048   13049   13050   13049   13050   13050       0
   13052   13053   13054   13053   13054   13054       0   13056   13057   13058
   13057   13058   13058       0   13060   13061   13062   13061   13062   13062
       0   13064   13065   13066   13065   13066   13066       0   13068   13069
   13070   13069   13070   13070       0   13072   13073   13074   13073   13074
   13074       0   13076   13077   13078   13077   13078   13078       0   13080
   13081   13082   13081   13082   13082       0   13084   13085   13086   13085
   13086   13086       0   13088   13089   13090   13089   13090   13090       0
   13092   13093   13094   13093   13094   13094       0   13096   13097   13098
   13097   13098   13098       0   13100   13101   13102   13101   13102   13102
       0   13104   13105   13106   13105   13106   13106       0   13108   13109
   13110   13109   13110   13110       0   13112   13113   13114   13113   13114
   13114       0   13116   13117   13118   13117   13118   13118       0   13120
   13121   13122   13121   13122   13122       0   13124   13125   13126   13125
   13126   13126       0   13128   13129   13130   13129   13130   13130       0
   13132   13133   13134   13133   13134   13134       0   13136   13137   13138
   13137   13138   13138       0   13140   13141   13142   13141   13142   13142
       0   13144   13145   13146   13145   13146   13146       0   13148   13149
   13150   13149   13150   13150       0   13152   13153   13154   13153   13154
   13154       0   13156   13157   13158   13157   13158   13158       0   13160
   13161   13162   13161   13162   13162       0   13164   13165   13166   13165
   13166   13166       0   13168   13169   13170   13169   13170   13170       0
   13172   13173   13174   13173   13174   13174       0   13176   13177   13178
   13177   13178   13178       0   13180   13181   13182   13181   13182   13182
       0   13184   13185   13186   13185   13186   13186       0   13188   13189
   13190   13189   13190   13190       0   13192   13193   13194   13193   13194
   13194       0   13196   13197   13198   13197   13198   13198       0   13200
   13201   13202   13201   13202   13202       0   13204   13205   13206   13205
   13206   13206       0   13208   13209   13210   13209   13210   13210       0
   13212   13213   13214   13213   13214   13214       0   13216   13217   13218
   13217   13218   13218       0   13220   13221   13222   13221   13222   13222
       0   13224   13225   13226   13225   13226   13226       0   13228   13229
   13230   13229   13230   13230       0   13232   13233   13234   13233   13234
   13234       0   13236   13237   13238   13237   13238   13238       0   13240
   13241   13242   13241   13242   13242       0   13244   13245   13246   13245
   13246   13246       0   13248   13249   13250   13249   13250   13250       0
   13252   13253   13254   13253   13254   13254       0   13256   13257   13258
   13257   13258   13258       0   13260   13261   13262   13261   13262   13262
       0   13264   13265   13266   13265   13266   13266       0   13268   13269
   13270   13269   13270   13270       0   13272   13273   13274   13273   13274
   13274       0   13276   13277   13278   13277   13278   13278       0   13280
   13281   13282   13281   13282   13282       0   13284   13285   13286   13285
   13286   13286       0   13288   13289   13290   13289   13290   13290       0
   13292   13293   13294   13293   13294   13294       0   13296   13297   13298
   13297   13298   13298       0   13300   13301   13302   13301   13302   13302
       0   13304   13305   13306   13305   13306   13306       0   13308   13309
   13310   13309   13310   13310       0   13312   13313   13314   13313   13314
   13314       0   13316   13317   13318   13317   13318   13318       0   13320
   13321   13322   13321   13322   13322       0   13324   13325   13326   13325
   13326   13326       0   13328   13329   13330   13329   13330   13330       0
   13332   13333   13334   13333   13334   13334       0   13336   13337   13338
   13337   13338   13338       0   13340   13341   13342   13341   13342   13342
       0   13344   13345   13346   13345   13346   13346       0   13348   13349
   13350   13349   13350   13350       0   13352   13353   13354   13353   13354
   13354       0   13356   13357   13358   13357   13358   13358       0   13360
   13361   13362   13361   13362   13362       0   13364   13365   13366   13365
   13366   13366       0   13368   13369   13370   13369   13370   13370       0
   13372   13373   13374   13373   13374   13374       0   13376   13377   13378
   13377   13378   13378       0   13380   13381   13382   13381   13382   13382
       0   13384   13385   13386   13385   13386   13386       0   13388   13389
   13390   13389   13390   13390       0   13392   13393   13394   13393   13394
   13394       0   13396   13397   13398   13397   13398   13398       0   13400
   13401   13402   13401   13402   13402       0   13404   13405   13406   13405
   13406   13406       0   13408   13409   13410   13409   13410   13410       0
   13412   13413   13414   13413   13414   13414       0   13416   13417   13418
   13417   13418   13418       0   13420   13421   13422   13421   13422   13422
       0   13424   13425   13426   13425   13426   13426       0   13428   13429
   13430   13429   13430   13430       0   13432   13433   13434   13433   13434
   13434       0   13436   13437   13438   13437   13438   13438       0   13440
   13441   13442   13441   13442   13442       0   13444   13445   13446   13445
   13446   13446       0   13448   13449   13450   13449   13450   13450       0
   13452   13453   13454   13453   13454   13454       0   13456   13457   13458
   13457   13458   13458       0   13460   13461   13462   13461   13462   13462
       0   13464   13465   13466   13465   13466   13466       0   13468   13469
   13470   13469   13470   13470       0   13472   13473   13474   13473   13474
   13474       0   13476   13477   13478   13477   13478   13478       0   13480
   13481   13482   13481   13482   13482       0   13484   13485   13486   13485
   13486   13486       0   13488   13489   13490   13489   13490   13490       0
   13492   13493   13494   13493   13494   13494       0   13496   13497   13498
   13497   13498   13498       0   13500   13501   13502   13501   13502   13502
       0   13504   13505   13506   13505   13506   13506       0   13508   13509
   13510   13509   13510   13510       0   13512   13513   13514   13513   13514
   13514       0   13516   13517   13518   13517   13518   13518       0   13520
   13521   13522   13521   13522   13522       0   13524   13525   13526   13525
   13526   13526       0   13528   13529   13530   13529   13530   13530       0
   13532   13533   13534   13533   13534   13534       0   13536   13537   13538
   13537   13538   13538       0   13540   13541   13542   13541   13542   13542
       0   13544   13545   13546   13545   13546   13546       0   13548   13549
   13550   13549   13550   13550       0   13552   13553   13554   13553   13554
   13554       0   13556   13557   13558   13557   13558   13558       0   13560
   13561   13562   13561   13562   13562       0   13564   13565   13566   13565
   13566   13566       0   13568   13569   13570   13569   13570   13570       0
   13572   13573   13574   13573   13574   13574       0   13576   13577   13578
   13577   13578   13578       0   13580   13581   13582   13581   13582   13582
       0   13584   13585   13586   13585   13586   13586       0   13588   13589
   13590   13589   13590   13590       0   13592   13593   13594   13593   13594
   13594       0   13596   13597   13598   13597   13598   13598       0   13600
   13601   13602   13601   13602   13602       0   13604   13605   13606   13605
   13606   13606       0   13608   13609   13610   13609   13610   13610       0
   13612   13613   13614   13613   13614   13614       0   13616   13617   13618
   13617   13618   13618       0   13620   13621   13622   13621   13622   13622
       0   13624   13625   13626   13625   13626   13626       0   13628   13629
   13630   13629   13630   13630       0   13632   13633   13634   13633   13634
   13634       0   13636   13637   13638   13637   13638   13638       0   13640
   13641   13642   13641   13642   13642       0   13644   13645   13646   13645
   13646   13646       0   13648   13649   13650   13649   13650   13650       0
   13652   13653   13654   13653   13654   13654       0   13656   13657   13658
   13657   13658   13658       0   13660   13661   13662   13661   13662   13662
       0   13664   13665   13666   13665   13666   13666       0   13668   13669
   13670   13669   13670   13670       0   13672   13673   13674   13673   13674
   13674       0   13676   13677   13678   13677   13678   13678       0   13680
   13681   13682   13681   13682   13682       0   13684   13685   13686   13685
   13686   13686       0   13688   13689   13690   13689   13690   13690       0
   13692   13693   13694   13693   13694   13694       0   13696   13697   13698
   13697   13698   13698       0   13700   13701   13702   13701   13702   13702
       0   13704   13705   13706   13705   13706   13706       0   13708   13709
   13710   13709   13710   13710       0   13712   13713   13714   13713   13714
   13714       0   13716   13717   13718   13717   13718   13718       0   13720
   13721   13722   13721   13722   13722       0   13724   13725   13726   13725
   13726   13726       0   13728   13729   13730   13729   13730   13730       0
   13732   13733   13734   13733   13734   13734       0   13736   13737   13738
   13737   13738   13738       0   13740   13741   13742   13741   13742   13742
       0   13744   13745   13746   13745   13746   13746       0   13748   13749
   13750   13749   13750   13750       0   13752   13753   13754   13753   13754
   13754       0   13756   13757   13758   13757   13758   13758       0   13760
   13761   13762   13761   13762   13762       0   13764   13765   13766   13765
   13766   13766       0   13768   13769   13770   13769   13770   13770       0
   13772   13773   13774   13773   13774   13774       0   13776   13777   13778
   13777   13778   13778       0   13780   13781   13782   13781   13782   13782
       0   13784   13785   13786   13785   13786   13786       0   13788   13789
   13790   13789   13790   13790       0   13792   13793   13794   13793   13794
   13794       0   13796   13797   13798   13797   13798   13798       0   13800
   13801   13802   13801   13802   13802       0   13804   13805   13806   13805
   13806   13806       0   13808   13809   13810   13809   13810   13810       0
   13812   13813   13814   13813   13814   13814       0   13816   13817   13818
   13817   13818   13818       0   13820   13821   13822   13821   13822   13822
       0   13824   13825   13826   13825   13826   13826       0   13828   13829
   13830   13829   13830   13830       0   13832   13833   13834   13833   13834
   13834       0   13836   13837   13838   13837   13838   13838       0   13840
   13841   13842   13841   13842   13842       0   13844   13845   13846   13845
   13846   13846       0   13848   13849   13850   13849   13850   13850       0
   13852   13853   13854   13853   13854   13854       0   13856   13857   13858
   13857   13858   13858       0   13860   13861   13862   13861   13862   13862
       0   13864   13865   13866   13865   13866   13866       0   13868   13869
   13870   13869   13870   13870       0   13872   13873   13874   13873   13874
   13874       0   13876   13877   13878   13877   13878   13878       0   13880
   13881   13882   13881   13882   13882       0   13884   13885   13886   13885
   13886   13886       0   13888   13889   13890   13889   13890   13890       0
   13892   13893   13894   13893   13894   13894       0   13896   13897   13898
   13897   13898   13898       0   13900   13901   13902   13901   13902   13902
       0   13904   13905   13906   13905   13906   13906       0   13908   13909
   13910   13909   13910   13910       0   13912   13913   13914   13913   13914
   13914       0   13916   13917   13918   13917   13918   13918       0   13920
   13921   13922   13921   13922   13922       0   13924   13925   13926   13925
   13926   13926       0   13928   13929   13930   13929   13930   13930       0
   13932   13933   13934   13933   13934   13934       0   13936   13937   13938
   13937   13938   13938       0   13940   13941   13942   13941   13942   13942
       0   13944   13945   13946   13945   13946   13946       0   13948   13949
   13950   13949   13950   13950       0   13952   13953   13954   13953   13954
   13954       0   13956   13957   13958   13957   13958   13958       0   13960
   13961   13962   13961   13962   13962       0   13964   13965   13966   13965
   13966   13966       0   13968   13969   13970   13969   13970   13970       0
   13972   13973   13974   13973   13974   13974       0   13976   13977   13978
   13977   13978   13978       0   13980   13981   13982   13981   13982   13982
       0   13984   13985   13986   13985   13986   13986       0   13988   13989
   13990   13989   13990   13990       0   13992   13993   13994   13993   13994
   13994       0   13996   13997   13998   13997   13998   13998       0   14000
   14001   14002   14001   14002   14002       0   14004   14005   14006   14005
   14006   14006       0   14008   14009   14010   14009   14010   14010       0
   14012   14013   14014   14013   14014   14014       0   14016   14017   14018
   14017   14018   14018       0   14020   14021   14022   14021   14022   14022
       0   14024   14025   14026   14025   14026   14026       0   14028   14029
   14030   14029   14030   14030       0   14032   14033   14034   14033   14034
   14034       0   14036   14037   14038   14037   14038   14038       0   14040
   14041   14042   14041   14042   14042       0   14044   14045   14046   14045
   14046   14046       0   14048   14049   14050   14049   14050   14050       0
   14052   14053   14054   14053   14054   14054       0   14056   14057   14058
   14057   14058   14058       0   14060   14061   14062   14061   14062   14062
       0   14064   14065   14066   14065   14066   14066       0   14068   14069
   14070   14069   14070   14070       0   14072   14073   14074   14073   14074
   14074       0   14076   14077   14078   14077   14078   14078       0   14080
   14081   14082   14081   14082   14082       0   14084   14085   14086   14085
   14086   14086       0   14088   14089   14090   14089   14090   14090       0
   14092   14093   14094   14093   14094   14094       0   14096   14097   14098
   14097   14098   14098       0   14100   14101   14102   14101   14102   14102
       0   14104   14105   14106   14105   14106   14106       0   14108   14109
   14110   14109   14110   14110       0   14112   14113   14114   14113   14114
   14114       0   14116   14117   14118   14117   14118   14118       0   14120
   14121   14122   14121   14122   14122       0   14124   14125   14126   14125
   14126   14126       0   14128   14129   14130   14129   14130   14130       0
   14132   14133   14134   14133   14134   14134       0   14136   14137   14138
   14137   14138   14138       0   14140   14141   14142   14141   14142   14142
       0   14144   14145   14146   14145   14146   14146       0   14148   14149
   14150   14149   14150   14150       0   14152   14153   14154   14153   14154
   14154       0   14156   14157   14158   14157   14158   14158       0   14160
   14161   14162   14161   14162   14162       0   14164   14165   14166   14165
   14166   14166       0   14168   14169   14170   14169   14170   14170       0
   14172   14173   14174   14173   14174   14174       0   14176   14177   14178
   14177   14178   14178       0   14180   14181   14182   14181   14182   14182
       0   14184   14185   14186   14185   14186   14186       0   14188   14189
   14190   14189   14190   14190       0   14192   14193   14194   14193   14194
   14194       0   14196   14197   14198   14197   14198   14198       0   14200
   14201   14202   14201   14202   14202       0   14204   14205   14206   14205
   14206   14206       0   14208   14209   14210   14209   14210   14210       0
   14212   14213   14214   14213   14214   14214       0   14216   14217   14218
   14217   14218   14218       0   14220   14221   14222   14221   14222   14222
       0   14224   14225   14226   14225   14226   14226       0   14228   14229
   14230   14229   14230   14230       0   14232   14233   14234   14233   14234
   14234       0   14236   14237   14238   14237   14238   14238       0   14240
   14241   14242   14241   14242   14242       0   14244   14245   14246   14245
   14246   14246       0   14248   14249   14250   14249   14250   14250       0
   14252   14253   14254   14253   14254   14254       0   14256   14257   14258
   14257   14258   14258       0   14260   14261   14262   14261   14262   14262
       0   14264   14265   14266   14265   14266   14266       0   14268   14269
   14270   14269   14270   14270       0   14272   14273   14274   14273   14274
   14274       0   14276   14277   14278   14277   14278   14278       0   14280
   14281   14282   14281   14282   14282       0   14284   14285   14286   14285
   14286   14286       0   14288   14289   14290   14289   14290   14290       0
   14292   14293   14294   14293   14294   14294       0   14296   14297   14298
   14297   14298   14298       0   14300   14301   14302   14301   14302   14302
       0   14304   14305   14306   14305   14306   14306       0   14308   14309
   14310   14309   14310   14310       0   14312   14313   14314   14313   14314
   14314       0   14316   14317   14318   14317   14318   14318       0   14320
   14321   14322   14321   14322   14322       0   14324   14325   14326   14325
   14326   14326       0   14328   14329   14330   14329   14330   14330       0
   14332   14333   14334   14333   14334   14334       0   14336   14337   14338
   14337   14338   14338       0   14340   14341   14342   14341   14342   14342
       0   14344   14345   14346   14345   14346   14346       0   14348   14349
   14350   14349   14350   14350       0   14352   14353   14354   14353   14354
   14354       0   14356   14357   14358   14357   14358   14358       0   14360
   14361   14362   14361   14362   14362       0   14364   14365   14366   14365
   14366   14366       0   14368   14369   14370   14369   14370   14370       0
   14372   14373   14374   14373   14374   14374       0   14376   14377   14378
   14377   14378   14378       0   14380   14381   14382   14381   14382   14382
       0   14384   14385   14386   14385   14386   14386       0   14388   14389
   14390   14389   14390   14390       0   14392   14393   14394   14393   14394
   14394       0   14396   14397   14398   14397   14398   14398       0   14400
   14401   14402   14401   14402   14402       0   14404   14405   14406   14405
   14406   14406       0   14408   14409   14410   14409   14410   14410       0
   14412   14413   14414   14413   14414   14414       0   14416   14417   14418
   14417   14418   14418       0   14420   14421   14422   14421   14422   14422
       0   14424   14425   14426   14425   14426   14426       0   14428   14429
   14430   14429   14430   14430       0   14432   14433   14434   14433   14434
   14434       0   14436   14437   14438   14437   14438   14438       0   14440
   14441   14442   14441   14442   14442       0   14444   14445   14446   14445
   14446   14446       0   14448   14449   14450   14449   14450   14450       0
   14452   14453   14454   14453   14454   14454       0   14456   14457   14458
   14457   14458   14458       0   14460   14461   14462   14461   14462   14462
       0   14464   14465   14466   14465   14466   14466       0   14468   14469
   14470   14469   14470   14470       0   14472   14473   14474   14473   14474
   14474       0   14476   14477   14478   14477   14478   14478       0   14480
   14481   14482   14481   14482   14482       0   14484   14485   14486   14485
   14486   14486       0   14488   14489   14490   14489   14490   14490       0
   14492   14493   14494   14493   14494   14494       0   14496   14497   14498
   14497   14498   14498       0   14500   14501   14502   14501   14502   14502
       0   14504   14505   14506   14505   14506   14506       0   14508   14509
   14510   14509   14510   14510       0   14512   14513   14514   14513   14514
   14514       0   14516   14517   14518   14517   14518   14518       0   14520
   14521   14522   14521   14522   14522       0   14524   14525   14526   14525
   14526   14526       0   14528   14529   14530   14529   14530   14530       0
   14532   14533   14534   14533   14534   14534       0   14536   14537   14538
   14537   14538   14538       0   14540   14541   14542   14541   14542   14542
       0   14544   14545   14546   14545   14546   14546       0   14548   14549
   14550   14549   14550   14550       0   14552   14553   14554   14553   14554
   14554       0   14556   14557   14558   14557   14558   14558       0   14560
   14561   14562   14561   14562   14562       0   14564   14565   14566   14565
   14566   14566       0   14568   14569   14570   14569   14570   14570       0
   14572   14573   14574   14573   14574   14574       0   14576   14577   14578
   14577   14578   14578       0   14580   14581   14582   14581   14582   14582
       0   14584   14585   14586   14585   14586   14586       0   14588   14589
   14590   14589   14590   14590       0   14592   14593   14594   14593   14594
   14594       0   14596   14597   14598   14597   14598   14598       0   14600
   14601   14602   14601   14602   14602       0   14604   14605   14606   14605
   14606   14606       0   14608   14609   14610   14609   14610   14610       0
   14612   14613   14614   14613   14614   14614       0   14616   14617   14618
   14617   14618   14618       0   14620   14621   14622   14621   14622   14622
       0   14624   14625   14626   14625   14626   14626       0   14628   14629
   14630   14629   14630   14630       0   14632   14633   14634   14633   14634
   14634       0   14636   14637   14638   14637   14638   14638       0   14640
   14641   14642   14641   14642   14642       0   14644   14645   14646   14645
   14646   14646       0   14648   14649   14650   14649   14650   14650       0
   14652   14653   14654   14653   14654   14654       0   14656   14657   14658
   14657   14658   14658       0   14660   14661   14662   14661   14662   14662
       0   14664   14665   14666   14665   14666   14666       0   14668   14669
   14670   14669   14670   14670       0   14672   14673   14674   14673   14674
   14674       0   14676   14677   14678   14677   14678   14678       0   14680
   14681   14682   14681   14682   14682       0   14684   14685   14686   14685
   14686   14686       0   14688   14689   14690   14689   14690   14690       0
   14692   14693   14694   14693   14694   14694       0   14696   14697   14698
   14697   14698   14698       0   14700   14701   14702   14701   14702   14702
       0   14704   14705   14706   14705   14706   14706       0   14708   14709
   14710   14709   14710   14710       0   14712   14713   14714   14713   14714
   14714       0   14716   14717   14718   14717   14718   14718       0   14720
   14721   14722   14721   14722   14722       0   14724   14725   14726   14725
   14726   14726       0   14728   14729   14730   14729   14730   14730       0
   14732   14733   14734   14733   14734   14734       0   14736   14737   14738
   14737   14738   14738       0   14740   14741   14742   14741   14742   14742
       0   14744   14745   14746   14745   14746   14746       0   14748   14749
   14750   14749   14750   14750       0   14752   14753   14754   14753   14754
   14754       0   14756   14757   14758   14757   14758   14758       0   14760
   14761   14762   14761   14762   14762       0   14764   14765   14766   14765
   14766   14766       0   14768   14769   14770   14769   14770   14770       0
   14772   14773   14774   14773   14774   14774       0   14776   14777   14778
   14777   14778   14778       0   14780   14781   14782   14781   14782   14782
       0   14784   14785   14786   14785   14786   14786       0   14788   14789
   14790   14789   14790   14790       0   14792   14793   14794   14793   14794
   14794       0   14796   14797   14798   14797   14798   14798       0   14800
   14801   14802   14801   14802   14802       0   14804   14805   14806   14805
   14806   14806       0   14808   14809   14810   14809   14810   14810       0
   14812   14813   14814   14813   14814   14814       0   14816   14817   14818
   14817   14818   14818       0   14820   14821   14822   14821   14822   14822
       0   14824   14825   14826   14825   14826   14826       0   14828   14829
   14830   14829   14830   14830       0   14832   14833   14834   14833   14834
   14834       0   14836   14837   14838   14837   14838   14838       0   14840
   14841   14842   14841   14842   14842       0   14844   14845   14846   14845
   14846   14846       0   14848   14849   14850   14849   14850   14850       0
   14852   14853   14854   14853   14854   14854       0   14856   14857   14858
   14857   14858   14858       0   14860   14861   14862   14861   14862   14862
       0   14864   14865   14866   14865   14866   14866       0   14868   14869
   14870   14869   14870   14870       0   14872   14873   14874   14873   14874
   14874       0   14876   14877   14878   14877   14878   14878       0   14880
   14881   14882   14881   14882   14882       0   14884   14885   14886   14885
   14886   14886       0   14888   14889   14890   14889   14890   14890       0
   14892   14893   14894   14893   14894   14894       0   14896   14897   14898
   14897   14898   14898       0   14900   14901   14902   14901   14902   14902
       0   14904   14905   14906   14905   14906   14906       0   14908   14909
   14910   14909   14910   14910       0   14912   14913   14914   14913   14914
   14914       0   14916   14917   14918   14917   14918   14918       0   14920
   14921   14922   14921   14922   14922       0   14924   14925   14926   14925
   14926   14926       0   14928   14929   14930   14929   14930   14930       0
   14932   14933   14934   14933   14934   14934       0   14936   14937   14938
   14937   14938   14938       0   14940   14941   14942   14941   14942   14942
       0   14944   14945   14946   14945   14946   14946       0   14948   14949
   14950   14949   14950   14950       0   14952   14953   14954   14953   14954
   14954       0   14956   14957   14958   14957   14958   14958       0   14960
   14961   14962   14961   14962   14962       0   14964   14965   14966   14965
   14966   14966       0   14968   14969   14970   14969   14970   14970       0
   14972   14973   14974   14973   14974   14974       0   14976   14977   14978
   14977   14978   14978       0   14980   14981   14982   14981   14982   14982
       0   14984   14985   14986   14985   14986   14986       0   14988   14989
   14990   14989   14990   14990       0   14992   14993   14994   14993   14994
   14994       0   14996   14997   14998   14997   14998   14998       0   15000
   15001   15002   15001   15002   15002       0   15004   15005   15006   15005
   15006   15006       0   15008   15009   15010   15009   15010   15010       0
   15012   15013   15014   15013   15014   15014       0   15016   15017   15018
   15017   15018   15018       0   15020   15021   15022   15021   15022   15022
       0   15024   15025   15026   15025   15026   15026       0   15028   15029
   15030   15029   15030   15030       0   15032   15033   15034   15033   15034
   15034       0   15036   15037   15038   15037   15038   15038       0   15040
   15041   15042   15041   15042   15042       0   15044   15045   15046   15045
   15046   15046       0   15048   15049   15050   15049   15050   15050       0
   15052   15053   15054   15053   15054   15054       0   15056   15057   15058
   15057   15058   15058       0   15060   15061   15062   15061   15062   15062
       0   15064   15065   15066   15065   15066   15066       0   15068   15069
   15070   15069   15070   15070       0   15072   15073   15074   15073   15074
   15074       0   15076   15077   15078   15077   15078   15078       0   15080
   15081   15082   15081   15082   15082       0   15084   15085   15086   15085
   15086   15086       0   15088   15089   15090   15089   15090   15090       0
   15092   15093   15094   15093   15094   15094       0   15096   15097   15098
   15097   15098   15098       0   15100   15101   15102   15101   15102   15102
       0   15104   15105   15106   15105   15106   15106       0   15108   15109
   15110   15109   15110   15110       0   15112   15113   15114   15113   15114
   15114       0   15116   15117   15118   15117   15118   15118       0   15120
   15121   15122   15121   15122   15122       0   15124   15125   15126   15125
   15126   15126       0   15128   15129   15130   15129   15130   15130       0
   15132   15133   15134   15133   15134   15134       0   15136   15137   15138
   15137   15138   15138       0   15140   15141   15142   15141   15142   15142
       0   15144   15145   15146   15145   15146   15146       0   15148   15149
   15150   15149   15150   15150       0   15152   15153   15154   15153   15154
   15154       0   15156   15157   15158   15157   15158   15158       0   15160
   15161   15162   15161   15162   15162       0   15164   15165   15166   15165
   15166   15166       0   15168   15169   15170   15169   15170   15170       0
   15172   15173   15174   15173   15174   15174       0   15176   15177   15178
   15177   15178   15178       0   15180   15181   15182   15181   15182   15182
       0   15184   15185   15186   15185   15186   15186       0   15188   15189
   15190   15189   15190   15190       0   15192   15193   15194   15193   15194
   15194       0   15196   15197   15198   15197   15198   15198       0   15200
   15201   15202   15201   15202   15202       0   15204   15205   15206   15205
   15206   15206       0   15208   15209   15210   15209   15210   15210       0
   15212   15213   15214   15213   15214   15214       0   15216   15217   15218
   15217   15218   15218       0   15220   15221   15222   15221   15222   15222
       0   15224   15225   15226   15225   15226   15226       0   15228   15229
   15230   15229   15230   15230       0   15232   15233   15234   15233   15234
   15234       0   15236   15237   15238   15237   15238   15238       0   15240
   15241   15242   15241   15242   15242       0   15244   15245   15246   15245
   15246   15246       0   15248   15249   15250   15249   15250   15250       0
   15252   15253   15254   15253   15254   15254       0   15256   15257   15258
   15257   15258   15258       0   15260   15261   15262   15261   15262   15262
       0   15264   15265   15266   15265   15266   15266       0   15268   15269
   15270   15269   15270   15270       0   15272   15273   15274   15273   15274
   15274       0   15276   15277   15278   15277   15278   15278       0   15280
   15281   15282   15281   15282   15282       0   15284   15285   15286   15285
   15286   15286       0   15288   15289   15290   15289   15290   15290       0
   15292   15293   15294   15293   15294   15294       0   15296   15297   15298
   15297   15298   15298       0   15300   15301   15302   15301   15302   15302
       0   15304   15305   15306   15305   15306   15306       0   15308   15309
   15310   15309   15310   15310       0   15312   15313   15314   15313   15314
   15314       0   15316   15317   15318   15317   15318   15318       0   15320
   15321   15322   15321   15322   15322       0   15324   15325   15326   15325
   15326   15326       0   15328   15329   15330   15329   15330   15330       0
   15332   15333   15334   15333   15334   15334       0   15336   15337   15338
   15337   15338   15338       0   15340   15341   15342   15341   15342   15342
       0   15344   15345   15346   15345   15346   15346       0   15348   15349
   15350   15349   15350   15350       0   15352   15353   15354   15353   15354
   15354       0   15356   15357   15358   15357   15358   15358       0   15360
   15361   15362   15361   15362   15362       0   15364   15365   15366   15365
   15366   15366       0   15368   15369   15370   15369   15370   15370       0
   15372   15373   15374   15373   15374   15374       0   15376   15377   15378
   15377   15378   15378       0   15380   15381   15382   15381   15382   15382
       0   15384   15385   15386   15385   15386   15386       0   15388   15389
   15390   15389   15390   15390       0   15392   15393   15394   15393   15394
   15394       0   15396   15397   15398   15397   15398   15398       0   15400
   15401   15402   15401   15402   15402       0   15404   15405   15406   15405
   15406   15406       0   15408   15409   15410   15409   15410   15410       0
   15412   15413   15414   15413   15414   15414       0   15416   15417   15418
   15417   15418   15418       0   15420   15421   15422   15421   15422   15422
       0   15424   15425   15426   15425   15426   15426       0   15428   15429
   15430   15429   15430   15430       0   15432   15433   15434   15433   15434
   15434       0   15436   15437   15438   15437   15438   15438       0   15440
   15441   15442   15441   15442   15442       0   15444   15445   15446   15445
   15446   15446       0   15448   15449   15450   15449   15450   15450       0
   15452   15453   15454   15453   15454   15454       0   15456   15457   15458
   15457   15458   15458       0   15460   15461   15462   15461   15462   15462
       0   15464   15465   15466   15465   15466   15466       0   15468   15469
   15470   15469   15470   15470       0   15472   15473   15474   15473   15474
   15474       0   15476   15477   15478   15477   15478   15478       0   15480
   15481   15482   15481   15482   15482       0   15484   15485   15486   15485
   15486   15486       0   15488   15489   15490   15489   15490   15490       0
   15492   15493   15494   15493   15494   15494       0   15496   15497   15498
   15497   15498   15498       0   15500   15501   15502   15501   15502   15502
       0   15504   15505   15506   15505   15506   15506       0   15508   15509
   15510   15509   15510   15510       0   15512   15513   15514   15513   15514
   15514       0   15516   15517   15518   15517   15518   15518       0   15520
   15521   15522   15521   15522   15522       0   15524   15525   15526   15525
   15526   15526       0   15528   15529   15530   15529   15530   15530       0
   15532   15533   15534   15533   15534   15534       0   15536   15537   15538
   15537   15538   15538       0   15540   15541   15542   15541   15542   15542
       0   15544   15545   15546   15545   15546   15546       0   15548   15549
   15550   15549   15550   15550       0   15552   15553   15554   15553   15554
   15554       0   15556   15557   15558   15557   15558   15558       0   15560
   15561   15562   15561   15562   15562       0   15564   15565   15566   15565
   15566   15566       0   15568   15569   15570   15569   15570   15570       0
   15572   15573   15574   15573   15574   15574       0   15576   15577   15578
   15577   15578   15578       0   15580   15581   15582   15581   15582   15582
       0   15584   15585   15586   15585   15586   15586       0   15588   15589
   15590   15589   15590   15590       0   15592   15593   15594   15593   15594
   15594       0   15596   15597   15598   15597   15598   15598       0   15600
   15601   15602   15601   15602   15602       0   15604   15605   15606   15605
   15606   15606       0   15608   15609   15610   15609   15610   15610       0
   15612   15613   15614   15613   15614   15614       0   15616   15617   15618
   15617   15618   15618       0   15620   15621   15622   15621   15622   15622
       0   15624   15625   15626   15625   15626   15626       0   15628   15629
   15630   15629   15630   15630       0   15632   15633   15634   15633   15634
   15634       0   15636   15637   15638   15637   15638   15638       0   15640
   15641   15642   15641   15642   15642       0   15644   15645   15646   15645
   15646   15646       0   15648   15649   15650   15649   15650   15650       0
   15652   15653   15654   15653   15654   15654       0   15656   15657   15658
   15657   15658   15658       0   15660   15661   15662   15661   15662   15662
       0   15664   15665   15666   15665   15666   15666       0   15668   15669
   15670   15669   15670   15670       0   15672   15673   15674   15673   15674
   15674       0   15676   15677   15678   15677   15678   15678       0   15680
   15681   15682   15681   15682   15682       0   15684   15685   15686   15685
   15686   15686       0   15688   15689   15690   15689   15690   15690       0
   15692   15693   15694   15693   15694   15694       0   15696   15697   15698
   15697   15698   15698       0   15700   15701   15702   15701   15702   15702
       0   15704   15705   15706   15705   15706   15706       0   15708   15709
   15710   15709   15710   15710       0   15712   15713   15714   15713   15714
   15714       0   15716   15717   15718   15717   15718   15718       0   15720
   15721   15722   15721   15722   15722       0   15724   15725   15726   15725
   15726   15726       0   15728   15729   15730   15729   15730   15730       0
   15732   15733   15734   15733   15734   15734       0   15736   15737   15738
   15737   15738   15738       0   15740   15741   15742   15741   15742   15742
       0   15744   15745   15746   15745   15746   15746       0   15748   15749
   15750   15749   15750   15750       0   15752   15753   15754   15753   15754
   15754       0   15756   15757   15758   15757   15758   15758       0   15760
   15761   15762   15761   15762   15762       0   15764   15765   15766   15765
   15766   15766       0   15768   15769   15770   15769   15770   15770       0
   15772   15773   15774   15773   15774   15774       0   15776   15777   15778
   15777   15778   15778       0   15780   15781   15782   15781   15782   15782
       0   15784   15785   15786   15785   15786   15786       0   15788   15789
   15790   15789   15790   15790       0   15792   15793   15794   15793   15794
   15794       0   15796   15797   15798   15797   15798   15798       0   15800
   15801   15802   15801   15802   15802       0   15804   15805   15806   15805
   15806   15806       0   15808   15809   15810   15809   15810   15810       0
   15812   15813   15814   15813   15814   15814       0   15816   15817   15818
   15817   15818   15818       0   15820   15821   15822   15821   15822   15822
       0   15824   15825   15826   15825   15826   15826       0   15828   15829
   15830   15829   15830   15830       0   15832   15833   15834   15833   15834
   15834       0   15836   15837   15838   15837   15838   15838       0   15840
   15841   15842   15841   15842   15842       0   15844   15845   15846   15845
   15846   15846       0   15848   15849   15850   15849   15850   15850       0
   15852   15853   15854   15853   15854   15854       0   15856   15857   15858
   15857   15858   15858       0   15860   15861   15862   15861   15862   15862
       0   15864   15865   15866   15865   15866   15866       0   15868   15869
   15870   15869   15870   15870       0   15872   15873   15874   15873   15874
   15874       0   15876   15877   15878   15877   15878   15878       0   15880
   15881   15882   15881   15882   15882       0   15884   15885   15886   15885
   15886   15886       0   15888   15889   15890   15889   15890   15890       0
   15892   15893   15894   15893   15894   15894       0   15896   15897   15898
   15897   15898   15898       0   15900   15901   15902   15901   15902   15902
       0   15904   15905   15906   15905   15906   15906       0   15908   15909
   15910   15909   15910   15910       0   15912   15913   15914   15913   15914
   15914       0   15916   15917   15918   15917   15918   15918       0   15920
   15921   15922   15921   15922   15922       0   15924   15925   15926   15925
   15926   15926       0   15928   15929   15930   15929   15930   15930       0
   15932   15933   15934   15933   15934   15934       0   15936   15937   15938
   15937   15938   15938       0   15940   15941   15942   15941   15942   15942
       0   15944   15945   15946   15945   15946   15946       0   15948   15949
   15950   15949   15950   15950       0   15952   15953   15954   15953   15954
   15954       0   15956   15957   15958   15957   15958   15958       0   15960
   15961   15962   15961   15962   15962       0   15964   15965   15966   15965
   15966   15966       0   15968   15969   15970   15969   15970   15970       0
   15972   15973   15974   15973   15974   15974       0   15976   15977   15978
   15977   15978   15978       0   15980   15981   15982   15981   15982   15982
       0   15984   15985   15986   15985   15986   15986       0   15988   15989
   15990   15989   15990   15990       0   15992   15993   15994   15993   15994
   15994       0   15996   15997   15998   15997   15998   15998       0   16000
   16001   16002   16001   16002   16002       0   16004   16005   16006   16005
   16006   16006       0   16008   16009   16010   16009   16010   16010       0
   16012   16013   16014   16013   16014   16014       0   16016   16017   16018
   16017   16018   16018       0   16020   16021   16022   16021   16022   16022
       0   16024   16025   16026   16025   16026   16026       0   16028   16029
   16030   16029   16030   16030       0   16032   16033   16034   16033   16034
   16034       0   16036   16037   16038   16037   16038   16038       0   16040
   16041   16042   16041   16042   16042       0   16044   16045   16046   16045
   16046   16046       0   16048   16049   16050   16049   16050   16050       0
   16052   16053   16054   16053   16054   16054       0   16056   16057   16058
   16057   16058   16058       0   16060   16061   16062   16061   16062   16062
       0   16064   16065   16066   16065   16066   16066       0   16068   16069
   16070   16069   16070   16070       0   16072   16073   16074   16073   16074
   16074       0   16076   16077   16078   16077   16078   16078       0   16080
   16081   16082   16081   16082   16082       0   16084   16085   16086   16085
   16086   16086       0   16088   16089   16090   16089   16090   16090       0
   16092   16093   16094   16093   16094   16094       0   16096   16097   16098
   16097   16098   16098       0   16100   16101   16102   16101   16102   16102
       0   16104   16105   16106   16105   16106   16106       0   16108   16109
   16110   16109   16110   16110       0   16112   16113   16114   16113   16114
   16114       0   16116   16117   16118   16117   16118   16118       0   16120
   16121   16122   16121   16122   16122       0   16124   16125   16126   16125
   16126   16126       0   16128   16129   16130   16129   16130   16130       0
   16132   16133   16134   16133   16134   16134       0   16136   16137   16138
   16137   16138   16138       0   16140   16141   16142   16141   16142   16142
       0   16144   16145   16146   16145   16146   16146       0   16148   16149
   16150   16149   16150   16150       0   16152   16153   16154   16153   16154
   16154       0   16156   16157   16158   16157   16158   16158       0   16160
   16161   16162   16161   16162   16162       0   16164   16165   16166   16165
   16166   16166       0   16168   16169   16170   16169   16170   16170       0
   16172   16173   16174   16173   16174   16174       0   16176   16177   16178
   16177   16178   16178       0   16180   16181   16182   16181   16182   16182
       0   16184   16185   16186   16185   16186   16186       0   16188   16189
   16190   16189   16190   16190       0   16192   16193   16194   16193   16194
   16194       0   16196   16197   16198   16197   16198   16198       0   16200
   16201   16202   16201   16202   16202       0   16204   16205   16206   16205
   16206   16206       0   16208   16209   16210   16209   16210   16210       0
   16212   16213   16214   16213   16214   16214       0   16216   16217   16218
   16217   16218   16218       0   16220   16221   16222   16221   16222   16222
       0   16224   16225   16226   16225   16226   16226       0   16228   16229
   16230   16229   16230   16230       0   16232   16233   16234   16233   16234
   16234       0   16236   16237   16238   16237   16238   16238       0   16240
   16241   16242   16241   16242   16242       0   16244   16245   16246   16245
   16246   16246       0   16248   16249   16250   16249   16250   16250       0
   16252   16253   16254   16253   16254   16254       0   16256   16257   16258
   16257   16258   16258       0   16260   16261   16262   16261   16262   16262
       0   16264   16265   16266   16265   16266   16266       0   16268   16269
   16270   16269   16270   16270       0   16272   16273   16274   16273   16274
   16274       0   16276   16277   16278   16277   16278   16278       0   16280
   16281   16282   16281   16282   16282       0   16284   16285   16286   16285
   16286   16286       0   16288   16289   16290   16289   16290   16290       0
   16292   16293   16294   16293   16294   16294       0   16296   16297   16298
   16297   16298   16298       0   16300   16301   16302   16301   16302   16302
       0   16304   16305   16306   16305   16306   16306       0   16308   16309
   16310   16309   16310   16310       0   16312   16313   16314   16313   16314
   16314       0   16316   16317   16318   16317   16318   16318       0   16320
   16321   16322   16321   16322   16322       0   16324   16325   16326   16325
   16326   16326       0   16328   16329   16330   16329   16330   16330       0
   16332   16333   16334   16333   16334   16334       0   16336   16337   16338
   16337   16338   16338       0   16340   16341   16342   16341   16342   16342
       0   16344   16345   16346   16345   16346   16346       0   16348   16349
   16350   16349   16350   16350       0   16352   16353   16354   16353   16354
   16354       0   16356   16357   16358   16357   16358   16358       0   16360
   16361   16362   16361   16362   16362       0   16364   16365   16366   16365
   16366   16366       0   16368   16369   16370   16369   16370   16370       0
   16372   16373   16374   16373   16374   16374       0   16376   16377   16378
   16377   16378   16378       0   16380   16381   16382   16381   16382   16382
       0   16384   16385   16386   16385   16386   16386       0   16388   16389
   16390   16389   16390   16390       0   16392   16393   16394   16393   16394
   16394       0   16396   16397   16398   16397   16398   16398       0   16400
   16401   16402   16401   16402   16402       0   16404   16405   16406   16405
   16406   16406       0   16408   16409   16410   16409   16410   16410       0
   16412   16413   16414   16413   16414   16414       0   16416   16417   16418
   16417   16418   16418       0   16420   16421   16422   16421   16422   16422
       0   16424   16425   16426   16425   16426   16426       0   16428   16429
   16430   16429   16430   16430       0   16432   16433   16434   16433   16434
   16434       0   16436   16437   16438   16437   16438   16438       0   16440
   16441   16442   16441   16442   16442       0   16444   16445   16446   16445
   16446   16446       0   16448   16449   16450   16449   16450   16450       0
   16452   16453   16454   16453   16454   16454       0   16456   16457   16458
   16457   16458   16458       0   16460   16461   16462   16461   16462   16462
       0   16464   16465   16466   16465   16466   16466       0   16468   16469
   16470   16469   16470   16470       0   16472   16473   16474   16473   16474
   16474       0   16476   16477   16478   16477   16478   16478       0   16480
   16481   16482   16481   16482   16482       0   16484   16485   16486   16485
   16486   16486       0   16488   16489   16490   16489   16490   16490       0
   16492   16493   16494   16493   16494   16494       0   16496   16497   16498
   16497   16498   16498       0   16500   16501   16502   16501   16502   16502
       0   16504   16505   16506   16505   16506   16506       0   16508   16509
   16510   16509   16510   16510       0   16512   16513   16514   16513   16514
   16514       0   16516   16517   16518   16517   16518   16518       0   16520
   16521   16522   16521   16522   16522       0   16524   16525   16526   16525
   16526   16526       0   16528   16529   16530   16529   16530   16530       0
   16532   16533   16534   16533   16534   16534       0   16536   16537   16538
   16537   16538   16538       0   16540   16541   16542   16541   16542   16542
       0   16544   16545   16546   16545   16546   16546       0   16548   16549
   16550   16549   16550   16550       0   16552   16553   16554   16553   16554
   16554       0   16556   16557   16558   16557   16558   16558       0   16560
   16561   16562   16561   16562   16562       0   16564   16565   16566   16565
   16566   16566       0   16568   16569   16570   16569   16570   16570       0
   16572   16573   16574   16573   16574   16574       0   16576   16577   16578
   16577   16578   16578       0   16580   16581   16582   16581   16582   16582
       0   16584   16585   16586   16585   16586   16586       0   16588   16589
   16590   16589   16590   16590       0   16592   16593   16594   16593   16594
   16594       0   16596   16597   16598   16597   16598   16598       0   16600
   16601   16602   16601   16602   16602       0   16604   16605   16606   16605
   16606   16606       0   16608   16609   16610   16609   16610   16610       0
   16612   16613   16614   16613   16614   16614       0   16616   16617   16618
   16617   16618   16618       0   16620   16621   16622   16621   16622   16622
       0   16624   16625   16626   16625   16626   16626       0   16628   16629
   16630   16629   16630   16630       0   16632   16633   16634   16633   16634
   16634       0   16636   16637   16638   16637   16638   16638       0   16640
   16641   16642   16641   16642   16642       0   16644   16645   16646   16645
   16646   16646       0   16648   16649   16650   16649   16650   16650       0
   16652   16653   16654   16653   16654   16654       0   16656   16657   16658
   16657   16658   16658       0   16660   16661   16662   16661   16662   16662
       0   16664   16665   16666   16665   16666   16666       0   16668   16669
   16670   16669   16670   16670       0   16672   16673   16674   16673   16674
   16674       0   16676   16677   16678   16677   16678   16678       0   16680
   16681   16682   16681   16682   16682       0   16684   16685   16686   16685
   16686   16686       0   16688   16689   16690   16689   16690   16690       0
   16692   16693   16694   16693   16694   16694       0   16696   16697   16698
   16697   16698   16698       0   16700   16701   16702   16701   16702   16702
       0   16704   16705   16706   16705   16706   16706       0   16708   16709
   16710   16709   16710   16710       0   16712   16713   16714   16713   16714
   16714       0   16716   16717   16718   16717   16718   16718       0   16720
   16721   16722   16721   16722   16722       0   16724   16725   16726   16725
   16726   16726       0   16728   16729   16730   16729   16730   16730       0
   16732   16733   16734   16733   16734   16734       0   16736   16737   16738
   16737   16738   16738       0   16740   16741   16742   16741   16742   16742
       0   16744   16745   16746   16745   16746   16746       0   16748   16749
   16750   16749   16750   16750       0   16752   16753   16754   16753   16754
   16754       0   16756   16757   16758   16757   16758   16758       0   16760
   16761   16762   16761   16762   16762       0   16764   16765   16766   16765
   16766   16766       0   16768   16769   16770   16769   16770   16770       0
   16772   16773   16774   16773   16774   16774       0   16776   16777   16778
   16777   16778   16778       0   16780   16781   16782   16781   16782   16782
       0   16784   16785   16786   16785   16786   16786       0   16788   16789
   16790   16789   16790   16790       0   16792   16793   16794   16793   16794
   16794       0   16796   16797   16798   16797   16798   16798       0   16800
   16801   16802   16801   16802   16802       0   16804   16805   16806   16805
   16806   16806       0   16808   16809   16810   16809   16810   16810       0
   16812   16813   16814   16813   16814   16814       0   16816   16817   16818
   16817   16818   16818       0   16820   16821   16822   16821   16822   16822
       0   16824   16825   16826   16825   16826   16826       0   16828   16829
   16830   16829   16830   16830       0   16832   16833   16834   16833   16834
   16834       0   16836   16837   16838   16837   16838   16838       0   16840
   16841   16842   16841   16842   16842       0   16844   16845   16846   16845
   16846   16846       0   16848   16849   16850   16849   16850   16850       0
   16852   16853   16854   16853   16854   16854       0   16856   16857   16858
   16857   16858   16858       0   16860   16861   16862   16861   16862   16862
       0   16864   16865   16866   16865   16866   16866       0   16868   16869
   16870   16869   16870   16870       0   16872   16873   16874   16873   16874
   16874       0   16876   16877   16878   16877   16878   16878       0   16880
   16881   16882   16881   16882   16882       0   16884   16885   16886   16885
   16886   16886       0   16888   16889   16890   16889   16890   16890       0
   16892   16893   16894   16893   16894   16894       0   16896   16897   16898
   16897   16898   16898       0   16900   16901   16902   16901   16902   16902
       0   16904   16905   16906   16905   16906   16906       0   16908   16909
   16910   16909   16910   16910       0   16912   16913   16914   16913   16914
   16914       0   16916   16917   16918   16917   16918   16918       0   16920
   16921   16922   16921   16922   16922       0   16924   16925   16926   16925
   16926   16926       0   16928   16929   16930   16929   16930   16930       0
   16932   16933   16934   16933   16934   16934       0   16936   16937   16938
   16937   16938   16938       0   16940   16941   16942   16941   16942   16942
       0   16944   16945   16946   16945   16946   16946       0   16948   16949
   16950   16949   16950   16950       0   16952   16953   16954   16953   16954
   16954       0   16956   16957   16958   16957   16958   16958       0   16960
   16961   16962   16961   16962   16962       0   16964   16965   16966   16965
   16966   16966       0   16968   16969   16970   16969   16970   16970       0
   16972   16973   16974   16973   16974   16974       0   16976   16977   16978
   16977   16978   16978       0   16980   16981   16982   16981   16982   16982
       0   16984   16985   16986   16985   16986   16986       0   16988   16989
   16990   16989   16990   16990       0   16992   16993   16994   16993   16994
   16994       0   16996   16997   16998   16997   16998   16998       0   17000
   17001   17002   17001   17002   17002       0   17004   17005   17006   17005
   17006   17006       0   17008   17009   17010   17009   17010   17010       0
   17012   17013   17014   17013   17014   17014       0   17016   17017   17018
   17017   17018   17018       0   17020   17021   17022   17021   17022   17022
       0   17024   17025   17026   17025   17026   17026       0   17028   17029
   17030   17029   17030   17030       0   17032   17033   17034   17033   17034
   17034       0   17036   17037   17038   17037   17038   17038       0   17040
   17041   17042   17041   17042   17042       0   17044   17045   17046   17045
   17046   17046       0   17048   17049   17050   17049   17050   17050       0
   17052   17053   17054   17053   17054   17054       0   17056   17057   17058
   17057   17058   17058       0   17060   17061   17062   17061   17062   17062
       0   17064   17065   17066   17065   17066   17066       0   17068   17069
   17070   17069   17070   17070       0   17072   17073   17074   17073   17074
   17074       0   17076   17077   17078   17077   17078   17078       0   17080
   17081   17082   17081   17082   17082       0   17084   17085   17086   17085
   17086   17086       0   17088   17089   17090   17089   17090   17090       0
   17092   17093   17094   17093   17094   17094       0   17096   17097   17098
   17097   17098   17098       0   17100   17101   17102   17101   17102   17102
       0   17104   17105   17106   17105   17106   17106       0   17108   17109
   17110   17109   17110   17110       0   17112   17113   17114   17113   17114
   17114       0   17116   17117   17118   17117   17118   17118       0   17120
   17121   17122   17121   17122   17122       0   17124   17125   17126   17125
   17126   17126       0   17128   17129   17130   17129   17130   17130       0
   17132   17133   17134   17133   17134   17134       0   17136   17137   17138
   17137   17138   17138       0   17140   17141   17142   17141   17142   17142
       0   17144   17145   17146   17145   17146   17146       0   17148   17149
   17150   17149   17150   17150       0   17152   17153   17154   17153   17154
   17154       0   17156   17157   17158   17157   17158   17158       0   17160
   17161   17162   17161   17162   17162       0   17164   17165   17166   17165
   17166   17166       0   17168   17169   17170   17169   17170   17170       0
   17172   17173   17174   17173   17174   17174       0   17176   17177   17178
   17177   17178   17178       0   17180   17181   17182   17181   17182   17182
       0   17184   17185   17186   17185   17186   17186       0   17188   17189
   17190   17189   17190   17190       0   17192   17193   17194   17193   17194
   17194       0   17196   17197   17198   17197   17198   17198       0   17200
   17201   17202   17201   17202   17202       0   17204   17205   17206   17205
   17206   17206       0   17208   17209   17210   17209   17210   17210       0
   17212   17213   17214   17213   17214   17214       0   17216   17217   17218
   17217   17218   17218       0   17220   17221   17222   17221   17222   17222
       0   17224   17225   17226   17225   17226   17226       0   17228   17229
   17230   17229   17230   17230       0   17232   17233   17234   17233   17234
   17234       0   17236   17237   17238   17237   17238   17238       0   17240
   17241   17242   17241   17242   17242       0   17244   17245   17246   17245
   17246   17246       0   17248   17249   17250   17249   17250   17250       0
   17252   17253   17254   17253   17254   17254       0   17256   17257   17258
   17257   17258   17258       0   17260   17261   17262   17261   17262   17262
       0   17264   17265   17266   17265   17266   17266       0   17268   17269
   17270   17269   17270   17270       0   17272   17273   17274   17273   17274
   17274       0   17276   17277   17278   17277   17278   17278       0   17280
   17281   17282   17281   17282   17282       0   17284   17285   17286   17285
   17286   17286       0   17288   17289   17290   17289   17290   17290       0
   17292   17293   17294   17293   17294   17294       0   17296   17297   17298
   17297   17298   17298       0   17300   17301   17302   17301   17302   17302
       0   17304   17305   17306   17305   17306   17306       0   17308   17309
   17310   17309   17310   17310       0   17312   17313   17314   17313   17314
   17314       0   17316   17317   17318   17317   17318   17318       0   17320
   17321   17322   17321   17322   17322       0   17324   17325   17326   17325
   17326   17326       0   17328   17329   17330   17329   17330   17330       0
   17332   17333   17334   17333   17334   17334       0   17336   17337   17338
   17337   17338   17338       0   17340   17341   17342   17341   17342   17342
       0   17344   17345   17346   17345   17346   17346       0   17348   17349
   17350   17349   17350   17350       0   17352   17353   17354   17353   17354
   17354       0   17356   17357   17358   17357   17358   17358       0   17360
   17361   17362   17361   17362   17362       0   17364   17365   17366   17365
   17366   17366       0   17368   17369   17370   17369   17370   17370       0
   17372   17373   17374   17373   17374   17374       0   17376   17377   17378
   17377   17378   17378       0   17380   17381   17382   17381   17382   17382
       0   17384   17385   17386   17385   17386   17386       0   17388   17389
   17390   17389   17390   17390       0   17392   17393   17394   17393   17394
   17394       0   17396   17397   17398   17397   17398   17398       0   17400
   17401   17402   17401   17402   17402       0   17404   17405   17406   17405
   17406   17406       0   17408   17409   17410   17409   17410   17410       0
   17412   17413   17414   17413   17414   17414       0   17416   17417   17418
   17417   17418   17418       0   17420   17421   17422   17421   17422   17422
       0   17424   17425   17426   17425   17426   17426       0   17428   17429
   17430   17429   17430   17430       0   17432   17433   17434   17433   17434
   17434       0   17436   17437   17438   17437   17438   17438       0   17440
   17441   17442   17441   17442   17442       0   17444   17445   17446   17445
   17446   17446       0   17448   17449   17450   17449   17450   17450       0
   17452   17453   17454   17453   17454   17454       0   17456   17457   17458
   17457   17458   17458       0   17460   17461   17462   17461   17462   17462
       0   17464   17465   17466   17465   17466   17466       0   17468   17469
   17470   17469   17470   17470       0   17472   17473   17474   17473   17474
   17474       0   17476   17477   17478   17477   17478   17478       0   17480
   17481   17482   17481   17482   17482       0   17484   17485   17486   17485
   17486   17486       0   17488   17489   17490   17489   17490   17490       0
   17492   17493   17494   17493   17494   17494       0   17496   17497   17498
   17497   17498   17498       0   17500   17501   17502   17501   17502   17502
       0   17504   17505   17506   17505   17506   17506       0   17508   17509
   17510   17509   17510   17510       0   17512   17513   17514   17513   17514
   17514       0   17516   17517   17518   17517   17518   17518       0   17520
   17521   17522   17521   17522   17522       0   17524   17525   17526   17525
   17526   17526       0   17528   17529   17530   17529   17530   17530       0
   17532   17533   17534   17533   17534   17534       0   17536   17537   17538
   17537   17538   17538       0   17540   17541   17542   17541   17542   17542
       0   17544   17545   17546   17545   17546   17546       0   17548   17549
   17550   17549   17550   17550       0   17552   17553   17554   17553   17554
   17554       0   17556   17557   17558   17557   17558   17558       0   17560
   17561   17562   17561   17562   17562       0   17564   17565   17566   17565
   17566   17566       0   17568   17569   17570   17569   17570   17570       0
   17572   17573   17574   17573   17574   17574       0   17576   17577   17578
   17577   17578   17578       0   17580   17581   17582   17581   17582   17582
       0   17584   17585   17586   17585   17586   17586       0   17588   17589
   17590   17589   17590   17590       0   17592   17593   17594   17593   17594
   17594       0   17596   17597   17598   17597   17598   17598       0   17600
   17601   17602   17601   17602   17602       0   17604   17605   17606   17605
   17606   17606       0   17608   17609   17610   17609   17610   17610       0
   17612   17613   17614   17613   17614   17614       0   17616   17617   17618
   17617   17618   17618       0   17620   17621   17622   17621   17622   17622
       0   17624   17625   17626   17625   17626   17626       0   17628   17629
   17630   17629   17630   17630       0   17632   17633   17634   17633   17634
   17634       0   17636   17637   17638   17637   17638   17638       0   17640
   17641   17642   17641   17642   17642       0   17644   17645   17646   17645
   17646   17646       0   17648   17649   17650   17649   17650   17650       0
   17652   17653   17654   17653   17654   17654       0   17656   17657   17658
   17657   17658   17658       0   17660   17661   17662   17661   17662   17662
       0   17664   17665   17666   17665   17666   17666       0   17668   17669
   17670   17669   17670   17670       0   17672   17673   17674   17673   17674
   17674       0   17676   17677   17678   17677   17678   17678       0   17680
   17681   17682   17681   17682   17682       0   17684   17685   17686   17685
   17686   17686       0   17688   17689   17690   17689   17690   17690       0
   17692   17693   17694   17693   17694   17694       0   17696   17697   17698
   17697   17698   17698       0   17700   17701   17702   17701   17702   17702
       0   17704   17705   17706   17705   17706   17706       0   17708   17709
   17710   17709   17710   17710       0   17712   17713   17714   17713   17714
   17714       0   17716   17717   17718   17717   17718   17718       0   17720
   17721   17722   17721   17722   17722       0   17724   17725   17726   17725
   17726   17726       0   17728   17729   17730   17729   17730   17730       0
   17732   17733   17734   17733   17734   17734       0   17736   17737   17738
   17737   17738   17738       0   17740   17741   17742   17741   17742   17742
       0   17744   17745   17746   17745   17746   17746       0   17748   17749
   17750   17749   17750   17750       0   17752   17753   17754   17753   17754
   17754       0   17756   17757   17758   17757   17758   17758       0   17760
   17761   17762   17761   17762   17762       0   17764   17765   17766   17765
   17766   17766       0   17768   17769   17770   17769   17770   17770       0
   17772   17773   17774   17773   17774   17774       0   17776   17777   17778
   17777   17778   17778       0   17780   17781   17782   17781   17782   17782
       0   17784   17785   17786   17785   17786   17786       0   17788   17789
   17790   17789   17790   17790       0   17792   17793   17794   17793   17794
   17794       0   17796   17797   17798   17797   17798   17798       0   17800
   17801   17802   17801   17802   17802       0   17804   17805   17806   17805
   17806   17806       0   17808   17809   17810   17809   17810   17810       0
   17812   17813   17814   17813   17814   17814       0   17816   17817   17818
   17817   17818   17818       0   17820   17821   17822   17821   17822   17822
       0   17824   17825   17826   17825   17826   17826       0   17828   17829
   17830   17829   17830   17830       0   17832   17833   17834   17833   17834
   17834       0   17836   17837   17838   17837   17838   17838       0   17840
   17841   17842   17841   17842   17842       0   17844   17845   17846   17845
   17846   17846       0   17848   17849   17850   17849   17850   17850       0
   17852   17853   17854   17853   17854   17854       0   17856   17857   17858
   17857   17858   17858       0   17860   17861   17862   17861   17862   17862
       0   17864   17865   17866   17865   17866   17866       0   17868   17869
   17870   17869   17870   17870       0   17872   17873   17874   17873   17874
   17874       0   17876   17877   17878   17877   17878   17878       0   17880
   17881   17882   17881   17882   17882       0   17884   17885   17886   17885
   17886   17886       0   17888   17889   17890   17889   17890   17890       0
   17892   17893   17894   17893   17894   17894       0   17896   17897   17898
   17897   17898   17898       0   17900   17901   17902   17901   17902   17902
       0   17904   17905   17906   17905   17906   17906       0   17908   17909
   17910   17909   17910   17910       0   17912   17913   17914   17913   17914
   17914       0   17916   17917   17918   17917   17918   17918       0   17920
   17921   17922   17921   17922   17922       0   17924   17925   17926   17925
   17926   17926       0   17928   17929   17930   17929   17930   17930       0
   17932   17933   17934   17933   17934   17934       0   17936   17937   17938
   17937   17938   17938       0   17940   17941   17942   17941   17942   17942
       0   17944   17945   17946   17945   17946   17946       0   17948   17949
   17950   17949   17950   17950       0   17952   17953   17954   17953   17954
   17954       0   17956   17957   17958   17957   17958   17958       0   17960
   17961   17962   17961   17962   17962       0   17964   17965   17966   17965
   17966   17966       0   17968   17969   17970   17969   17970   17970       0
   17972   17973   17974   17973   17974   17974       0   17976   17977   17978
   17977   17978   17978       0   17980   17981   17982   17981   17982   17982
       0   17984   17985   17986   17985   17986   17986       0   17988   17989
   17990   17989   17990   17990       0   17992   17993   17994   17993   17994
   17994       0   17996   17997   17998   17997   17998   17998       0   18000
   18001   18002   18001   18002   18002       0   18004   18005   18006   18005
   18006   18006       0   18008   18009   18010   18009   18010   18010       0
   18012   18013   18014   18013   18014   18014       0   18016   18017   18018
   18017   18018   18018       0   18020   18021   18022   18021   18022   18022
       0   18024   18025   18026   18025   18026   18026       0   18028   18029
   18030   18029   18030   18030       0   18032   18033   18034   18033   18034
   18034       0   18036   18037   18038   18037   18038   18038       0   18040
   18041   18042   18041   18042   18042       0   18044   18045   18046   18045
   18046   18046       0   18048   18049   18050   18049   18050   18050       0
   18052   18053   18054   18053   18054   18054       0   18056   18057   18058
   18057   18058   18058       0   18060   18061   18062   18061   18062   18062
       0   18064   18065   18066   18065   18066   18066       0   18068   18069
   18070   18069   18070   18070       0   18072   18073   18074   18073   18074
   18074       0   18076   18077   18078   18077   18078   18078       0   18080
   18081   18082   18081   18082   18082       0   18084   18085   18086   18085
   18086   18086       0   18088   18089   18090   18089   18090   18090       0
   18092   18093   18094   18093   18094   18094       0   18096   18097   18098
   18097   18098   18098       0   18100   18101   18102   18101   18102   18102
       0   18104   18105   18106   18105   18106   18106       0   18108   18109
   18110   18109   18110   18110       0   18112   18113   18114   18113   18114
   18114       0   18116   18117   18118   18117   18118   18118       0   18120
   18121   18122   18121   18122   18122       0   18124   18125   18126   18125
   18126   18126       0   18128   18129   18130   18129   18130   18130       0
   18132   18133   18134   18133   18134   18134       0   18136   18137   18138
   18137   18138   18138       0   18140   18141   18142   18141   18142   18142
       0   18144   18145   18146   18145   18146   18146       0   18148   18149
   18150   18149   18150   18150       0   18152   18153   18154   18153   18154
   18154       0   18156   18157   18158   18157   18158   18158       0   18160
   18161   18162   18161   18162   18162       0   18164   18165   18166   18165
   18166   18166       0   18168   18169   18170   18169   18170   18170       0
   18172   18173   18174   18173   18174   18174       0   18176   18177   18178
   18177   18178   18178       0   18180   18181   18182   18181   18182   18182
       0   18184   18185   18186   18185   18186   18186       0   18188   18189
   18190   18189   18190   18190       0   18192   18193   18194   18193   18194
   18194       0   18196   18197   18198   18197   18198   18198       0   18200
   18201   18202   18201   18202   18202       0   18204   18205   18206   18205
   18206   18206       0   18208   18209   18210   18209   18210   18210       0
   18212   18213   18214   18213   18214   18214       0   18216   18217   18218
   18217   18218   18218       0   18220   18221   18222   18221   18222   18222
       0   18224   18225   18226   18225   18226   18226       0   18228   18229
   18230   18229   18230   18230       0   18232   18233   18234   18233   18234
   18234       0   18236   18237   18238   18237   18238   18238       0   18240
   18241   18242   18241   18242   18242       0   18244   18245   18246   18245
   18246   18246       0   18248   18249   18250   18249   18250   18250       0
   18252   18253   18254   18253   18254   18254       0   18256   18257   18258
   18257   18258   18258       0   18260   18261   18262   18261   18262   18262
       0   18264   18265   18266   18265   18266   18266       0   18268   18269
   18270   18269   18270   18270       0   18272   18273   18274   18273   18274
   18274       0   18276   18277   18278   18277   18278   18278       0   18280
   18281   18282   18281   18282   18282       0   18284   18285   18286   18285
   18286   18286       0   18288   18289   18290   18289   18290   18290       0
   18292   18293   18294   18293   18294   18294       0   18296   18297   18298
   18297   18298   18298       0   18300   18301   18302   18301   18302   18302
       0   18304   18305   18306   18305   18306   18306       0   18308   18309
   18310   18309   18310   18310       0   18312   18313   18314   18313   18314
   18314       0   18316   18317   18318   18317   18318   18318       0   18320
   18321   18322   18321   18322   18322       0   18324   18325   18326   18325
   18326   18326       0   18328   18329   18330   18329   18330   18330       0
   18332   18333   18334   18333   18334   18334       0   18336   18337   18338
   18337   18338   18338       0   18340   18341   18342   18341   18342   18342
       0   18344   18345   18346   18345   18346   18346       0   18348   18349
   18350   18349   18350   18350       0   18352   18353   18354   18353   18354
   18354       0   18356   18357   18358   18357   18358   18358       0   18360
   18361   18362   18361   18362   18362       0   18364   18365   18366   18365
   18366   18366       0   18368   18369   18370   18369   18370   18370       0
   18372   18373   18374   18373   18374   18374       0   18376   18377   18378
   18377   18378   18378       0   18380   18381   18382   18381   18382   18382
       0   18384   18385   18386   18385   18386   18386       0   18388   18389
   18390   18389   18390   18390       0   18392   18393   18394   18393   18394
   18394       0   18396   18397   18398   18397   18398   18398       0   18400
   18401   18402   18401   18402   18402       0   18404   18405   18406   18405
   18406   18406       0   18408   18409   18410   18409   18410   18410       0
   18412   18413   18414   18413   18414   18414       0   18416   18417   18418
   18417   18418   18418       0   18420   18421   18422   18421   18422   18422
       0   18424   18425   18426   18425   18426   18426       0   18428   18429
   18430   18429   18430   18430       0   18432   18433   18434   18433   18434
   18434       0   18436   18437   18438   18437   18438   18438       0   18440
   18441   18442   18441   18442   18442       0   18444   18445   18446   18445
   18446   18446       0   18448   18449   18450   18449   18450   18450       0
   18452   18453   18454   18453   18454   18454       0   18456   18457   18458
   18457   18458   18458       0   18460   18461   18462   18461   18462   18462
       0   18464   18465   18466   18465   18466   18466       0   18468   18469
   18470   18469   18470   18470       0   18472   18473   18474   18473   18474
   18474       0   18476   18477   18478   18477   18478   18478       0   18480
   18481   18482   18481   18482   18482       0   18484   18485   18486   18485
   18486   18486       0   18488   18489   18490   18489   18490   18490       0
   18492   18493   18494   18493   18494   18494       0   18496   18497   18498
   18497   18498   18498       0   18500   18501   18502   18501   18502   18502
       0   18504   18505   18506   18505   18506   18506       0   18508   18509
   18510   18509   18510   18510       0   18512   18513   18514   18513   18514
   18514       0   18516   18517   18518   18517   18518   18518       0   18520
   18521   18522   18521   18522   18522       0   18524   18525   18526   18525
   18526   18526       0   18528   18529   18530   18529   18530   18530       0
   18532   18533   18534   18533   18534   18534       0   18536   18537   18538
   18537   18538   18538       0   18540   18541   18542   18541   18542   18542
       0   18544   18545   18546   18545   18546   18546       0   18548   18549
   18550   18549   18550   18550       0   18552   18553   18554   18553   18554
   18554       0   18556   18557   18558   18557   18558   18558       0   18560
   18561   18562   18561   18562   18562       0   18564   18565   18566   18565
   18566   18566       0   18568   18569   18570   18569   18570   18570       0
   18572   18573   18574   18573   18574   18574       0   18576   18577   18578
   18577   18578   18578       0   18580   18581   18582   18581   18582   18582
       0   18584   18585   18586   18585   18586   18586       0   18588   18589
   18590   18589   18590   18590       0   18592   18593   18594   18593   18594
   18594       0   18596   18597   18598   18597   18598   18598       0   18600
   18601   18602   18601   18602   18602       0   18604   18605   18606   18605
   18606   18606       0   18608   18609   18610   18609   18610   18610       0
   18612   18613   18614   18613   18614   18614       0   18616   18617   18618
   18617   18618   18618       0   18620   18621   18622   18621   18622   18622
       0   18624   18625   18626   18625   18626   18626       0   18628   18629
   18630   18629   18630   18630       0   18632   18633   18634   18633   18634
   18634       0   18636   18637   18638   18637   18638   18638       0   18640
   18641   18642   18641   18642   18642       0   18644   18645   18646   18645
   18646   18646       0   18648   18649   18650   18649   18650   18650       0
   18652   18653   18654   18653   18654   18654       0   18656   18657   18658
   18657   18658   18658       0   18660   18661   18662   18661   18662   18662
       0   18664   18665   18666   18665   18666   18666       0   18668   18669
   18670   18669   18670   18670       0   18672   18673   18674   18673   18674
   18674       0   18676   18677   18678   18677   18678   18678       0   18680
   18681   18682   18681   18682   18682       0   18684   18685   18686   18685
   18686   18686       0   18688   18689   18690   18689   18690   18690       0
   18692   18693   18694   18693   18694   18694       0   18696   18697   18698
   18697   18698   18698       0   18700   18701   18702   18701   18702   18702
       0   18704   18705   18706   18705   18706   18706       0   18708   18709
   18710   18709   18710   18710       0   18712   18713   18714   18713   18714
   18714       0   18716   18717   18718   18717   18718   18718       0   18720
   18721   18722   18721   18722   18722       0   18724   18725   18726   18725
   18726   18726       0   18728   18729   18730   18729   18730   18730       0
   18732   18733   18734   18733   18734   18734       0   18736   18737   18738
   18737   18738   18738       0   18740   18741   18742   18741   18742   18742
       0   18744   18745   18746   18745   18746   18746       0   18748   18749
   18750   18749   18750   18750       0   18752   18753   18754   18753   18754
   18754       0   18756   18757   18758   18757   18758   18758       0   18760
   18761   18762   18761   18762   18762       0   18764   18765   18766   18765
   18766   18766       0   18768   18769   18770   18769   18770   18770       0
   18772   18773   18774   18773   18774   18774       0   18776   18777   18778
   18777   18778   18778       0   18780   18781   18782   18781   18782   18782
       0   18784   18785   18786   18785   18786   18786       0   18788   18789
   18790   18789   18790   18790       0   18792   18793   18794   18793   18794
   18794       0   18796   18797   18798   18797   18798   18798       0   18800
   18801   18802   18801   18802   18802       0   18804   18805   18806   18805
   18806   18806       0   18808   18809   18810   18809   18810   18810       0
   18812   18813   18814   18813   18814   18814       0   18816   18817   18818
   18817   18818   18818       0   18820   18821   18822   18821   18822   18822
       0   18824   18825   18826   18825   18826   18826       0   18828   18829
   18830   18829   18830   18830       0   18832   18833   18834   18833   18834
   18834       0   18836   18837   18838   18837   18838   18838       0   18840
   18841   18842   18841   18842   18842       0   18844   18845   18846   18845
   18846   18846       0   18848   18849   18850   18849   18850   18850       0
   18852   18853   18854   18853   18854   18854       0   18856   18857   18858
   18857   18858   18858       0   18860   18861   18862   18861   18862   18862
       0   18864   18865   18866   18865   18866   18866       0   18868   18869
   18870   18869   18870   18870       0   18872   18873   18874   18873   18874
   18874       0   18876   18877   18878   18877   18878   18878       0   18880
   18881   18882   18881   18882   18882       0   18884   18885   18886   18885
   18886   18886       0   18888   18889   18890   18889   18890   18890       0
   18892   18893   18894   18893   18894   18894       0   18896   18897   18898
   18897   18898   18898       0   18900   18901   18902   18901   18902   18902
       0   18904   18905   18906   18905   18906   18906       0   18908   18909
   18910   18909   18910   18910       0   18912   18913   18914   18913   18914
   18914       0   18916   18917   18918   18917   18918   18918       0   18920
   18921   18922   18921   18922   18922       0   18924   18925   18926   18925
   18926   18926       0   18928   18929   18930   18929   18930   18930       0
   18932   18933   18934   18933   18934   18934       0   18936   18937   18938
   18937   18938   18938       0   18940   18941   18942   18941   18942   18942
       0   18944   18945   18946   18945   18946   18946       0   18948   18949
   18950   18949   18950   18950       0   18952   18953   18954   18953   18954
   18954       0   18956   18957   18958   18957   18958   18958       0   18960
   18961   18962   18961   18962   18962       0   18964   18965   18966   18965
   18966   18966       0   18968   18969   18970   18969   18970   18970       0
   18972   18973   18974   18973   18974   18974       0   18976   18977   18978
   18977   18978   18978       0   18980   18981   18982   18981   18982   18982
       0   18984   18985   18986   18985   18986   18986       0   18988   18989
   18990   18989   18990   18990       0   18992   18993   18994   18993   18994
   18994       0   18996   18997   18998   18997   18998   18998       0   19000
   19001   19002   19001   19002   19002       0   19004   19005   19006   19005
   19006   19006       0   19008   19009   19010   19009   19010   19010       0
   19012   19013   19014   19013   19014   19014       0   19016   19017   19018
   19017   19018   19018       0   19020   19021   19022   19021   19022   19022
       0   19024   19025   19026   19025   19026   19026       0   19028   19029
   19030   19029   19030   19030       0   19032   19033   19034   19033   19034
   19034       0   19036   19037   19038   19037   19038   19038       0   19040
   19041   19042   19041   19042   19042       0   19044   19045   19046   19045
   19046   19046       0   19048   19049   19050   19049   19050   19050       0
   19052   19053   19054   19053   19054   19054       0   19056   19057   19058
   19057   19058   19058       0   19060   19061   19062   19061   19062   19062
       0   19064   19065   19066   19065   19066   19066       0   19068   19069
   19070   19069   19070   19070       0   19072   19073   19074   19073   19074
   19074       0   19076   19077   19078   19077   19078   19078       0   19080
   19081   19082   19081   19082   19082       0   19084   19085   19086   19085
   19086   19086       0   19088   19089   19090   19089   19090   19090       0
   19092   19093   19094   19093   19094   19094       0   19096   19097   19098
   19097   19098   19098       0   19100   19101   19102   19101   19102   19102
       0   19104   19105   19106   19105   19106   19106       0   19108   19109
   19110   19109   19110   19110       0   19112   19113   19114   19113   19114
   19114       0   19116   19117   19118   19117   19118   19118       0   19120
   19121   19122   19121   19122   19122       0   19124   19125   19126   19125
   19126   19126       0   19128   19129   19130   19129   19130   19130       0
   19132   19133   19134   19133   19134   19134       0   19136   19137   19138
   19137   19138   19138       0   19140   19141   19142   19141   19142   19142
       0   19144   19145   19146   19145   19146   19146       0   19148   19149
   19150   19149   19150   19150       0   19152   19153   19154   19153   19154
   19154       0   19156   19157   19158   19157   19158   19158       0   19160
   19161   19162   19161   19162   19162       0   19164   19165   19166   19165
   19166   19166       0   19168   19169   19170   19169   19170   19170       0
   19172   19173   19174   19173   19174   19174       0   19176   19177   19178
   19177   19178   19178       0   19180   19181   19182   19181   19182   19182
       0   19184   19185   19186   19185   19186   19186       0   19188   19189
   19190   19189   19190   19190       0   19192   19193   19194   19193   19194
   19194       0   19196   19197   19198   19197   19198   19198       0   19200
   19201   19202   19201   19202   19202       0   19204   19205   19206   19205
   19206   19206       0   19208   19209   19210   19209   19210   19210       0
   19212   19213   19214   19213   19214   19214       0   19216   19217   19218
   19217   19218   19218       0   19220   19221   19222   19221   19222   19222
       0   19224   19225   19226   19225   19226   19226       0   19228   19229
   19230   19229   19230   19230       0   19232   19233   19234   19233   19234
   19234       0   19236   19237   19238   19237   19238   19238       0   19240
   19241   19242   19241   19242   19242       0   19244   19245   19246   19245
   19246   19246       0   19248   19249   19250   19249   19250   19250       0
   19252   19253   19254   19253   19254   19254       0   19256   19257   19258
   19257   19258   19258       0   19260   19261   19262   19261   19262   19262
       0   19264   19265   19266   19265   19266   19266       0   19268   19269
   19270   19269   19270   19270       0   19272   19273   19274   19273   19274
   19274       0   19276   19277   19278   19277   19278   19278       0   19280
   19281   19282   19281   19282   19282       0   19284   19285   19286   19285
   19286   19286       0   19288   19289   19290   19289   19290   19290       0
   19292   19293   19294   19293   19294   19294       0   19296   19297   19298
   19297   19298   19298       0   19300   19301   19302   19301   19302   19302
       0   19304   19305   19306   19305   19306   19306       0   19308   19309
   19310   19309   19310   19310       0   19312   19313   19314   19313   19314
   19314       0   19316   19317   19318   19317   19318   19318       0   19320
   19321   19322   19321   19322   19322       0   19324   19325   19326   19325
   19326   19326       0   19328   19329   19330   19329   19330   19330       0
   19332   19333   19334   19333   19334   19334       0   19336   19337   19338
   19337   19338   19338       0   19340   19341   19342   19341   19342   19342
       0   19344   19345   19346   19345   19346   19346       0   19348   19349
   19350   19349   19350   19350       0   19352   19353   19354   19353   19354
   19354       0   19356   19357   19358   19357   19358   19358       0   19360
   19361   19362   19361   19362   19362       0   19364   19365   19366   19365
   19366   19366       0   19368   19369   19370   19369   19370   19370       0
   19372   19373   19374   19373   19374   19374       0   19376   19377   19378
   19377   19378   19378       0   19380   19381   19382   19381   19382   19382
       0   19384   19385   19386   19385   19386   19386       0   19388   19389
   19390   19389   19390   19390       0   19392   19393   19394   19393   19394
   19394       0   19396   19397   19398   19397   19398   19398       0   19400
   19401   19402   19401   19402   19402       0   19404   19405   19406   19405
   19406   19406       0   19408   19409   19410   19409   19410   19410       0
   19412   19413   19414   19413   19414   19414       0   19416   19417   19418
   19417   19418   19418       0   19420   19421   19422   19421   19422   19422
       0   19424   19425   19426   19425   19426   19426       0   19428   19429
   19430   19429   19430   19430       0   19432   19433   19434   19433   19434
   19434       0   19436   19437   19438   19437   19438   19438       0   19440
   19441   19442   19441   19442   19442       0   19444   19445   19446   19445
   19446   19446       0   19448   19449   19450   19449   19450   19450       0
   19452   19453   19454   19453   19454   19454       0   19456   19457   19458
   19457   19458   19458       0   19460   19461   19462   19461   19462   19462
       0   19464   19465   19466   19465   19466   19466       0   19468   19469
   19470   19469   19470   19470       0   19472   19473   19474   19473   19474
   19474       0   19476   19477   19478   19477   19478   19478       0   19480
   19481   19482   19481   19482   19482       0   19484   19485   19486   19485
   19486   19486       0   19488   19489   19490   19489   19490   19490       0
   19492   19493   19494   19493   19494   19494       0   19496   19497   19498
   19497   19498   19498       0   19500   19501   19502   19501   19502   19502
       0   19504   19505   19506   19505   19506   19506       0   19508   19509
   19510   19509   19510   19510       0   19512   19513   19514   19513   19514
   19514       0   19516   19517   19518   19517   19518   19518       0   19520
   19521   19522   19521   19522   19522       0   19524   19525   19526   19525
   19526   19526       0   19528   19529   19530   19529   19530   19530       0
   19532   19533   19534   19533   19534   19534       0   19536   19537   19538
   19537   19538   19538       0   19540   19541   19542   19541   19542   19542
       0   19544   19545   19546   19545   19546   19546       0   19548   19549
   19550   19549   19550   19550       0   19552   19553   19554   19553   19554
   19554       0   19556   19557   19558   19557   19558   19558       0   19560
   19561   19562   19561   19562   19562       0   19564   19565   19566   19565
   19566   19566       0   19568   19569   19570   19569   19570   19570       0
   19572   19573   19574   19573   19574   19574       0   19576   19577   19578
   19577   19578   19578       0   19580   19581   19582   19581   19582   19582
       0   19584   19585   19586   19585   19586   19586       0   19588   19589
   19590   19589   19590   19590       0   19592   19593   19594   19593   19594
   19594       0   19596   19597   19598   19597   19598   19598       0   19600
   19601   19602   19601   19602   19602       0   19604   19605   19606   19605
   19606   19606       0   19608   19609   19610   19609   19610   19610       0
   19612   19613   19614   19613   19614   19614       0   19616   19617   19618
   19617   19618   19618       0   19620   19621   19622   19621   19622   19622
       0   19624   19625   19626   19625   19626   19626       0   19628   19629
   19630   19629   19630   19630       0   19632   19633   19634   19633   19634
   19634       0   19636   19637   19638   19637   19638   19638       0   19640
   19641   19642   19641   19642   19642       0   19644   19645   19646   19645
   19646   19646       0   19648   19649   19650   19649   19650   19650       0
   19652   19653   19654   19653   19654   19654       0   19656   19657   19658
   19657   19658   19658       0   19660   19661   19662   19661   19662   19662
       0   19664   19665   19666   19665   19666   19666       0   19668   19669
   19670   19669   19670   19670       0   19672   19673   19674   19673   19674
   19674       0   19676   19677   19678   19677   19678   19678       0   19680
   19681   19682   19681   19682   19682       0   19684   19685   19686   19685
   19686   19686       0   19688   19689   19690   19689   19690   19690       0
   19692   19693   19694   19693   19694   19694       0   19696   19697   19698
   19697   19698   19698       0   19700   19701   19702   19701   19702   19702
       0   19704   19705   19706   19705   19706   19706       0   19708   19709
   19710   19709   19710   19710       0   19712   19713   19714   19713   19714
   19714       0   19716   19717   19718   19717   19718   19718       0   19720
   19721   19722   19721   19722   19722       0   19724   19725   19726   19725
   19726   19726       0   19728   19729   19730   19729   19730   19730       0
   19732   19733   19734   19733   19734   19734       0   19736   19737   19738
   19737   19738   19738       0   19740   19741   19742   19741   19742   19742
       0   19744   19745   19746   19745   19746   19746       0   19748   19749
   19750   19749   19750   19750       0   19752   19753   19754   19753   19754
   19754       0   19756   19757   19758   19757   19758   19758       0   19760
   19761   19762   19761   19762   19762       0   19764   19765   19766   19765
   19766   19766       0   19768   19769   19770   19769   19770   19770       0
   19772   19773   19774   19773   19774   19774       0   19776   19777   19778
   19777   19778   19778       0   19780   19781   19782   19781   19782   19782
       0   19784   19785   19786   19785   19786   19786       0   19788   19789
   19790   19789   19790   19790       0   19792   19793   19794   19793   19794
   19794       0   19796   19797   19798   19797   19798   19798       0   19800
   19801   19802   19801   19802   19802       0   19804   19805   19806   19805
   19806   19806       0   19808   19809   19810   19809   19810   19810       0
   19812   19813   19814   19813   19814   19814       0   19816   19817   19818
   19817   19818   19818       0   19820   19821   19822   19821   19822   19822
       0   19824   19825   19826   19825   19826   19826       0   19828   19829
   19830   19829   19830   19830       0   19832   19833   19834   19833   19834
   19834       0   19836   19837   19838   19837   19838   19838       0   19840
   19841   19842   19841   19842   19842       0   19844   19845   19846   19845
   19846   19846       0   19848   19849   19850   19849   19850   19850       0
   19852   19853   19854   19853   19854   19854       0   19856   19857   19858
   19857   19858   19858       0   19860   19861   19862   19861   19862   19862
       0   19864   19865   19866   19865   19866   19866       0   19868   19869
   19870   19869   19870   19870       0   19872   19873   19874   19873   19874
   19874       0   19876   19877   19878   19877   19878   19878       0   19880
   19881   19882   19881   19882   19882       0   19884   19885   19886   19885
   19886   19886       0   19888   19889   19890   19889   19890   19890       0
   19892   19893   19894   19893   19894   19894       0   19896   19897   19898
   19897   19898   19898       0   19900   19901   19902   19901   19902   19902
       0   19904   19905   19906   19905   19906   19906       0   19908   19909
   19910   19909   19910   19910       0   19912   19913   19914   19913   19914
   19914       0   19916   19917   19918   19917   19918   19918       0   19920
   19921   19922   19921   19922   19922       0   19924   19925   19926   19925
   19926   19926       0   19928   19929   19930   19929   19930   19930       0
   19932   19933   19934   19933   19934   19934       0   19936   19937   19938
   19937   19938   19938       0   19940   19941   19942   19941   19942   19942
       0   19944   19945   19946   19945   19946   19946       0   19948   19949
   19950   19949   19950   19950       0   19952   19953   19954   19953   19954
   19954       0   19956   19957   19958   19957   19958   19958       0   19960
   19961   19962   19961   19962   19962       0   19964   19965   19966   19965
   19966   19966       0   19968   19969   19970   19969   19970   19970       0
   19972   19973   19974   19973   19974   19974       0   19976   19977   19978
   19977   19978   19978       0   19980   19981   19982   19981   19982   19982
       0   19984   19985   19986   19985   19986   19986       0   19988   19989
   19990   19989   19990   19990       0   19992   19993   19994   19993   19994
   19994       0   19996   19997   19998   19997   19998   19998       0   20000
   20001   20002   20001   20002   20002       0   20004   20005   20006   20005
   20006   20006       0   20008   20009   20010   20009   20010   20010       0
   20012   20013   20014   20013   20014   20014       0   20016   20017   20018
   20017   20018   20018       0   20020   20021   20022   20021   20022   20022
       0   20024   20025   20026   20025   20026   20026       0   20028   20029
   20030   20029   20030   20030       0   20032   20033   20034   20033   20034
   20034       0   20036   20037   20038   20037   20038   20038       0   20040
   20041   20042   20041   20042   20042       0   20044   20045   20046   20045
   20046   20046       0   20048   20049   20050   20049   20050   20050       0
   20052   20053   20054   20053   20054   20054       0   20056   20057   20058
   20057   20058   20058       0   20060   20061   20062   20061   20062   20062
       0   20064   20065   20066   20065   20066   20066       0   20068   20069
   20070   20069   20070   20070       0   20072   20073   20074   20073   20074
   20074       0   20076   20077   20078   20077   20078   20078       0   20080
   20081   20082   20081   20082   20082       0   20084   20085   20086   20085
   20086   20086       0   20088   20089   20090   20089   20090   20090       0
   20092   20093   20094   20093   20094   20094       0   20096   20097   20098
   20097   20098   20098       0   20100   20101   20102   20101   20102   20102
       0   20104   20105   20106   20105   20106   20106       0   20108   20109
   20110   20109   20110   20110       0   20112   20113   20114   20113   20114
   20114       0   20116   20117   20118   20117   20118   20118       0   20120
   20121   20122   20121   20122   20122       0   20124   20125   20126   20125
   20126   20126       0   20128   20129   20130   20129   20130   20130       0
   20132   20133   20134   20133   20134   20134       0   20136   20137   20138
   20137   20138   20138       0   20140   20141   20142   20141   20142   20142
       0   20144   20145   20146   20145   20146   20146       0   20148   20149
   20150   20149   20150   20150       0   20152   20153   20154   20153   20154
   20154       0   20156   20157   20158   20157   20158   20158       0   20160
   20161   20162   20161   20162   20162       0   20164   20165   20166   20165
   20166   20166       0   20168   20169   20170   20169   20170   20170       0
   20172   20173   20174   20173   20174   20174       0   20176   20177   20178
   20177   20178   20178       0   20180   20181   20182   20181   20182   20182
       0   20184   20185   20186   20185   20186   20186       0   20188   20189
   20190   20189   20190   20190       0   20192   20193   20194   20193   20194
   20194       0   20196   20197   20198   20197   20198   20198       0   20200
   20201   20202   20201   20202   20202       0   20204   20205   20206   20205
   20206   20206       0   20208   20209   20210   20209   20210   20210       0
   20212   20213   20214   20213   20214   20214       0   20216   20217   20218
   20217   20218   20218       0   20220   20221   20222   20221   20222   20222
       0   20224   20225   20226   20225   20226   20226       0   20228   20229
   20230   20229   20230   20230       0   20232   20233   20234   20233   20234
   20234       0   20236   20237   20238   20237   20238   20238       0   20240
   20241   20242   20241   20242   20242       0   20244   20245   20246   20245
   20246   20246       0   20248   20249   20250   20249   20250   20250       0
   20252   20253   20254   20253   20254   20254       0   20256   20257   20258
   20257   20258   20258       0   20260   20261   20262   20261   20262   20262
       0   20264   20265   20266   20265   20266   20266       0   20268   20269
   20270   20269   20270   20270       0   20272   20273   20274   20273   20274
   20274       0   20276   20277   20278   20277   20278   20278       0   20280
   20281   20282   20281   20282   20282       0   20284   20285   20286   20285
   20286   20286       0   20288   20289   20290   20289   20290   20290       0
   20292   20293   20294   20293   20294   20294       0   20296   20297   20298
   20297   20298   20298       0   20300   20301   20302   20301   20302   20302
       0   20304   20305   20306   20305   20306   20306       0   20308   20309
   20310   20309   20310   20310       0   20312   20313   20314   20313   20314
   20314       0   20316   20317   20318   20317   20318   20318       0   20320
   20321   20322   20321   20322   20322       0   20324   20325   20326   20325
   20326   20326       0   20328   20329   20330   20329   20330   20330       0
   20332   20333   20334   20333   20334   20334       0   20336   20337   20338
   20337   20338   20338       0   20340   20341   20342   20341   20342   20342
       0   20344   20345   20346   20345   20346   20346       0   20348   20349
   20350   20349   20350   20350       0   20352   20353   20354   20353   20354
   20354       0   20356   20357   20358   20357   20358   20358       0   20360
   20361   20362   20361   20362   20362       0   20364   20365   20366   20365
   20366   20366       0   20368   20369   20370   20369   20370   20370       0
   20372   20373   20374   20373   20374   20374       0   20376   20377   20378
   20377   20378   20378       0   20380   20381   20382   20381   20382   20382
       0   20384   20385   20386   20385   20386   20386       0   20388   20389
   20390   20389   20390   20390       0   20392   20393   20394   20393   20394
   20394       0   20396   20397   20398   20397   20398   20398       0   20400
   20401   20402   20401   20402   20402       0   20404   20405   20406   20405
   20406   20406       0   20408   20409   20410   20409   20410   20410       0
   20412   20413   20414   20413   20414   20414       0   20416   20417   20418
   20417   20418   20418       0   20420   20421   20422   20421   20422   20422
       0   20424   20425   20426   20425   20426   20426       0   20428   20429
   20430   20429   20430   20430       0   20432   20433   20434   20433   20434
   20434       0   20436   20437   20438   20437   20438   20438       0   20440
   20441   20442   20441   20442   20442       0   20444   20445   20446   20445
   20446   20446       0   20448   20449   20450   20449   20450   20450       0
   20452   20453   20454   20453   20454   20454       0   20456   20457   20458
   20457   20458   20458       0   20460   20461   20462   20461   20462   20462
       0   20464   20465   20466   20465   20466   20466       0   20468   20469
   20470   20469   20470   20470       0   20472   20473   20474   20473   20474
   20474       0   20476   20477   20478   20477   20478   20478       0   20480
   20481   20482   20481   20482   20482       0   20484   20485   20486   20485
   20486   20486       0   20488   20489   20490   20489   20490   20490       0
   20492   20493   20494   20493   20494   20494       0   20496   20497   20498
   20497   20498   20498       0   20500   20501   20502   20501   20502   20502
       0   20504   20505   20506   20505   20506   20506       0   20508   20509
   20510   20509   20510   20510       0   20512   20513   20514   20513   20514
   20514       0   20516   20517   20518   20517   20518   20518       0   20520
   20521   20522   20521   20522   20522       0   20524   20525   20526   20525
   20526   20526       0   20528   20529   20530   20529   20530   20530       0
   20532   20533   20534   20533   20534   20534       0   20536   20537   20538
   20537   20538   20538       0   20540   20541   20542   20541   20542   20542
       0   20544   20545   20546   20545   20546   20546       0   20548   20549
   20550   20549   20550   20550       0   20552   20553   20554   20553   20554
   20554       0   20556   20557   20558   20557   20558   20558       0   20560
   20561   20562   20561   20562   20562       0   20564   20565   20566   20565
   20566   20566       0   20568   20569   20570   20569   20570   20570       0
   20572   20573   20574   20573   20574   20574       0   20576   20577   20578
   20577   20578   20578       0   20580   20581   20582   20581   20582   20582
       0   20584   20585   20586   20585   20586   20586       0   20588   20589
   20590   20589   20590   20590       0   20592   20593   20594   20593   20594
   20594       0   20596   20597   20598   20597   20598   20598       0   20600
   20601   20602   20601   20602   20602       0   20604   20605   20606   20605
   20606   20606       0   20608   20609   20610   20609   20610   20610       0
   20612   20613   20614   20613   20614   20614       0   20616   20617   20618
   20617   20618   20618       0   20620   20621   20622   20621   20622   20622
       0   20624   20625   20626   20625   20626   20626       0   20628   20629
   20630   20629   20630   20630       0   20632   20633   20634   20633   20634
   20634       0   20636   20637   20638   20637   20638   20638       0   20640
   20641   20642   20641   20642   20642       0   20644   20645   20646   20645
   20646   20646       0   20648   20649   20650   20649   20650   20650       0
   20652   20653   20654   20653   20654   20654       0   20656   20657   20658
   20657   20658   20658       0   20660   20661   20662   20661   20662   20662
       0   20664   20665   20666   20665   20666   20666       0   20668   20669
   20670   20669   20670   20670       0   20672   20673   20674   20673   20674
   20674       0   20676   20677   20678   20677   20678   20678       0   20680
   20681   20682   20681   20682   20682       0   20684   20685   20686   20685
   20686   20686       0   20688   20689   20690   20689   20690   20690       0
   20692   20693   20694   20693   20694   20694       0   20696   20697   20698
   20697   20698   20698       0   20700   20701   20702   20701   20702   20702
       0   20704   20705   20706   20705   20706   20706       0   20708   20709
   20710   20709   20710   20710       0   20712   20713   20714   20713   20714
   20714       0   20716   20717   20718   20717   20718   20718       0   20720
   20721   20722   20721   20722   20722       0   20724   20725   20726   20725
   20726   20726       0   20728   20729   20730   20729   20730   20730       0
   20732   20733   20734   20733   20734   20734       0   20736   20737   20738
   20737   20738   20738       0   20740   20741   20742   20741   20742   20742
       0   20744   20745   20746   20745   20746   20746       0   20748   20749
   20750   20749   20750   20750       0   20752   20753   20754   20753   20754
   20754       0   20756   20757   20758   20757   20758   20758       0   20760
   20761   20762   20761   20762   20762       0   20764   20765   20766   20765
   20766   20766       0   20768   20769   20770   20769   20770   20770       0
   20772   20773   20774   20773   20774   20774       0   20776   20777   20778
   20777   20778   20778       0   20780   20781   20782   20781   20782   20782
       0   20784   20785   20786   20785   20786   20786       0   20788   20789
   20790   20789   20790   20790       0   20792   20793   20794   20793   20794
   20794       0   20796   20797   20798   20797   20798   20798       0   20800
   20801   20802   20801   20802   20802       0   20804   20805   20806   20805
   20806   20806       0   20808   20809   20810   20809   20810   20810       0
   20812   20813   20814   20813   20814   20814       0   20816   20817   20818
   20817   20818   20818       0   20820   20821   20822   20821   20822   20822
       0   20824   20825   20826   20825   20826   20826       0   20828   20829
   20830   20829   20830   20830       0   20832   20833   20834   20833   20834
   20834       0   20836   20837   20838   20837   20838   20838       0   20840
   20841   20842   20841   20842   20842       0   20844   20845   20846   20845
   20846   20846       0   20848   20849   20850   20849   20850   20850       0
   20852   20853   20854   20853   20854   20854       0   20856   20857   20858
   20857   20858   20858       0   20860   20861   20862   20861   20862   20862
       0   20864   20865   20866   20865   20866   20866       0   20868   20869
   20870   20869   20870   20870       0   20872   20873   20874   20873   20874
   20874       0   20876   20877   20878   20877   20878   20878       0   20880
   20881   20882   20881   20882   20882       0   20884   20885   20886   20885
   20886   20886       0   20888   20889   20890   20889   20890   20890       0
   20892   20893   20894   20893   20894   20894       0   20896   20897   20898
   20897   20898   20898       0   20900   20901   20902   20901   20902   20902
       0   20904   20905   20906   20905   20906   20906       0   20908   20909
   20910   20909   20910   20910       0   20912   20913   20914   20913   20914
   20914       0   20916   20917   20918   20917   20918   20918       0   20920
   20921   20922   20921   20922   20922       0   20924   20925   20926   20925
   20926   20926       0   20928   20929   20930   20929   20930   20930       0
   20932   20933   20934   20933   20934   20934       0   20936   20937   20938
   20937   20938   20938       0   20940   20941   20942   20941   20942   20942
       0   20944   20945   20946   20945   20946   20946       0   20948   20949
   20950   20949   20950   20950       0   20952   20953   20954   20953   20954
   20954       0   20956   20957   20958   20957   20958   20958       0   20960
   20961   20962   20961   20962   20962       0   20964   20965   20966   20965
   20966   20966       0   20968   20969   20970   20969   20970   20970       0
   20972   20973   20974   20973   20974   20974       0   20976   20977   20978
   20977   20978   20978       0   20980   20981   20982   20981   20982   20982
       0   20984   20985   20986   20985   20986   20986       0   20988   20989
   20990   20989   20990   20990       0   20992   20993   20994   20993   20994
   20994       0   20996   20997   20998   20997   20998   20998       0   21000
   21001   21002   21001   21002   21002       0   21004   21005   21006   21005
   21006   21006       0   21008   21009   21010   21009   21010   21010       0
   21012   21013   21014   21013   21014   21014       0   21016   21017   21018
   21017   21018   21018       0   21020   21021   21022   21021   21022   21022
       0   21024   21025   21026   21025   21026   21026       0   21028   21029
   21030   21029   21030   21030       0   21032   21033   21034   21033   21034
   21034       0   21036   21037   21038   21037   21038   21038       0   21040
   21041   21042   21041   21042   21042       0   21044   21045   21046   21045
   21046   21046       0   21048   21049   21050   21049   21050   21050       0
   21052   21053   21054   21053   21054   21054       0   21056   21057   21058
   21057   21058   21058       0   21060   21061   21062   21061   21062   21062
       0   21064   21065   21066   21065   21066   21066       0   21068   21069
   21070   21069   21070   21070       0   21072   21073   21074   21073   21074
   21074       0   21076   21077   21078   21077   21078   21078       0   21080
   21081   21082   21081   21082   21082       0   21084   21085   21086   21085
   21086   21086       0   21088   21089   21090   21089   21090   21090       0
   21092   21093   21094   21093   21094   21094       0   21096   21097   21098
   21097   21098   21098       0   21100   21101   21102   21101   21102   21102
       0   21104   21105   21106   21105   21106   21106       0   21108   21109
   21110   21109   21110   21110       0   21112   21113   21114   21113   21114
   21114       0   21116   21117   21118   21117   21118   21118       0   21120
   21121   21122   21121   21122   21122       0   21124   21125   21126   21125
   21126   21126       0   21128   21129   21130   21129   21130   21130       0
   21132   21133   21134   21133   21134   21134       0   21136   21137   21138
   21137   21138   21138       0   21140   21141   21142   21141   21142   21142
       0   21144   21145   21146   21145   21146   21146       0   21148   21149
   21150   21149   21150   21150       0   21152   21153   21154   21153   21154
   21154       0   21156   21157   21158   21157   21158   21158       0   21160
   21161   21162   21161   21162   21162       0   21164   21165   21166   21165
   21166   21166       0   21168   21169   21170   21169   21170   21170       0
   21172   21173   21174   21173   21174   21174       0   21176   21177   21178
   21177   21178   21178       0   21180   21181   21182   21181   21182   21182
       0   21184   21185   21186   21185   21186   21186       0   21188   21189
   21190   21189   21190   21190       0   21192   21193   21194   21193   21194
   21194       0   21196   21197   21198   21197   21198   21198       0   21200
   21201   21202   21201   21202   21202       0   21204   21205   21206   21205
   21206   21206       0   21208   21209   21210   21209   21210   21210       0
   21212   21213   21214   21213   21214   21214       0   21216   21217   21218
   21217   21218   21218       0   21220   21221   21222   21221   21222   21222
       0   21224   21225   21226   21225   21226   21226       0   21228   21229
   21230   21229   21230   21230       0   21232   21233   21234   21233   21234
   21234       0   21236   21237   21238   21237   21238   21238       0   21240
   21241   21242   21241   21242   21242       0   21244   21245   21246   21245
   21246   21246       0   21248   21249   21250   21249   21250   21250       0
   21252   21253   21254   21253   21254   21254       0   21256   21257   21258
   21257   21258   21258       0   21260   21261   21262   21261   21262   21262
       0   21264   21265   21266   21265   21266   21266       0   21268   21269
   21270   21269   21270   21270       0   21272   21273   21274   21273   21274
   21274       0   21276   21277   21278   21277   21278   21278       0   21280
   21281   21282   21281   21282   21282       0   21284   21285   21286   21285
   21286   21286       0   21288   21289   21290   21289   21290   21290       0
   21292   21293   21294   21293   21294   21294       0   21296   21297   21298
   21297   21298   21298       0   21300   21301   21302   21301   21302   21302
       0   21304   21305   21306   21305   21306   21306       0   21308   21309
   21310   21309   21310   21310       0   21312   21313   21314   21313   21314
   21314       0   21316   21317   21318   21317   21318   21318       0   21320
   21321   21322   21321   21322   21322       0   21324   21325   21326   21325
   21326   21326       0   21328   21329   21330   21329   21330   21330       0
   21332   21333   21334   21333   21334   21334       0   21336   21337   21338
   21337   21338   21338       0   21340   21341   21342   21341   21342   21342
       0   21344   21345   21346   21345   21346   21346       0   21348   21349
   21350   21349   21350   21350       0   21352   21353   21354   21353   21354
   21354       0   21356   21357   21358   21357   21358   21358       0   21360
   21361   21362   21361   21362   21362       0   21364   21365   21366   21365
   21366   21366       0   21368   21369   21370   21369   21370   21370       0
   21372   21373   21374   21373   21374   21374       0   21376   21377   21378
   21377   21378   21378       0   21380   21381   21382   21381   21382   21382
       0   21384   21385   21386   21385   21386   21386       0   21388   21389
   21390   21389   21390   21390       0   21392   21393   21394   21393   21394
   21394       0   21396   21397   21398   21397   21398   21398       0   21400
   21401   21402   21401   21402   21402       0   21404   21405   21406   21405
   21406   21406       0   21408   21409   21410   21409   21410   21410       0
   21412   21413   21414   21413   21414   21414       0   21416   21417   21418
   21417   21418   21418       0   21420   21421   21422   21421   21422   21422
       0   21424   21425   21426   21425   21426   21426       0   21428   21429
   21430   21429   21430   21430       0   21432   21433   21434   21433   21434
   21434       0   21436   21437   21438   21437   21438   21438       0   21440
   21441   21442   21441   21442   21442       0   21444   21445   21446   21445
   21446   21446       0   21448   21449   21450   21449   21450   21450       0
   21452   21453   21454   21453   21454   21454       0   21456   21457   21458
   21457   21458   21458       0   21460   21461   21462   21461   21462   21462
       0   21464   21465   21466   21465   21466   21466       0   21468   21469
   21470   21469   21470   21470       0   21472   21473   21474   21473   21474
   21474       0   21476   21477   21478   21477   21478   21478       0   21480
   21481   21482   21481   21482   21482       0   21484   21485   21486   21485
   21486   21486       0   21488   21489   21490   21489   21490   21490       0
   21492   21493   21494   21493   21494   21494       0   21496   21497   21498
   21497   21498   21498       0   21500   21501   21502   21501   21502   21502
       0   21504   21505   21506   21505   21506   21506       0   21508   21509
   21510   21509   21510   21510       0   21512   21513   21514   21513   21514
   21514       0   21516   21517   21518   21517   21518   21518       0   21520
   21521   21522   21521   21522   21522       0   21524   21525   21526   21525
   21526   21526       0   21528   21529   21530   21529   21530   21530       0
   21532   21533   21534   21533   21534   21534       0   21536   21537   21538
   21537   21538   21538       0   21540   21541   21542   21541   21542   21542
       0   21544   21545   21546   21545   21546   21546       0   21548   21549
   21550   21549   21550   21550       0   21552   21553   21554   21553   21554
   21554       0   21556   21557   21558   21557   21558   21558       0   21560
   21561   21562   21561   21562   21562       0   21564   21565   21566   21565
   21566   21566       0   21568   21569   21570   21569   21570   21570       0
   21572   21573   21574   21573   21574   21574       0   21576   21577   21578
   21577   21578   21578       0   21580   21581   21582   21581   21582   21582
       0   21584   21585   21586   21585   21586   21586       0   21588   21589
   21590   21589   21590   21590       0   21592   21593   21594   21593   21594
   21594       0   21596   21597   21598   21597   21598   21598       0   21600
   21601   21602   21601   21602   21602       0   21604   21605   21606   21605
   21606   21606       0   21608   21609   21610   21609   21610   21610       0
   21612   21613   21614   21613   21614   21614       0   21616   21617   21618
   21617   21618   21618       0   21620   21621   21622   21621   21622   21622
       0   21624   21625   21626   21625   21626   21626       0   21628   21629
   21630   21629   21630   21630       0   21632   21633   21634   21633   21634
   21634       0   21636   21637   21638   21637   21638   21638       0   21640
   21641   21642   21641   21642   21642       0   21644   21645   21646   21645
   21646   21646       0   21648   21649   21650   21649   21650   21650       0
   21652   21653   21654   21653   21654   21654       0   21656   21657   21658
   21657   21658   21658       0   21660   21661   21662   21661   21662   21662
       0   21664   21665   21666   21665   21666   21666       0   21668   21669
   21670   21669   21670   21670       0   21672   21673   21674   21673   21674
   21674       0   21676   21677   21678   21677   21678   21678       0   21680
   21681   21682   21681   21682   21682       0   21684   21685   21686   21685
   21686   21686       0   21688   21689   21690   21689   21690   21690       0
   21692   21693   21694   21693   21694   21694       0   21696   21697   21698
   21697   21698   21698       0   21700   21701   21702   21701   21702   21702
       0   21704   21705   21706   21705   21706   21706       0   21708   21709
   21710   21709   21710   21710       0   21712   21713   21714   21713   21714
   21714       0   21716   21717   21718   21717   21718   21718       0   21720
   21721   21722   21721   21722   21722       0   21724   21725   21726   21725
   21726   21726       0   21728   21729   21730   21729   21730   21730       0
   21732   21733   21734   21733   21734   21734       0   21736   21737   21738
   21737   21738   21738       0   21740   21741   21742   21741   21742   21742
       0   21744   21745   21746   21745   21746   21746       0   21748   21749
   21750   21749   21750   21750       0   21752   21753   21754   21753   21754
   21754       0   21756   21757   21758   21757   21758   21758       0   21760
   21761   21762   21761   21762   21762       0   21764   21765   21766   21765
   21766   21766       0   21768   21769   21770   21769   21770   21770       0
   21772   21773   21774   21773   21774   21774       0   21776   21777   21778
   21777   21778   21778       0   21780   21781   21782   21781   21782   21782
       0   21784   21785   21786   21785   21786   21786       0   21788   21789
   21790   21789   21790   21790       0   21792   21793   21794   21793   21794
   21794       0   21796   21797   21798   21797   21798   21798       0   21800
   21801   21802   21801   21802   21802       0   21804   21805   21806   21805
   21806   21806       0   21808   21809   21810   21809   21810   21810       0
   21812   21813   21814   21813   21814   21814       0   21816   21817   21818
   21817   21818   21818       0   21820   21821   21822   21821   21822   21822
       0   21824   21825   21826   21825   21826   21826       0   21828   21829
   21830   21829   21830   21830       0   21832   21833   21834   21833   21834
   21834       0   21836   21837   21838   21837   21838   21838       0   21840
   21841   21842   21841   21842   21842       0   21844   21845   21846   21845
   21846   21846       0   21848   21849   21850   21849   21850   21850       0
   21852   21853   21854   21853   21854   21854       0   21856   21857   21858
   21857   21858   21858       0   21860   21861   21862   21861   21862   21862
       0   21864   21865   21866   21865   21866   21866       0   21868   21869
   21870   21869   21870   21870       0   21872   21873   21874   21873   21874
   21874       0   21876   21877   21878   21877   21878   21878       0   21880
   21881   21882   21881   21882   21882       0   21884   21885   21886   21885
   21886   21886       0   21888   21889   21890   21889   21890   21890       0
   21892   21893   21894   21893   21894   21894       0   21896   21897   21898
   21897   21898   21898       0   21900   21901   21902   21901   21902   21902
       0   21904   21905   21906   21905   21906   21906       0   21908   21909
   21910   21909   21910   21910       0   21912   21913   21914   21913   21914
   21914       0   21916   21917   21918   21917   21918   21918       0   21920
   21921   21922   21921   21922   21922       0   21924   21925   21926   21925
   21926   21926       0   21928   21929   21930   21929   21930   21930       0
   21932   21933   21934   21933   21934   21934       0   21936   21937   21938
   21937   21938   21938       0   21940   21941   21942   21941   21942   21942
       0   21944   21945   21946   21945   21946   21946       0   21948   21949
   21950   21949   21950   21950       0   21952   21953   21954   21953   21954
   21954       0   21956   21957   21958   21957   21958   21958       0   21960
   21961   21962   21961   21962   21962       0   21964   21965   21966   21965
   21966   21966       0   21968   21969   21970   21969   21970   21970       0
   21972   21973   21974   21973   21974   21974       0   21976   21977   21978
   21977   21978   21978       0   21980   21981   21982   21981   21982   21982
       0   21984   21985   21986   21985   21986   21986       0   21988   21989
   21990   21989   21990   21990       0   21992   21993   21994   21993   21994
   21994       0   21996   21997   21998   21997   21998   21998       0   22000
   22001   22002   22001   22002   22002       0   22004   22005   22006   22005
   22006   22006       0   22008   22009   22010   22009   22010   22010       0
   22012   22013   22014   22013   22014   22014       0   22016   22017   22018
   22017   22018   22018       0   22020   22021   22022   22021   22022   22022
       0   22024   22025   22026   22025   22026   22026       0   22028   22029
   22030   22029   22030   22030       0   22032   22033   22034   22033   22034
   22034       0   22036   22037   22038   22037   22038   22038       0   22040
   22041   22042   22041   22042   22042       0   22044   22045   22046   22045
   22046   22046       0   22048   22049   22050   22049   22050   22050       0
   22052   22053   22054   22053   22054   22054       0   22056   22057   22058
   22057   22058   22058       0   22060   22061   22062   22061   22062   22062
       0   22064   22065   22066   22065   22066   22066       0   22068   22069
   22070   22069   22070   22070       0   22072   22073   22074   22073   22074
   22074       0   22076   22077   22078   22077   22078   22078       0   22080
   22081   22082   22081   22082   22082       0   22084   22085   22086   22085
   22086   22086       0   22088   22089   22090   22089   22090   22090       0
   22092   22093   22094   22093   22094   22094       0   22096   22097   22098
   22097   22098   22098       0   22100   22101   22102   22101   22102   22102
       0   22104   22105   22106   22105   22106   22106       0   22108   22109
   22110   22109   22110   22110       0   22112   22113   22114   22113   22114
   22114       0   22116   22117   22118   22117   22118   22118       0   22120
   22121   22122   22121   22122   22122       0   22124   22125   22126   22125
   22126   22126       0   22128   22129   22130   22129   22130   22130       0
   22132   22133   22134   22133   22134   22134       0   22136   22137   22138
   22137   22138   22138       0   22140   22141   22142   22141   22142   22142
       0   22144   22145   22146   22145   22146   22146       0   22148   22149
   22150   22149   22150   22150       0   22152   22153   22154   22153   22154
   22154       0   22156   22157   22158   22157   22158   22158       0   22160
   22161   22162   22161   22162   22162       0   22164   22165   22166   22165
   22166   22166       0   22168   22169   22170   22169   22170   22170       0
   22172   22173   22174   22173   22174   22174       0   22176   22177   22178
   22177   22178   22178       0   22180   22181   22182   22181   22182   22182
       0   22184   22185   22186   22185   22186   22186       0   22188   22189
   22190   22189   22190   22190       0   22192   22193   22194   22193   22194
   22194       0   22196   22197   22198   22197   22198   22198       0   22200
   22201   22202   22201   22202   22202       0   22204   22205   22206   22205
   22206   22206       0   22208   22209   22210   22209   22210   22210       0
   22212   22213   22214   22213   22214   22214       0   22216   22217   22218
   22217   22218   22218       0   22220   22221   22222   22221   22222   22222
       0   22224   22225   22226   22225   22226   22226       0   22228   22229
   22230   22229   22230   22230       0   22232   22233   22234   22233   22234
   22234       0   22236   22237   22238   22237   22238   22238       0   22240
   22241   22242   22241   22242   22242       0   22244   22245   22246   22245
   22246   22246       0   22248   22249   22250   22249   22250   22250       0
   22252   22253   22254   22253   22254   22254       0   22256   22257   22258
   22257   22258   22258       0   22260   22261   22262   22261   22262   22262
       0   22264   22265   22266   22265   22266   22266       0   22268   22269
   22270   22269   22270   22270       0   22272   22273   22274   22273   22274
   22274       0   22276   22277   22278   22277   22278   22278       0   22280
   22281   22282   22281   22282   22282       0   22284   22285   22286   22285
   22286   22286       0   22288   22289   22290   22289   22290   22290       0
   22292   22293   22294   22293   22294   22294       0   22296   22297   22298
   22297   22298   22298       0   22300   22301   22302   22301   22302   22302
       0   22304   22305   22306   22305   22306   22306       0   22308   22309
   22310   22309   22310   22310       0   22312   22313   22314   22313   22314
   22314       0   22316   22317   22318   22317   22318   22318       0   22320
   22321   22322   22321   22322   22322       0   22324   22325   22326   22325
   22326   22326       0   22328   22329   22330   22329   22330   22330       0
   22332   22333   22334   22333   22334   22334       0   22336   22337   22338
   22337   22338   22338       0   22340   22341   22342   22341   22342   22342
       0   22344   22345   22346   22345   22346   22346       0   22348   22349
   22350   22349   22350   22350       0   22352   22353   22354   22353   22354
   22354       0   22356   22357   22358   22357   22358   22358       0   22360
   22361   22362   22361   22362   22362       0   22364   22365   22366   22365
   22366   22366       0   22368   22369   22370   22369   22370   22370       0
   22372   22373   22374   22373   22374   22374       0   22376   22377   22378
   22377   22378   22378       0   22380   22381   22382   22381   22382   22382
       0   22384   22385   22386   22385   22386   22386       0   22388   22389
   22390   22389   22390   22390       0   22392   22393   22394   22393   22394
   22394       0   22396   22397   22398   22397   22398   22398       0   22400
   22401   22402   22401   22402   22402       0   22404   22405   22406   22405
   22406   22406       0   22408   22409   22410   22409   22410   22410       0
   22412   22413   22414   22413   22414   22414       0   22416   22417   22418
   22417   22418   22418       0   22420   22421   22422   22421   22422   22422
       0   22424   22425   22426   22425   22426   22426       0   22428   22429
   22430   22429   22430   22430       0   22432   22433   22434   22433   22434
   22434       0   22436   22437   22438   22437   22438   22438       0   22440
   22441   22442   22441   22442   22442       0   22444   22445   22446   22445
   22446   22446       0   22448   22449   22450   22449   22450   22450       0
   22452   22453   22454   22453   22454   22454       0   22456   22457   22458
   22457   22458   22458       0   22460   22461   22462   22461   22462   22462
       0   22464   22465   22466   22465   22466   22466       0   22468   22469
   22470   22469   22470   22470       0   22472   22473   22474   22473   22474
   22474       0   22476   22477   22478   22477   22478   22478       0   22480
   22481   22482   22481   22482   22482       0   22484   22485   22486   22485
   22486   22486       0   22488   22489   22490   22489   22490   22490       0
   22492   22493   22494   22493   22494   22494       0   22496   22497   22498
   22497   22498   22498       0   22500   22501   22502   22501   22502   22502
       0   22504   22505   22506   22505   22506   22506       0   22508   22509
   22510   22509   22510   22510       0   22512   22513   22514   22513   22514
   22514       0   22516   22517   22518   22517   22518   22518       0   22520
   22521   22522   22521   22522   22522       0   22524   22525   22526   22525
   22526   22526       0   22528   22529   22530   22529   22530   22530       0
   22532   22533   22534   22533   22534   22534       0   22536   22537   22538
   22537   22538   22538       0   22540   22541   22542   22541   22542   22542
       0   22544   22545   22546   22545   22546   22546       0   22548   22549
   22550   22549   22550   22550       0   22552   22553   22554   22553   22554
   22554       0   22556   22557   22558   22557   22558   22558       0   22560
   22561   22562   22561   22562   22562       0   22564   22565   22566   22565
   22566   22566       0   22568   22569   22570   22569   22570   22570       0
   22572   22573   22574   22573   22574   22574       0   22576   22577   22578
   22577   22578   22578       0   22580   22581   22582   22581   22582   22582
       0   22584   22585   22586   22585   22586   22586       0   22588   22589
   22590   22589   22590   22590       0   22592   22593   22594   22593   22594
   22594       0   22596   22597   22598   22597   22598   22598       0   22600
   22601   22602   22601   22602   22602       0   22604   22605   22606   22605
   22606   22606       0   22608   22609   22610   22609   22610   22610       0
   22612   22613   22614   22613   22614   22614       0   22616   22617   22618
   22617   22618   22618       0   22620   22621   22622   22621   22622   22622
       0   22624   22625   22626   22625   22626   22626       0   22628   22629
   22630   22629   22630   22630       0   22632   22633   22634   22633   22634
   22634       0   22636   22637   22638   22637   22638   22638       0   22640
   22641   22642   22641   22642   22642       0   22644   22645   22646   22645
   22646   22646       0   22648   22649   22650   22649   22650   22650       0
   22652   22653   22654   22653   22654   22654       0   22656   22657   22658
   22657   22658   22658       0   22660   22661   22662   22661   22662   22662
       0   22664   22665   22666   22665   22666   22666       0   22668   22669
   22670   22669   22670   22670       0   22672   22673   22674   22673   22674
   22674       0   22676   22677   22678   22677   22678   22678       0   22680
   22681   22682   22681   22682   22682       0   22684   22685   22686   22685
   22686   22686       0   22688   22689   22690   22689   22690   22690       0
   22692   22693   22694   22693   22694   22694       0   22696   22697   22698
   22697   22698   22698       0   22700   22701   22702   22701   22702   22702
       0   22704   22705   22706   22705   22706   22706       0   22708   22709
   22710   22709   22710   22710       0   22712   22713   22714   22713   22714
   22714       0   22716   22717   22718   22717   22718   22718       0   22720
   22721   22722   22721   22722   22722       0   22724   22725   22726   22725
   22726   22726       0   22728   22729   22730   22729   22730   22730       0
   22732   22733   22734   22733   22734   22734       0   22736   22737   22738
   22737   22738   22738       0   22740   22741   22742   22741   22742   22742
       0   22744   22745   22746   22745   22746   22746       0   22748   22749
   22750   22749   22750   22750       0   22752   22753   22754   22753   22754
   22754       0   22756   22757   22758   22757   22758   22758       0   22760
   22761   22762   22761   22762   22762       0   22764   22765   22766   22765
   22766   22766       0   22768   22769   22770   22769   22770   22770       0
   22772   22773   22774   22773   22774   22774       0   22776   22777   22778
   22777   22778   22778       0   22780   22781   22782   22781   22782   22782
       0   22784   22785   22786   22785   22786   22786       0   22788   22789
   22790   22789   22790   22790       0   22792   22793   22794   22793   22794
   22794       0   22796   22797   22798   22797   22798   22798       0   22800
   22801   22802   22801   22802   22802       0   22804   22805   22806   22805
   22806   22806       0   22808   22809   22810   22809   22810   22810       0
   22812   22813   22814   22813   22814   22814       0   22816   22817   22818
   22817   22818   22818       0   22820   22821   22822   22821   22822   22822
       0   22824   22825   22826   22825   22826   22826       0   22828   22829
   22830   22829   22830   22830       0   22832   22833   22834   22833   22834
   22834       0   22836   22837   22838   22837   22838   22838       0   22840
   22841   22842   22841   22842   22842       0   22844   22845   22846   22845
   22846   22846       0   22848   22849   22850   22849   22850   22850       0
   22852   22853   22854   22853   22854   22854       0   22856   22857   22858
   22857   22858   22858       0   22860   22861   22862   22861   22862   22862
       0   22864   22865   22866   22865   22866   22866       0   22868   22869
   22870   22869   22870   22870       0   22872   22873   22874   22873   22874
   22874       0   22876   22877   22878   22877   22878   22878       0   22880
   22881   22882   22881   22882   22882       0   22884   22885   22886   22885
   22886   22886       0   22888   22889   22890   22889   22890   22890       0
   22892   22893   22894   22893   22894   22894       0   22896   22897   22898
   22897   22898   22898       0   22900   22901   22902   22901   22902   22902
       0   22904   22905   22906   22905   22906   22906       0   22908   22909
   22910   22909   22910   22910       0   22912   22913   22914   22913   22914
   22914       0   22916   22917   22918   22917   22918   22918       0   22920
   22921   22922   22921   22922   22922       0   22924   22925   22926   22925
   22926   22926       0   22928   22929   22930   22929   22930   22930       0
   22932   22933   22934   22933   22934   22934       0   22936   22937   22938
   22937   22938   22938       0   22940   22941   22942   22941   22942   22942
       0   22944   22945   22946   22945   22946   22946       0   22948   22949
   22950   22949   22950   22950       0   22952   22953   22954   22953   22954
   22954       0   22956   22957   22958   22957   22958   22958       0   22960
   22961   22962   22961   22962   22962       0   22964   22965   22966   22965
   22966   22966       0   22968   22969   22970   22969   22970   22970       0
   22972   22973   22974   22973   22974   22974       0   22976   22977   22978
   22977   22978   22978       0   22980   22981   22982   22981   22982   22982
       0   22984   22985   22986   22985   22986   22986       0   22988   22989
   22990   22989   22990   22990       0   22992   22993   22994   22993   22994
   22994       0   22996   22997   22998   22997   22998   22998       0   23000
   23001   23002   23001   23002   23002       0   23004   23005   23006   23005
   23006   23006       0   23008   23009   23010   23009   23010   23010       0
   23012   23013   23014   23013   23014   23014       0   23016   23017   23018
   23017   23018   23018       0   23020   23021   23022   23021   23022   23022
       0   23024   23025   23026   23025   23026   23026       0   23028   23029
   23030   23029   23030   23030       0   23032   23033   23034   23033   23034
   23034       0   23036   23037   23038   23037   23038   23038       0   23040
   23041   23042   23041   23042   23042       0   23044   23045   23046   23045
   23046   23046       0   23048   23049   23050   23049   23050   23050       0
   23052   23053   23054   23053   23054   23054       0   23056   23057   23058
   23057   23058   23058       0   23060   23061   23062   23061   23062   23062
       0   23064   23065   23066   23065   23066   23066       0   23068   23069
   23070   23069   23070   23070       0   23072   23073   23074   23073   23074
   23074       0   23076   23077   23078   23077   23078   23078       0   23080
   23081   23082   23081   23082   23082       0   23084   23085   23086   23085
   23086   23086       0   23088   23089   23090   23089   23090   23090       0
   23092   23093   23094   23093   23094   23094       0   23096   23097   23098
   23097   23098   23098       0   23100   23101   23102   23101   23102   23102
       0   23104   23105   23106   23105   23106   23106       0   23108   23109
   23110   23109   23110   23110       0   23112   23113   23114   23113   23114
   23114       0   23116   23117   23118   23117   23118   23118       0   23120
   23121   23122   23121   23122   23122       0   23124   23125   23126   23125
   23126   23126       0   23128   23129   23130   23129   23130   23130       0
   23132   23133   23134   23133   23134   23134       0   23136   23137   23138
   23137   23138   23138       0   23140   23141   23142   23141   23142   23142
       0   23144   23145   23146   23145   23146   23146       0   23148   23149
   23150   23149   23150   23150       0   23152   23153   23154   23153   23154
   23154       0   23156   23157   23158   23157   23158   23158       0   23160
   23161   23162   23161   23162   23162       0   23164   23165   23166   23165
   23166   23166       0   23168   23169   23170   23169   23170   23170       0
   23172   23173   23174   23173   23174   23174       0   23176   23177   23178
   23177   23178   23178       0   23180   23181   23182   23181   23182   23182
       0   23184   23185   23186   23185   23186   23186       0   23188   23189
   23190   23189   23190   23190       0   23192   23193   23194   23193   23194
   23194       0   23196   23197   23198   23197   23198   23198       0   23200
   23201   23202   23201   23202   23202       0   23204   23205   23206   23205
   23206   23206       0   23208   23209   23210   23209   23210   23210       0
   23212   23213   23214   23213   23214   23214       0   23216   23217   23218
   23217   23218   23218       0   23220   23221   23222   23221   23222   23222
       0   23224   23225   23226   23225   23226   23226       0   23228   23229
   23230   23229   23230   23230       0   23232   23233   23234   23233   23234
   23234       0   23236   23237   23238   23237   23238   23238       0   23240
   23241   23242   23241   23242   23242       0   23244   23245   23246   23245
   23246   23246       0   23248   23249   23250   23249   23250   23250       0
   23252   23253   23254   23253   23254   23254       0   23256   23257   23258
   23257   23258   23258       0   23260   23261   23262   23261   23262   23262
       0   23264   23265   23266   23265   23266   23266       0   23268   23269
   23270   23269   23270   23270       0   23272   23273   23274   23273   23274
   23274       0   23276   23277   23278   23277   23278   23278       0   23280
   23281   23282   23281   23282   23282       0   23284   23285   23286   23285
   23286   23286       0   23288   23289   23290   23289   23290   23290       0
   23292   23293   23294   23293   23294   23294       0   23296   23297   23298
   23297   23298   23298       0   23300   23301   23302   23301   23302   23302
       0   23304   23305   23306   23305   23306   23306       0   23308   23309
   23310   23309   23310   23310       0   23312   23313   23314   23313   23314
   23314       0   23316   23317   23318   23317   23318   23318       0   23320
   23321   23322   23321   23322   23322       0   23324   23325   23326   23325
   23326   23326       0   23328   23329   23330   23329   23330   23330       0
   23332   23333   23334   23333   23334   23334       0   23336   23337   23338
   23337   23338   23338       0   23340   23341   23342   23341   23342   23342
       0   23344   23345   23346   23345   23346   23346       0   23348   23349
   23350   23349   23350   23350       0   23352   23353   23354   23353   23354
   23354       0   23356   23357   23358   23357   23358   23358       0   23360
   23361   23362   23361   23362   23362       0   23364   23365   23366   23365
   23366   23366       0   23368   23369   23370   23369   23370   23370       0
   23372   23373   23374   23373   23374   23374       0   23376   23377   23378
   23377   23378   23378       0   23380   23381   23382   23381   23382   23382
       0   23384   23385   23386   23385   23386   23386       0   23388   23389
   23390   23389   23390   23390       0   23392   23393   23394   23393   23394
   23394       0   23396   23397   23398   23397   23398   23398       0   23400
   23401   23402   23401   23402   23402       0   23404   23405   23406   23405
   23406   23406       0   23408   23409   23410   23409   23410   23410       0
   23412   23413   23414   23413   23414   23414       0   23416   23417   23418
   23417   23418   23418       0   23420   23421   23422   23421   23422   23422
       0   23424   23425   23426   23425   23426   23426       0   23428   23429
   23430   23429   23430   23430       0   23432   23433   23434   23433   23434
   23434       0   23436   23437   23438   23437   23438   23438       0   23440
   23441   23442   23441   23442   23442       0   23444   23445   23446   23445
   23446   23446       0   23448   23449   23450   23449   23450   23450       0
   23452   23453   23454   23453   23454   23454       0   23456   23457   23458
   23457   23458   23458       0   23460   23461   23462   23461   23462   23462
       0   23464   23465   23466   23465   23466   23466       0   23468   23469
   23470   23469   23470   23470       0   23472   23473   23474   23473   23474
   23474       0   23476   23477   23478   23477   23478   23478       0   23480
   23481   23482   23481   23482   23482       0   23484   23485   23486   23485
   23486   23486       0   23488   23489   23490   23489   23490   23490       0
   23492   23493   23494   23493   23494   23494       0   23496   23497   23498
   23497   23498   23498       0   23500   23501   23502   23501   23502   23502
       0   23504   23505   23506   23505   23506   23506       0   23508   23509
   23510   23509   23510   23510       0   23512   23513   23514   23513   23514
   23514       0   23516   23517   23518   23517   23518   23518       0   23520
   23521   23522   23521   23522   23522       0   23524   23525   23526   23525
   23526   23526       0   23528   23529   23530   23529   23530   23530       0
   23532   23533   23534   23533   23534   23534       0   23536   23537   23538
   23537   23538   23538       0   23540   23541   23542   23541   23542   23542
       0   23544   23545   23546   23545   23546   23546       0   23548   23549
   23550   23549   23550   23550       0   23552   23553   23554   23553   23554
   23554       0   23556   23557   23558   23557   23558   23558       0   23560
   23561   23562   23561   23562   23562       0   23564   23565   23566   23565
   23566   23566       0   23568   23569   23570   23569   23570   23570       0
   23572   23573   23574   23573   23574   23574       0   23576   23577   23578
   23577   23578   23578       0   23580   23581   23582   23581   23582   23582
       0   23584   23585   23586   23585   23586   23586       0   23588   23589
   23590   23589   23590   23590       0   23592   23593   23594   23593   23594
   23594       0   23596   23597   23598   23597   23598   23598       0   23600
   23601   23602   23601   23602   23602       0   23604   23605   23606   23605
   23606   23606       0   23608   23609   23610   23609   23610   23610       0
   23612   23613   23614   23613   23614   23614       0   23616   23617   23618
   23617   23618   23618       0   23620   23621   23622   23621   23622   23622
       0   23624   23625   23626   23625   23626   23626       0   23628   23629
   23630   23629   23630   23630       0   23632   23633   23634   23633   23634
   23634       0   23636   23637   23638   23637   23638   23638       0   23640
   23641   23642   23641   23642   23642       0   23644   23645   23646   23645
   23646   23646       0   23648   23649   23650   23649   23650   23650       0
   23652   23653   23654   23653   23654   23654       0   23656   23657   23658
   23657   23658   23658       0   23660   23661   23662   23661   23662   23662
       0   23664   23665   23666   23665   23666   23666       0   23668   23669
   23670   23669   23670   23670       0   23672   23673   23674   23673   23674
   23674       0   23676   23677   23678   23677   23678   23678       0   23680
   23681   23682   23681   23682   23682       0   23684   23685   23686   23685
   23686   23686       0   23688   23689   23690   23689   23690   23690       0
   23692   23693   23694   23693   23694   23694       0   23696   23697   23698
   23697   23698   23698       0   23700   23701   23702   23701   23702   23702
       0   23704   23705   23706   23705   23706   23706       0   23708   23709
   23710   23709   23710   23710       0   23712   23713   23714   23713   23714
   23714       0   23716   23717   23718   23717   23718   23718       0   23720
   23721   23722   23721   23722   23722       0   23724   23725   23726   23725
   23726   23726       0   23728   23729   23730   23729   23730   23730       0
   23732   23733   23734   23733   23734   23734       0   23736   23737   23738
   23737   23738   23738       0   23740   23741   23742   23741   23742   23742
       0   23744   23745   23746   23745   23746   23746       0   23748   23749
   23750   23749   23750   23750       0   23752   23753   23754   23753   23754
   23754       0   23756   23757   23758   23757   23758   23758       0   23760
   23761   23762   23761   23762   23762       0   23764   23765   23766   23765
   23766   23766       0   23768   23769   23770   23769   23770   23770       0
   23772   23773   23774   23773   23774   23774       0   23776   23777   23778
   23777   23778   23778       0   23780   23781   23782   23781   23782   23782
       0   23784   23785   23786   23785   23786   23786       0   23788   23789
   23790   23789   23790   23790       0   23792   23793   23794   23793   23794
   23794       0   23796   23797   23798   23797   23798   23798       0   23800
   23801   23802   23801   23802   23802       0   23804   23805   23806   23805
   23806   23806       0   23808   23809   23810   23809   23810   23810       0
   23812   23813   23814   23813   23814   23814       0   23816   23817   23818
   23817   23818   23818       0   23820   23821   23822   23821   23822   23822
       0   23824   23825   23826   23825   23826   23826       0   23828   23829
   23830   23829   23830   23830       0   23832   23833   23834   23833   23834
   23834       0   23836   23837   23838   23837   23838   23838       0   23840
   23841   23842   23841   23842   23842       0   23844   23845   23846   23845
   23846   23846       0   23848   23849   23850   23849   23850   23850       0
   23852   23853   23854   23853   23854   23854       0   23856   23857   23858
   23857   23858   23858       0   23860   23861   23862   23861   23862   23862
       0   23864   23865   23866   23865   23866   23866       0   23868   23869
   23870   23869   23870   23870       0   23872   23873   23874   23873   23874
   23874       0   23876   23877   23878   23877   23878   23878       0   23880
   23881   23882   23881   23882   23882       0   23884   23885   23886   23885
   23886   23886       0   23888   23889   23890   23889   23890   23890       0
   23892   23893   23894   23893   23894   23894       0   23896   23897   23898
   23897   23898   23898       0   23900   23901   23902   23901   23902   23902
       0   23904   23905   23906   23905   23906   23906       0   23908   23909
   23910   23909   23910   23910       0   23912   23913   23914   23913   23914
   23914       0   23916   23917   23918   23917   23918   23918       0   23920
   23921   23922   23921   23922   23922       0   23924   23925   23926   23925
   23926   23926       0   23928   23929   23930   23929   23930   23930       0
   23932   23933   23934   23933   23934   23934       0   23936   23937   23938
   23937   23938   23938       0   23940   23941   23942   23941   23942   23942
       0   23944   23945   23946   23945   23946   23946       0   23948   23949
   23950   23949   23950   23950       0   23952   23953   23954   23953   23954
   23954       0   23956   23957   23958   23957   23958   23958       0   23960
   23961   23962   23961   23962   23962       0   23964   23965   23966   23965
   23966   23966       0   23968   23969   23970   23969   23970   23970       0
   23972   23973   23974   23973   23974   23974       0   23976   23977   23978
   23977   23978   23978       0   23980   23981   23982   23981   23982   23982
       0   23984   23985   23986   23985   23986   23986       0   23988   23989
   23990   23989   23990   23990       0   23992   23993   23994   23993   23994
   23994       0   23996   23997   23998   23997   23998   23998       0   24000
   24001   24002   24001   24002   24002       0   24004   24005   24006   24005
   24006   24006       0   24008   24009   24010   24009   24010   24010       0
   24012   24013   24014   24013   24014   24014       0   24016   24017   24018
   24017   24018   24018       0   24020   24021   24022   24021   24022   24022
       0   24024   24025   24026   24025   24026   24026       0   24028   24029
   24030   24029   24030   24030       0   24032   24033   24034   24033   24034
   24034       0   24036   24037   24038   24037   24038   24038       0   24040
   24041   24042   24041   24042   24042       0   24044   24045   24046   24045
   24046   24046       0   24048   24049   24050   24049   24050   24050       0
   24052   24053   24054   24053   24054   24054       0   24056   24057   24058
   24057   24058   24058       0   24060   24061   24062   24061   24062   24062
       0   24064   24065   24066   24065   24066   24066       0   24068   24069
   24070   24069   24070   24070       0   24072   24073   24074   24073   24074
   24074       0   24076   24077   24078   24077   24078   24078       0   24080
   24081   24082   24081   24082   24082       0   24084   24085   24086   24085
   24086   24086       0   24088   24089   24090   24089   24090   24090       0
   24092   24093   24094   24093   24094   24094       0   24096   24097   24098
   24097   24098   24098       0   24100   24101   24102   24101   24102   24102
       0   24104   24105   24106   24105   24106   24106       0   24108   24109
   24110   24109   24110   24110       0   24112   24113   24114   24113   24114
   24114       0   24116   24117   24118   24117   24118   24118       0   24120
   24121   24122   24121   24122   24122       0   24124   24125   24126   24125
   24126   24126       0   24128   24129   24130   24129   24130   24130       0
   24132   24133   24134   24133   24134   24134       0   24136   24137   24138
   24137   24138   24138       0   24140   24141   24142   24141   24142   24142
       0   24144   24145   24146   24145   24146   24146       0   24148   24149
   24150   24149   24150   24150       0   24152   24153   24154   24153   24154
   24154       0   24156   24157   24158   24157   24158   24158       0   24160
   24161   24162   24161   24162   24162       0   24164   24165   24166   24165
   24166   24166       0   24168   24169   24170   24169   24170   24170       0
   24172   24173   24174   24173   24174   24174       0   24176   24177   24178
   24177   24178   24178       0   24180   24181   24182   24181   24182   24182
       0   24184   24185   24186   24185   24186   24186       0   24188   24189
   24190   24189   24190   24190       0   24192   24193   24194   24193   24194
   24194       0   24196   24197   24198   24197   24198   24198       0   24200
   24201   24202   24201   24202   24202       0   24204   24205   24206   24205
   24206   24206       0   24208   24209   24210   24209   24210   24210       0
   24212   24213   24214   24213   24214   24214       0   24216   24217   24218
   24217   24218   24218       0   24220   24221   24222   24221   24222   24222
       0   24224   24225   24226   24225   24226   24226       0   24228   24229
   24230   24229   24230   24230       0   24232   24233   24234   24233   24234
   24234       0   24236   24237   24238   24237   24238   24238       0   24240
   24241   24242   24241   24242   24242       0   24244   24245   24246   24245
   24246   24246       0   24248   24249   24250   24249   24250   24250       0
   24252   24253   24254   24253   24254   24254       0   24256   24257   24258
   24257   24258   24258       0   24260   24261   24262   24261   24262   24262
       0   24264   24265   24266   24265   24266   24266       0   24268   24269
   24270   24269   24270   24270       0   24272   24273   24274   24273   24274
   24274       0   24276   24277   24278   24277   24278   24278       0   24280
   24281   24282   24281   24282   24282       0   24284   24285   24286   24285
   24286   24286       0   24288   24289   24290   24289   24290   24290       0
   24292   24293   24294   24293   24294   24294       0   24296   24297   24298
   24297   24298   24298       0   24300   24301   24302   24301   24302   24302
       0   24304   24305   24306   24305   24306   24306       0   24308   24309
   24310   24309   24310   24310       0   24312   24313   24314   24313   24314
   24314       0   24316   24317   24318   24317   24318   24318       0   24320
   24321   24322   24321   24322   24322       0   24324   24325   24326   24325
   24326   24326       0   24328   24329   24330   24329   24330   24330       0
   24332   24333   24334   24333   24334   24334       0   24336   24337   24338
   24337   24338   24338       0   24340   24341   24342   24341   24342   24342
       0   24344   24345   24346   24345   24346   24346       0   24348   24349
   24350   24349   24350   24350       0   24352   24353   24354   24353   24354
   24354       0   24356   24357   24358   24357   24358   24358       0   24360
   24361   24362   24361   24362   24362       0   24364   24365   24366   24365
   24366   24366       0   24368   24369   24370   24369   24370   24370       0
   24372   24373   24374   24373   24374   24374       0   24376   24377   24378
   24377   24378   24378       0   24380   24381   24382   24381   24382   24382
       0   24384   24385   24386   24385   24386   24386       0   24388   24389
   24390   24389   24390   24390       0   24392   24393   24394   24393   24394
   24394       0   24396   24397   24398   24397   24398   24398       0   24400
   24401   24402   24401   24402   24402       0   24404   24405   24406   24405
   24406   24406       0   24408   24409   24410   24409   24410   24410       0
   24412   24413   24414   24413   24414   24414       0   24416   24417   24418
   24417   24418   24418       0   24420   24421   24422   24421   24422   24422
       0   24424   24425   24426   24425   24426   24426       0   24428   24429
   24430   24429   24430   24430       0   24432   24433   24434   24433   24434
   24434       0   24436   24437   24438   24437   24438   24438       0   24440
   24441   24442   24441   24442   24442       0   24444   24445   24446   24445
   24446   24446       0   24448   24449   24450   24449   24450   24450       0
   24452   24453   24454   24453   24454   24454       0   24456   24457   24458
   24457   24458   24458       0   24460   24461   24462   24461   24462   24462
       0   24464   24465   24466   24465   24466   24466       0   24468   24469
   24470   24469   24470   24470       0   24472   24473   24474   24473   24474
   24474       0   24476   24477   24478   24477   24478   24478       0   24480
   24481   24482   24481   24482   24482       0   24484   24485   24486   24485
   24486   24486       0   24488   24489   24490   24489   24490   24490       0
   24492   24493   24494   24493   24494   24494       0   24496   24497   24498
   24497   24498   24498       0   24500   24501   24502   24501   24502   24502
       0   24504   24505   24506   24505   24506   24506       0   24508   24509
   24510   24509   24510   24510       0   24512   24513   24514   24513   24514
   24514       0   24516   24517   24518   24517   24518   24518       0   24520
   24521   24522   24521   24522   24522       0   24524   24525   24526   24525
   24526   24526       0   24528   24529   24530   24529   24530   24530       0
   24532   24533   24534   24533   24534   24534       0   24536   24537   24538
   24537   24538   24538       0   24540   24541   24542   24541   24542   24542
       0   24544   24545   24546   24545   24546   24546       0   24548   24549
   24550   24549   24550   24550       0   24552   24553   24554   24553   24554
   24554       0   24556   24557   24558   24557   24558   24558       0   24560
   24561   24562   24561   24562   24562       0   24564   24565   24566   24565
   24566   24566       0   24568   24569   24570   24569   24570   24570       0
   24572   24573   24574   24573   24574   24574       0   24576   24577   24578
   24577   24578   24578       0   24580   24581   24582   24581   24582   24582
       0   24584   24585   24586   24585   24586   24586       0   24588   24589
   24590   24589   24590   24590       0   24592   24593   24594   24593   24594
   24594       0   24596   24597   24598   24597   24598   24598       0   24600
   24601   24602   24601   24602   24602       0   24604   24605   24606   24605
   24606   24606       0   24608   24609   24610   24609   24610   24610       0
   24612   24613   24614   24613   24614   24614       0   24616   24617   24618
   24617   24618   24618       0   24620   24621   24622   24621   24622   24622
       0   24624   24625   24626   24625   24626   24626       0   24628   24629
   24630   24629   24630   24630       0   24632   24633   24634   24633   24634
   24634       0   24636   24637   24638   24637   24638   24638       0   24640
   24641   24642   24641   24642   24642       0   24644   24645   24646   24645
   24646   24646       0   24648   24649   24650   24649   24650   24650       0
   24652   24653   24654   24653   24654   24654       0   24656   24657   24658
   24657   24658   24658       0   24660   24661   24662   24661   24662   24662
       0   24664   24665   24666   24665   24666   24666       0   24668   24669
   24670   24669   24670   24670       0   24672   24673   24674   24673   24674
   24674       0   24676   24677   24678   24677   24678   24678       0   24680
   24681   24682   24681   24682   24682       0   24684   24685   24686   24685
   24686   24686       0   24688   24689   24690   24689   24690   24690       0
   24692   24693   24694   24693   24694   24694       0   24696   24697   24698
   24697   24698   24698       0   24700   24701   24702   24701   24702   24702
       0   24704   24705   24706   24705   24706   24706       0   24708   24709
   24710   24709   24710   24710       0   24712   24713   24714   24713   24714
   24714       0   24716   24717   24718   24717   24718   24718       0   24720
   24721   24722   24721   24722   24722       0   24724   24725   24726   24725
   24726   24726       0   24728   24729   24730   24729   24730   24730       0
   24732   24733   24734   24733   24734   24734       0   24736   24737   24738
   24737   24738   24738       0   24740   24741   24742   24741   24742   24742
       0   24744   24745   24746   24745   24746   24746       0   24748   24749
   24750   24749   24750   24750       0   24752   24753   24754   24753   24754
   24754       0   24756   24757   24758   24757   24758   24758       0   24760
   24761   24762   24761   24762   24762       0   24764   24765   24766   24765
   24766   24766       0   24768   24769   24770   24769   24770   24770       0
   24772   24773   24774   24773   24774   24774       0   24776   24777   24778
   24777   24778   24778       0   24780   24781   24782   24781   24782   24782
       0   24784   24785   24786   24785   24786   24786       0   24788   24789
   24790   24789   24790   24790       0   24792   24793   24794   24793   24794
   24794       0   24796   24797   24798   24797   24798   24798       0   24800
   24801   24802   24801   24802   24802       0   24804   24805   24806   24805
   24806   24806       0   24808   24809   24810   24809   24810   24810       0
   24812   24813   24814   24813   24814   24814       0   24816   24817   24818
   24817   24818   24818       0   24820   24821   24822   24821   24822   24822
       0   24824   24825   24826   24825   24826   24826       0   24828   24829
   24830   24829   24830   24830       0   24832   24833   24834   24833   24834
   24834       0   24836   24837   24838   24837   24838   24838       0   24840
   24841   24842   24841   24842   24842       0   24844   24845   24846   24845
   24846   24846       0   24848   24849   24850   24849   24850   24850       0
   24852   24853   24854   24853   24854   24854       0   24856   24857   24858
   24857   24858   24858       0   24860   24861   24862   24861   24862   24862
       0   24864   24865   24866   24865   24866   24866       0   24868   24869
   24870   24869   24870   24870       0   24872   24873   24874   24873   24874
   24874       0   24876   24877   24878   24877   24878   24878       0   24880
   24881   24882   24881   24882   24882       0   24884   24885   24886   24885
   24886   24886       0   24888   24889   24890   24889   24890   24890       0
   24892   24893   24894   24893   24894   24894       0   24896   24897   24898
   24897   24898   24898       0   24900   24901   24902   24901   24902   24902
       0   24904   24905   24906   24905   24906   24906       0   24908   24909
   24910   24909   24910   24910       0   24912   24913   24914   24913   24914
   24914       0   24916   24917   24918   24917   24918   24918       0   24920
   24921   24922   24921   24922   24922       0   24924   24925   24926   24925
   24926   24926       0   24928   24929   24930   24929   24930   24930       0
   24932   24933   24934   24933   24934   24934       0   24936   24937   24938
   24937   24938   24938       0   24940   24941   24942   24941   24942   24942
       0   24944   24945   24946   24945   24946   24946       0   24948   24949
   24950   24949   24950   24950       0   24952   24953   24954   24953   24954
   24954       0   24956   24957   24958   24957   24958   24958       0   24960
   24961   24962   24961   24962   24962       0   24964   24965   24966   24965
   24966   24966       0   24968   24969   24970   24969   24970   24970       0
   24972   24973   24974   24973   24974   24974       0   24976   24977   24978
   24977   24978   24978       0   24980   24981   24982   24981   24982   24982
       0   24984   24985   24986   24985   24986   24986       0   24988   24989
   24990   24989   24990   24990       0   24992   24993   24994   24993   24994
   24994       0   24996   24997   24998   24997   24998   24998       0   25000
   25001   25002   25001   25002   25002       0   25004   25005   25006   25005
   25006   25006       0   25008   25009   25010   25009   25010   25010       0
   25012   25013   25014   25013   25014   25014       0   25016   25017   25018
   25017   25018   25018       0   25020   25021   25022   25021   25022   25022
       0   25024   25025   25026   25025   25026   25026       0   25028   25029
   25030   25029   25030   25030       0   25032   25033   25034   25033   25034
   25034       0   25036   25037   25038   25037   25038   25038       0   25040
   25041   25042   25041   25042   25042       0   25044   25045   25046   25045
   25046   25046       0   25048   25049   25050   25049   25050   25050       0
   25052   25053   25054   25053   25054   25054       0   25056   25057   25058
   25057   25058   25058       0   25060   25061   25062   25061   25062   25062
       0   25064   25065   25066   25065   25066   25066       0   25068   25069
   25070   25069   25070   25070       0   25072   25073   25074   25073   25074
   25074       0   25076   25077   25078   25077   25078   25078       0   25080
   25081   25082   25081   25082   25082       0   25084   25085   25086   25085
   25086   25086       0   25088   25089   25090   25089   25090   25090       0
   25092   25093   25094   25093   25094   25094       0   25096   25097   25098
   25097   25098   25098       0   25100   25101   25102   25101   25102   25102
       0   25104   25105   25106   25105   25106   25106       0   25108   25109
   25110   25109   25110   25110       0   25112   25113   25114   25113   25114
   25114       0   25116   25117   25118   25117   25118   25118       0   25120
   25121   25122   25121   25122   25122       0   25124   25125   25126   25125
   25126   25126       0   25128   25129   25130   25129   25130   25130       0
   25132   25133   25134   25133   25134   25134       0   25136   25137   25138
   25137   25138   25138       0   25140   25141   25142   25141   25142   25142
       0   25144   25145   25146   25145   25146   25146       0   25148   25149
   25150   25149   25150   25150       0   25152   25153   25154   25153   25154
   25154       0   25156   25157   25158   25157   25158   25158       0   25160
   25161   25162   25161   25162   25162       0   25164   25165   25166   25165
   25166   25166       0   25168   25169   25170   25169   25170   25170       0
   25172   25173   25174   25173   25174   25174       0   25176   25177   25178
   25177   25178   25178       0   25180   25181   25182   25181   25182   25182
       0   25184   25185   25186   25185   25186   25186       0   25188   25189
   25190   25189   25190   25190       0   25192   25193   25194   25193   25194
   25194       0   25196   25197   25198   25197   25198   25198       0   25200
   25201   25202   25201   25202   25202       0   25204   25205   25206   25205
   25206   25206       0   25208   25209   25210   25209   25210   25210       0
   25212   25213   25214   25213   25214   25214       0   25216   25217   25218
   25217   25218   25218       0   25220   25221   25222   25221   25222   25222
       0   25224   25225   25226   25225   25226   25226       0   25228   25229
   25230   25229   25230   25230       0   25232   25233   25234   25233   25234
   25234       0   25236   25237   25238   25237   25238   25238       0   25240
   25241   25242   25241   25242   25242       0   25244   25245   25246   25245
   25246   25246       0   25248   25249   25250   25249   25250   25250       0
   25252   25253   25254   25253   25254   25254       0   25256   25257   25258
   25257   25258   25258       0   25260   25261   25262   25261   25262   25262
       0   25264   25265   25266   25265   25266   25266       0   25268   25269
   25270   25269   25270   25270       0   25272   25273   25274   25273   25274
   25274       0   25276   25277   25278   25277   25278   25278       0   25280
   25281   25282   25281   25282   25282       0   25284   25285   25286   25285
   25286   25286       0   25288   25289   25290   25289   25290   25290       0
   25292   25293   25294   25293   25294   25294       0   25296   25297   25298
   25297   25298   25298       0   25300   25301   25302   25301   25302   25302
       0   25304   25305   25306   25305   25306   25306       0   25308   25309
   25310   25309   25310   25310       0   25312   25313   25314   25313   25314
   25314       0   25316   25317   25318   25317   25318   25318       0   25320
   25321   25322   25321   25322   25322       0   25324   25325   25326   25325
   25326   25326       0   25328   25329   25330   25329   25330   25330       0
   25332   25333   25334   25333   25334   25334       0   25336   25337   25338
   25337   25338   25338       0   25340   25341   25342   25341   25342   25342
       0   25344   25345   25346   25345   25346   25346       0   25348   25349
   25350   25349   25350   25350       0   25352   25353   25354   25353   25354
   25354       0   25356   25357   25358   25357   25358   25358       0   25360
   25361   25362   25361   25362   25362       0   25364   25365   25366   25365
   25366   25366       0   25368   25369   25370   25369   25370   25370       0
   25372   25373   25374   25373   25374   25374       0   25376   25377   25378
   25377   25378   25378       0   25380   25381   25382   25381   25382   25382
       0   25384   25385   25386   25385   25386   25386       0   25388   25389
   25390   25389   25390   25390       0   25392   25393   25394   25393   25394
   25394       0   25396   25397   25398   25397   25398   25398       0   25400
   25401   25402   25401   25402   25402       0   25404   25405   25406   25405
   25406   25406       0   25408   25409   25410   25409   25410   25410       0
   25412   25413   25414   25413   25414   25414       0   25416   25417   25418
   25417   25418   25418       0   25420   25421   25422   25421   25422   25422
       0   25424   25425   25426   25425   25426   25426       0   25428   25429
   25430   25429   25430   25430       0   25432   25433   25434   25433   25434
   25434       0   25436   25437   25438   25437   25438   25438       0   25440
   25441   25442   25441   25442   25442       0   25444   25445   25446   25445
   25446   25446       0   25448   25449   25450   25449   25450   25450       0
   25452   25453   25454   25453   25454   25454       0   25456   25457   25458
   25457   25458   25458       0   25460   25461   25462   25461   25462   25462
       0   25464   25465   25466   25465   25466   25466       0   25468   25469
   25470   25469   25470   25470       0   25472   25473   25474   25473   25474
   25474       0   25476   25477   25478   25477   25478   25478       0   25480
   25481   25482   25481   25482   25482       0   25484   25485   25486   25485
   25486   25486       0   25488   25489   25490   25489   25490   25490       0
   25492   25493   25494   25493   25494   25494       0   25496   25497   25498
   25497   25498   25498       0   25500   25501   25502   25501   25502   25502
       0   25504   25505   25506   25505   25506   25506       0   25508   25509
   25510   25509   25510   25510       0   25512   25513   25514   25513   25514
   25514       0   25516   25517   25518   25517   25518   25518       0   25520
   25521   25522   25521   25522   25522       0   25524   25525   25526   25525
   25526   25526       0   25528   25529   25530   25529   25530   25530       0
   25532   25533   25534   25533   25534   25534       0   25536   25537   25538
   25537   25538   25538       0   25540   25541   25542   25541   25542   25542
       0   25544   25545   25546   25545   25546   25546       0   25548   25549
   25550   25549   25550   25550       0   25552   25553   25554   25553   25554
   25554       0   25556   25557   25558   25557   25558   25558       0   25560
   25561   25562   25561   25562   25562       0   25564   25565   25566   25565
   25566   25566       0   25568   25569   25570   25569   25570   25570       0
   25572   25573   25574   25573   25574   25574       0   25576   25577   25578
   25577   25578   25578       0   25580   25581   25582   25581   25582   25582
       0   25584   25585   25586   25585   25586   25586       0   25588   25589
   25590   25589   25590   25590       0   25592   25593   25594   25593   25594
   25594       0   25596   25597   25598   25597   25598   25598       0   25600
   25601   25602   25601   25602   25602       0   25604   25605   25606   25605
   25606   25606       0   25608   25609   25610   25609   25610   25610       0
   25612   25613   25614   25613   25614   25614       0   25616   25617   25618
   25617   25618   25618       0   25620   25621   25622   25621   25622   25622
       0   25624   25625   25626   25625   25626   25626       0   25628   25629
   25630   25629   25630   25630       0   25632   25633   25634   25633   25634
   25634       0   25636   25637   25638   25637   25638   25638       0   25640
   25641   25642   25641   25642   25642       0   25644   25645   25646   25645
   25646   25646       0   25648   25649   25650   25649   25650   25650       0
   25652   25653   25654   25653   25654   25654       0   25656   25657   25658
   25657   25658   25658       0   25660   25661   25662   25661   25662   25662
       0   25664   25665   25666   25665   25666   25666       0   25668   25669
   25670   25669   25670   25670       0   25672   25673   25674   25673   25674
   25674       0   25676   25677   25678   25677   25678   25678       0   25680
   25681   25682   25681   25682   25682       0   25684   25685   25686   25685
   25686   25686       0   25688   25689   25690   25689   25690   25690       0
   25692   25693   25694   25693   25694   25694       0   25696   25697   25698
   25697   25698   25698       0   25700   25701   25702   25701   25702   25702
       0   25704   25705   25706   25705   25706   25706       0   25708   25709
   25710   25709   25710   25710       0   25712   25713   25714   25713   25714
   25714       0   25716   25717   25718   25717   25718   25718       0   25720
   25721   25722   25721   25722   25722       0   25724   25725   25726   25725
   25726   25726       0   25728   25729   25730   25729   25730   25730       0
   25732   25733   25734   25733   25734   25734       0   25736   25737   25738
   25737   25738   25738       0   25740   25741   25742   25741   25742   25742
       0   25744   25745   25746   25745   25746   25746       0   25748   25749
   25750   25749   25750   25750       0   25752   25753   25754   25753   25754
   25754       0   25756   25757   25758   25757   25758   25758       0   25760
   25761   25762   25761   25762   25762       0   25764   25765   25766   25765
   25766   25766       0   25768   25769   25770   25769   25770   25770       0
   25772   25773   25774   25773   25774   25774       0   25776   25777   25778
   25777   25778   25778       0   25780   25781   25782   25781   25782   25782
       0   25784   25785   25786   25785   25786   25786       0   25788   25789
   25790   25789   25790   25790       0   25792   25793   25794   25793   25794
   25794       0   25796   25797   25798   25797   25798   25798       0   25800
   25801   25802   25801   25802   25802       0   25804   25805   25806   25805
   25806   25806       0   25808   25809   25810   25809   25810   25810       0
   25812   25813   25814   25813   25814   25814       0   25816   25817   25818
   25817   25818   25818       0   25820   25821   25822   25821   25822   25822
       0   25824   25825   25826   25825   25826   25826       0   25828   25829
   25830   25829   25830   25830       0   25832   25833   25834   25833   25834
   25834       0   25836   25837   25838   25837   25838   25838       0   25840
   25841   25842   25841   25842   25842       0   25844   25845   25846   25845
   25846   25846       0   25848   25849   25850   25849   25850   25850       0
   25852   25853   25854   25853   25854   25854       0   25856   25857   25858
   25857   25858   25858       0   25860   25861   25862   25861   25862   25862
       0   25864   25865   25866   25865   25866   25866       0   25868   25869
   25870   25869   25870   25870       0   25872   25873   25874   25873   25874
   25874       0   25876   25877   25878   25877   25878   25878       0   25880
   25881   25882   25881   25882   25882       0   25884   25885   25886   25885
   25886   25886       0   25888   25889   25890   25889   25890   25890       0
   25892   25893   25894   25893   25894   25894       0   25896   25897   25898
   25897   25898   25898       0   25900   25901   25902   25901   25902   25902
       0   25904   25905   25906   25905   25906   25906       0   25908   25909
   25910   25909   25910   25910       0   25912   25913   25914   25913   25914
   25914       0   25916   25917   25918   25917   25918   25918       0   25920
   25921   25922   25921   25922   25922       0   25924   25925   25926   25925
   25926   25926       0   25928   25929   25930   25929   25930   25930       0
   25932   25933   25934   25933   25934   25934       0   25936   25937   25938
   25937   25938   25938       0   25940   25941   25942   25941   25942   25942
       0   25944   25945   25946   25945   25946   25946       0   25948   25949
   25950   25949   25950   25950       0   25952   25953   25954   25953   25954
   25954       0   25956   25957   25958   25957   25958   25958       0   25960
   25961   25962   25961   25962   25962       0   25964   25965   25966   25965
   25966   25966       0   25968   25969   25970   25969   25970   25970       0
   25972   25973   25974   25973   25974   25974       0   25976   25977   25978
   25977   25978   25978       0   25980   25981   25982   25981   25982   25982
       0   25984   25985   25986   25985   25986   25986       0   25988   25989
   25990   25989   25990   25990       0   25992   25993   25994   25993   25994
   25994       0   25996   25997   25998   25997   25998   25998       0   26000
   26001   26002   26001   26002   26002       0   26004   26005   26006   26005
   26006   26006       0   26008   26009   26010   26009   26010   26010       0
   26012   26013   26014   26013   26014   26014       0   26016   26017   26018
   26017   26018   26018       0   26020   26021   26022   26021   26022   26022
       0   26024   26025   26026   26025   26026   26026       0   26028   26029
   26030   26029   26030   26030       0   26032   26033   26034   26033   26034
   26034       0   26036   26037   26038   26037   26038   26038       0   26040
   26041   26042   26041   26042   26042       0   26044   26045   26046   26045
   26046   26046       0   26048   26049   26050   26049   26050   26050       0
   26052   26053   26054   26053   26054   26054       0   26056   26057   26058
   26057   26058   26058       0   26060   26061   26062   26061   26062   26062
       0   26064   26065   26066   26065   26066   26066       0   26068   26069
   26070   26069   26070   26070       0   26072   26073   26074   26073   26074
   26074       0   26076   26077   26078   26077   26078   26078       0   26080
   26081   26082   26081   26082   26082       0   26084   26085   26086   26085
   26086   26086       0   26088   26089   26090   26089   26090   26090       0
   26092   26093   26094   26093   26094   26094       0   26096   26097   26098
   26097   26098   26098       0   26100   26101   26102   26101   26102   26102
       0   26104   26105   26106   26105   26106   26106       0   26108   26109
   26110   26109   26110   26110       0   26112   26113   26114   26113   26114
   26114       0   26116   26117   26118   26117   26118   26118       0   26120
   26121   26122   26121   26122   26122       0   26124   26125   26126   26125
   26126   26126       0   26128   26129   26130   26129   26130   26130       0
   26132   26133   26134   26133   26134   26134       0   26136   26137   26138
   26137   26138   26138       0   26140   26141   26142   26141   26142   26142
       0   26144   26145   26146   26145   26146   26146       0   26148   26149
   26150   26149   26150   26150       0   26152   26153   26154   26153   26154
   26154       0   26156   26157   26158   26157   26158   26158       0   26160
   26161   26162   26161   26162   26162       0   26164   26165   26166   26165
   26166   26166       0   26168   26169   26170   26169   26170   26170       0
   26172   26173   26174   26173   26174   26174       0   26176   26177   26178
   26177   26178   26178       0   26180   26181   26182   26181   26182   26182
       0   26184   26185   26186   26185   26186   26186       0   26188   26189
   26190   26189   26190   26190       0   26192   26193   26194   26193   26194
   26194       0   26196   26197   26198   26197   26198   26198       0   26200
   26201   26202   26201   26202   26202       0   26204   26205   26206   26205
   26206   26206       0   26208   26209   26210   26209   26210   26210       0
   26212   26213   26214   26213   26214   26214       0   26216   26217   26218
   26217   26218   26218       0   26220   26221   26222   26221   26222   26222
       0   26224   26225   26226   26225   26226   26226       0   26228   26229
   26230   26229   26230   26230       0   26232   26233   26234   26233   26234
   26234       0   26236   26237   26238   26237   26238   26238       0   26240
   26241   26242   26241   26242   26242       0   26244   26245   26246   26245
   26246   26246       0   26248   26249   26250   26249   26250   26250       0
   26252   26253   26254   26253   26254   26254       0   26256   26257   26258
   26257   26258   26258       0   26260   26261   26262   26261   26262   26262
       0   26264   26265   26266   26265   26266   26266       0   26268   26269
   26270   26269   26270   26270       0   26272   26273   26274   26273   26274
   26274       0   26276   26277   26278   26277   26278   26278       0   26280
   26281   26282   26281   26282   26282       0   26284   26285   26286   26285
   26286   26286       0   26288   26289   26290   26289   26290   26290       0
   26292   26293   26294   26293   26294   26294       0   26296   26297   26298
   26297   26298   26298       0   26300   26301   26302   26301   26302   26302
       0   26304   26305   26306   26305   26306   26306       0   26308   26309
   26310   26309   26310   26310       0   26312   26313   26314   26313   26314
   26314       0   26316   26317   26318   26317   26318   26318       0   26320
   26321   26322   26321   26322   26322       0   26324   26325   26326   26325
   26326   26326       0   26328   26329   26330   26329   26330   26330       0
   26332   26333   26334   26333   26334   26334       0   26336   26337   26338
   26337   26338   26338       0   26340   26341   26342   26341   26342   26342
       0   26344   26345   26346   26345   26346   26346       0   26348   26349
   26350   26349   26350   26350       0   26352   26353   26354   26353   26354
   26354       0   26356   26357   26358   26357   26358   26358       0   26360
   26361   26362   26361   26362   26362       0   26364   26365   26366   26365
   26366   26366       0   26368   26369   26370   26369   26370   26370       0
   26372   26373   26374   26373   26374   26374       0   26376   26377   26378
   26377   26378   26378       0   26380   26381   26382   26381   26382   26382
       0   26384   26385   26386   26385   26386   26386       0   26388   26389
   26390   26389   26390   26390       0   26392   26393   26394   26393   26394
   26394       0   26396   26397   26398   26397   26398   26398       0   26400
   26401   26402   26401   26402   26402       0   26404   26405   26406   26405
   26406   26406       0   26408   26409   26410   26409   26410   26410       0
   26412   26413   26414   26413   26414   26414       0   26416   26417   26418
   26417   26418   26418       0   26420   26421   26422   26421   26422   26422
       0   26424   26425   26426   26425   26426   26426       0   26428   26429
   26430   26429   26430   26430       0   26432   26433   26434   26433   26434
   26434       0   26436   26437   26438   26437   26438   26438       0   26440
   26441   26442   26441   26442   26442       0   26444   26445   26446   26445
   26446   26446       0   26448   26449   26450   26449   26450   26450       0
   26452   26453   26454   26453   26454   26454       0   26456   26457   26458
   26457   26458   26458       0   26460   26461   26462   26461   26462   26462
       0   26464   26465   26466   26465   26466   26466       0   26468   26469
   26470   26469   26470   26470       0   26472   26473   26474   26473   26474
   26474       0   26476   26477   26478   26477   26478   26478       0   26480
   26481   26482   26481   26482   26482       0   26484   26485   26486   26485
   26486   26486       0   26488   26489   26490   26489   26490   26490       0
   26492   26493   26494   26493   26494   26494       0   26496   26497   26498
   26497   26498   26498       0   26500   26501   26502   26501   26502   26502
       0   26504   26505   26506   26505   26506   26506       0   26508   26509
   26510   26509   26510   26510       0   26512   26513   26514   26513   26514
   26514       0   26516   26517   26518   26517   26518   26518       0   26520
   26521   26522   26521   26522   26522       0   26524   26525   26526   26525
   26526   26526       0   26528   26529   26530   26529   26530   26530       0
   26532   26533   26534   26533   26534   26534       0   26536   26537   26538
   26537   26538   26538       0   26540   26541   26542   26541   26542   26542
       0   26544   26545   26546   26545   26546   26546       0   26548   26549
   26550   26549   26550   26550       0   26552   26553   26554   26553   26554
   26554       0   26556   26557   26558   26557   26558   26558       0   26560
   26561   26562   26561   26562   26562       0   26564   26565   26566   26565
   26566   26566       0   26568   26569   26570   26569   26570   26570       0
   26572   26573   26574   26573   26574   26574       0   26576   26577   26578
   26577   26578   26578       0   26580   26581   26582   26581   26582   26582
       0   26584   26585   26586   26585   26586   26586       0   26588   26589
   26590   26589   26590   26590       0   26592   26593   26594   26593   26594
   26594       0   26596   26597   26598   26597   26598   26598       0   26600
   26601   26602   26601   26602   26602       0   26604   26605   26606   26605
   26606   26606       0   26608   26609   26610   26609   26610   26610       0
   26612   26613   26614   26613   26614   26614       0   26616   26617   26618
   26617   26618   26618       0   26620   26621   26622   26621   26622   26622
       0   26624   26625   26626   26625   26626   26626       0   26628   26629
   26630   26629   26630   26630       0   26632   26633   26634   26633   26634
   26634       0   26636   26637   26638   26637   26638   26638       0   26640
   26641   26642   26641   26642   26642       0   26644   26645   26646   26645
   26646   26646       0   26648   26649   26650   26649   26650   26650       0
   26652   26653   26654   26653   26654   26654       0   26656   26657   26658
   26657   26658   26658       0   26660   26661   26662   26661   26662   26662
       0   26664   26665   26666   26665   26666   26666       0   26668   26669
   26670   26669   26670   26670       0   26672   26673   26674   26673   26674
   26674       0   26676   26677   26678   26677   26678   26678       0   26680
   26681   26682   26681   26682   26682       0   26684   26685   26686   26685
   26686   26686       0   26688   26689   26690   26689   26690   26690       0
   26692   26693   26694   26693   26694   26694       0   26696   26697   26698
   26697   26698   26698       0   26700   26701   26702   26701   26702   26702
       0   26704   26705   26706   26705   26706   26706       0   26708   26709
   26710   26709   26710   26710       0   26712   26713   26714   26713   26714
   26714       0   26716   26717   26718   26717   26718   26718       0   26720
   26721   26722   26721   26722   26722       0   26724   26725   26726   26725
   26726   26726       0   26728   26729   26730   26729   26730   26730       0
   26732   26733   26734   26733   26734   26734       0   26736   26737   26738
   26737   26738   26738       0   26740   26741   26742   26741   26742   26742
       0   26744   26745   26746   26745   26746   26746       0   26748   26749
   26750   26749   26750   26750       0   26752   26753   26754   26753   26754
   26754       0   26756   26757   26758   26757   26758   26758       0   26760
   26761   26762   26761   26762   26762       0   26764   26765   26766   26765
   26766   26766       0   26768   26769   26770   26769   26770   26770       0
   26772   26773   26774   26773   26774   26774       0   26776   26777   26778
   26777   26778   26778       0   26780   26781   26782   26781   26782   26782
       0   26784   26785   26786   26785   26786   26786       0   26788   26789
   26790   26789   26790   26790       0   26792   26793   26794   26793   26794
   26794       0   26796   26797   26798   26797   26798   26798       0   26800
   26801   26802   26801   26802   26802       0   26804   26805   26806   26805
   26806   26806       0   26808   26809   26810   26809   26810   26810       0
   26812   26813   26814   26813   26814   26814       0   26816   26817   26818
   26817   26818   26818       0   26820   26821   26822   26821   26822   26822
       0   26824   26825   26826   26825   26826   26826       0   26828   26829
   26830   26829   26830   26830       0   26832   26833   26834   26833   26834
   26834       0   26836   26837   26838   26837   26838   26838       0   26840
   26841   26842   26841   26842   26842       0   26844   26845   26846   26845
   26846   26846       0   26848   26849   26850   26849   26850   26850       0
   26852   26853   26854   26853   26854   26854       0   26856   26857   26858
   26857   26858   26858       0   26860   26861   26862   26861   26862   26862
       0   26864   26865   26866   26865   26866   26866       0   26868   26869
   26870   26869   26870   26870       0   26872   26873   26874   26873   26874
   26874       0   26876   26877   26878   26877   26878   26878       0   26880
   26881   26882   26881   26882   26882       0   26884   26885   26886   26885
   26886   26886       0   26888   26889   26890   26889   26890   26890       0
   26892   26893   26894   26893   26894   26894       0   26896   26897   26898
   26897   26898   26898       0   26900   26901   26902   26901   26902   26902
       0   26904   26905   26906   26905   26906   26906       0   26908   26909
   26910   26909   26910   26910       0   26912   26913   26914   26913   26914
   26914       0   26916   26917   26918   26917   26918   26918       0   26920
   26921   26922   26921   26922   26922       0   26924   26925   26926   26925
   26926   26926       0   26928   26929   26930   26929   26930   26930       0
   26932   26933   26934   26933   26934   26934       0   26936   26937   26938
   26937   26938   26938       0   26940   26941   26942   26941   26942   26942
       0   26944   26945   26946   26945   26946   26946       0   26948   26949
   26950   26949   26950   26950       0   26952   26953   26954   26953   26954
   26954       0   26956   26957   26958   26957   26958   26958       0   26960
   26961   26962   26961   26962   26962       0   26964   26965   26966   26965
   26966   26966       0   26968   26969   26970   26969   26970   26970       0
   26972   26973   26974   26973   26974   26974       0   26976   26977   26978
   26977   26978   26978       0   26980   26981   26982   26981   26982   26982
       0   26984   26985   26986   26985   26986   26986       0   26988   26989
   26990   26989   26990   26990       0   26992   26993   26994   26993   26994
   26994       0   26996   26997   26998   26997   26998   26998       0   27000
   27001   27002   27001   27002   27002       0   27004   27005   27006   27005
   27006   27006       0   27008   27009   27010   27009   27010   27010       0
   27012   27013   27014   27013   27014   27014       0   27016   27017   27018
   27017   27018   27018       0   27020   27021   27022   27021   27022   27022
       0   27024   27025   27026   27025   27026   27026       0   27028   27029
   27030   27029   27030   27030       0   27032   27033   27034   27033   27034
   27034       0   27036   27037   27038   27037   27038   27038       0   27040
   27041   27042   27041   27042   27042       0   27044   27045   27046   27045
   27046   27046       0   27048   27049   27050   27049   27050   27050       0
   27052   27053   27054   27053   27054   27054       0   27056   27057   27058
   27057   27058   27058       0   27060   27061   27062   27061   27062   27062
       0   27064   27065   27066   27065   27066   27066       0   27068   27069
   27070   27069   27070   27070       0   27072   27073   27074   27073   27074
   27074       0   27076   27077   27078   27077   27078   27078       0   27080
   27081   27082   27081   27082   27082       0   27084   27085   27086   27085
   27086   27086       0   27088   27089   27090   27089   27090   27090       0
   27092   27093   27094   27093   27094   27094       0   27096   27097   27098
   27097   27098   27098       0   27100   27101   27102   27101   27102   27102
       0   27104   27105   27106   27105   27106   27106       0   27108   27109
   27110   27109   27110   27110       0   27112   27113   27114   27113   27114
   27114       0   27116   27117   27118   27117   27118   27118       0   27120
   27121   27122   27121   27122   27122       0   27124   27125   27126   27125
   27126   27126       0   27128   27129   27130   27129   27130   27130       0
   27132   27133   27134   27133   27134   27134       0   27136   27137   27138
   27137   27138   27138       0   27140   27141   27142   27141   27142   27142
       0   27144   27145   27146   27145   27146   27146       0   27148   27149
   27150   27149   27150   27150       0   27152   27153   27154   27153   27154
   27154       0   27156   27157   27158   27157   27158   27158       0   27160
   27161   27162   27161   27162   27162       0   27164   27165   27166   27165
   27166   27166       0   27168   27169   27170   27169   27170   27170       0
   27172   27173   27174   27173   27174   27174       0   27176   27177   27178
   27177   27178   27178       0   27180   27181   27182   27181   27182   27182
       0   27184   27185   27186   27185   27186   27186       0   27188   27189
   27190   27189   27190   27190       0   27192   27193   27194   27193   27194
   27194       0   27196   27197   27198   27197   27198   27198       0   27200
   27201   27202   27201   27202   27202       0   27204   27205   27206   27205
   27206   27206       0   27208   27209   27210   27209   27210   27210       0
   27212   27213   27214   27213   27214   27214       0   27216   27217   27218
   27217   27218   27218       0   27220   27221   27222   27221   27222   27222
       0   27224   27225   27226   27225   27226   27226       0   27228   27229
   27230   27229   27230   27230       0   27232   27233   27234   27233   27234
   27234       0   27236   27237   27238   27237   27238   27238       0   27240
   27241   27242   27241   27242   27242       0   27244   27245   27246   27245
   27246   27246       0   27248   27249   27250   27249   27250   27250       0
   27252   27253   27254   27253   27254   27254       0   27256   27257   27258
   27257   27258   27258       0   27260   27261   27262   27261   27262   27262
       0   27264   27265   27266   27265   27266   27266       0   27268   27269
   27270   27269   27270   27270       0   27272   27273   27274   27273   27274
   27274       0   27276   27277   27278   27277   27278   27278       0   27280
   27281   27282   27281   27282   27282       0   27284   27285   27286   27285
   27286   27286       0   27288   27289   27290   27289   27290   27290       0
   27292   27293   27294   27293   27294   27294       0   27296   27297   27298
   27297   27298   27298       0   27300   27301   27302   27301   27302   27302
       0   27304   27305   27306   27305   27306   27306       0   27308   27309
   27310   27309   27310   27310       0   27312   27313   27314   27313   27314
   27314       0   27316   27317   27318   27317   27318   27318       0   27320
   27321   27322   27321   27322   27322       0   27324   27325   27326   27325
   27326   27326       0   27328   27329   27330   27329   27330   27330       0
   27332   27333   27334   27333   27334   27334       0   27336   27337   27338
   27337   27338   27338       0   27340   27341   27342   27341   27342   27342
       0   27344   27345   27346   27345   27346   27346       0   27348   27349
   27350   27349   27350   27350       0   27352   27353   27354   27353   27354
   27354       0   27356   27357   27358   27357   27358   27358       0   27360
   27361   27362   27361   27362   27362       0   27364   27365   27366   27365
   27366   27366       0   27368   27369   27370   27369   27370   27370       0
   27372   27373   27374   27373   27374   27374       0   27376   27377   27378
   27377   27378   27378       0   27380   27381   27382   27381   27382   27382
       0   27384   27385   27386   27385   27386   27386       0   27388   27389
   27390   27389   27390   27390       0   27392   27393   27394   27393   27394
   27394       0   27396   27397   27398   27397   27398   27398       0   27400
   27401   27402   27401   27402   27402       0   27404   27405   27406   27405
   27406   27406       0   27408   27409   27410   27409   27410   27410       0
   27412   27413   27414   27413   27414   27414       0   27416   27417   27418
   27417   27418   27418       0   27420   27421   27422   27421   27422   27422
       0   27424   27425   27426   27425   27426   27426       0   27428   27429
   27430   27429   27430   27430       0   27432   27433   27434   27433   27434
   27434       0   27436   27437   27438   27437   27438   27438       0   27440
   27441   27442   27441   27442   27442       0   27444   27445   27446   27445
   27446   27446       0   27448   27449   27450   27449   27450   27450       0
   27452   27453   27454   27453   27454   27454       0   27456   27457   27458
   27457   27458   27458       0   27460   27461   27462   27461   27462   27462
       0   27464   27465   27466   27465   27466   27466       0   27468   27469
   27470   27469   27470   27470       0   27472   27473   27474   27473   27474
   27474       0   27476   27477   27478   27477   27478   27478       0   27480
   27481   27482   27481   27482   27482       0   27484   27485   27486   27485
   27486   27486       0   27488   27489   27490   27489   27490   27490       0
   27492   27493   27494   27493   27494   27494       0   27496   27497   27498
   27497   27498   27498       0   27500   27501   27502   27501   27502   27502
       0   27504   27505   27506   27505   27506   27506       0   27508   27509
   27510   27509   27510   27510       0   27512   27513   27514   27513   27514
   27514       0   27516   27517   27518   27517   27518   27518       0   27520
   27521   27522   27521   27522   27522       0   27524   27525   27526   27525
   27526   27526       0   27528   27529   27530   27529   27530   27530       0
   27532   27533   27534   27533   27534   27534       0   27536   27537   27538
   27537   27538   27538       0   27540   27541   27542   27541   27542   27542
       0   27544   27545   27546   27545   27546   27546       0   27548   27549
   27550   27549   27550   27550       0   27552   27553   27554   27553   27554
   27554       0   27556   27557   27558   27557   27558   27558       0   27560
   27561   27562   27561   27562   27562       0   27564   27565   27566   27565
   27566   27566       0   27568   27569   27570   27569   27570   27570       0
   27572   27573   27574   27573   27574   27574       0   27576   27577   27578
   27577   27578   27578       0   27580   27581   27582   27581   27582   27582
       0   27584   27585   27586   27585   27586   27586       0   27588   27589
   27590   27589   27590   27590       0   27592   27593   27594   27593   27594
   27594       0   27596   27597   27598   27597   27598   27598       0   27600
   27601   27602   27601   27602   27602       0   27604   27605   27606   27605
   27606   27606       0   27608   27609   27610   27609   27610   27610       0
   27612   27613   27614   27613   27614   27614       0   27616   27617   27618
   27617   27618   27618       0   27620   27621   27622   27621   27622   27622
       0   27624   27625   27626   27625   27626   27626       0   27628   27629
   27630   27629   27630   27630       0   27632   27633   27634   27633   27634
   27634       0   27636   27637   27638   27637   27638   27638       0   27640
   27641   27642   27641   27642   27642       0   27644   27645   27646   27645
   27646   27646       0   27648   27649   27650   27649   27650   27650       0
   27652   27653   27654   27653   27654   27654       0   27656   27657   27658
   27657   27658   27658       0   27660   27661   27662   27661   27662   27662
       0   27664   27665   27666   27665   27666   27666       0   27668   27669
   27670   27669   27670   27670       0   27672   27673   27674   27673   27674
   27674       0   27676   27677   27678   27677   27678   27678       0   27680
   27681   27682   27681   27682   27682       0   27684   27685   27686   27685
   27686   27686       0   27688   27689   27690   27689   27690   27690       0
   27692   27693   27694   27693   27694   27694       0   27696   27697   27698
   27697   27698   27698       0   27700   27701   27702   27701   27702   27702
       0   27704   27705   27706   27705   27706   27706       0   27708   27709
   27710   27709   27710   27710       0   27712   27713   27714   27713   27714
   27714       0   27716   27717   27718   27717   27718   27718       0   27720
   27721   27722   27721   27722   27722       0   27724   27725   27726   27725
   27726   27726       0   27728   27729   27730   27729   27730   27730       0
   27732   27733   27734   27733   27734   27734       0   27736   27737   27738
   27737   27738   27738       0   27740   27741   27742   27741   27742   27742
       0   27744   27745   27746   27745   27746   27746       0   27748   27749
   27750   27749   27750   27750       0   27752   27753   27754   27753   27754
   27754       0   27756   27757   27758   27757   27758   27758       0   27760
   27761   27762   27761   27762   27762       0   27764   27765   27766   27765
   27766   27766       0   27768   27769   27770   27769   27770   27770       0
   27772   27773   27774   27773   27774   27774       0   27776   27777   27778
   27777   27778   27778       0   27780   27781   27782   27781   27782   27782
       0   27784   27785   27786   27785   27786   27786       0   27788   27789
   27790   27789   27790   27790       0   27792   27793   27794   27793   27794
   27794       0   27796   27797   27798   27797   27798   27798       0   27800
   27801   27802   27801   27802   27802       0   27804   27805   27806   27805
   27806   27806       0   27808   27809   27810   27809   27810   27810       0
   27812   27813   27814   27813   27814   27814       0   27816   27817   27818
   27817   27818   27818       0   27820   27821   27822   27821   27822   27822
       0   27824   27825   27826   27825   27826   27826       0   27828   27829
   27830   27829   27830   27830       0   27832   27833   27834   27833   27834
   27834       0   27836   27837   27838   27837   27838   27838       0   27840
   27841   27842   27841   27842   27842       0   27844   27845   27846   27845
   27846   27846       0   27848   27849   27850   27849   27850   27850       0
   27852   27853   27854   27853   27854   27854       0   27856   27857   27858
   27857   27858   27858       0   27860   27861   27862   27861   27862   27862
       0   27864   27865   27866   27865   27866   27866       0   27868   27869
   27870   27869   27870   27870       0   27872   27873   27874   27873   27874
   27874       0   27876   27877   27878   27877   27878   27878       0   27880
   27881   27882   27881   27882   27882       0   27884   27885   27886   27885
   27886   27886       0   27888   27889   27890   27889   27890   27890       0
   27892   27893   27894   27893   27894   27894       0   27896   27897   27898
   27897   27898   27898       0   27900   27901   27902   27901   27902   27902
       0   27904   27905   27906   27905   27906   27906       0   27908   27909
   27910   27909   27910   27910       0   27912   27913   27914   27913   27914
   27914       0   27916   27917   27918   27917   27918   27918       0   27920
   27921   27922   27921   27922   27922       0   27924   27925   27926   27925
   27926   27926       0   27928   27929   27930   27929   27930   27930       0
   27932   27933   27934   27933   27934   27934       0   27936   27937   27938
   27937   27938   27938       0   27940   27941   27942   27941   27942   27942
       0   27944   27945   27946   27945   27946   27946       0   27948   27949
   27950   27949   27950   27950       0   27952   27953   27954   27953   27954
   27954       0   27956   27957   27958   27957   27958   27958       0   27960
   27961   27962   27961   27962   27962       0   27964   27965   27966   27965
   27966   27966       0   27968   27969   27970   27969   27970   27970       0
   27972   27973   27974   27973   27974   27974       0   27976   27977   27978
   27977   27978   27978       0   27980   27981   27982   27981   27982   27982
       0   27984   27985   27986   27985   27986   27986       0   27988   27989
   27990   27989   27990   27990       0   27992   27993   27994   27993   27994
   27994       0   27996   27997   27998   27997   27998   27998       0   28000
   28001   28002   28001   28002   28002       0   28004   28005   28006   28005
   28006   28006       0   28008   28009   28010   28009   28010   28010       0
   28012   28013   28014   28013   28014   28014       0   28016   28017   28018
   28017   28018   28018       0   28020   28021   28022   28021   28022   28022
       0   28024   28025   28026   28025   28026   28026       0   28028   28029
   28030   28029   28030   28030       0   28032   28033   28034   28033   28034
   28034       0   28036   28037   28038   28037   28038   28038       0   28040
   28041   28042   28041   28042   28042       0   28044   28045   28046   28045
   28046   28046       0   28048   28049   28050   28049   28050   28050       0
   28052   28053   28054   28053   28054   28054       0   28056   28057   28058
   28057   28058   28058       0   28060   28061   28062   28061   28062   28062
       0   28064   28065   28066   28065   28066   28066       0   28068   28069
   28070   28069   28070   28070       0   28072   28073   28074   28073   28074
   28074       0   28076   28077   28078   28077   28078   28078       0   28080
   28081   28082   28081   28082   28082       0   28084   28085   28086   28085
   28086   28086       0   28088   28089   28090   28089   28090   28090       0
   28092   28093   28094   28093   28094   28094       0   28096   28097   28098
   28097   28098   28098       0   28100   28101   28102   28101   28102   28102
       0   28104   28105   28106   28105   28106   28106       0   28108   28109
   28110   28109   28110   28110       0   28112   28113   28114   28113   28114
   28114       0   28116   28117   28118   28117   28118   28118       0   28120
   28121   28122   28121   28122   28122       0   28124   28125   28126   28125
   28126   28126       0   28128   28129   28130   28129   28130   28130       0
   28132   28133   28134   28133   28134   28134       0   28136   28137   28138
   28137   28138   28138       0   28140   28141   28142   28141   28142   28142
       0   28144   28145   28146   28145   28146   28146       0   28148   28149
   28150   28149   28150   28150       0   28152   28153   28154   28153   28154
   28154       0   28156   28157   28158   28157   28158   28158       0   28160
   28161   28162   28161   28162   28162       0   28164   28165   28166   28165
   28166   28166       0   28168   28169   28170   28169   28170   28170       0
   28172   28173   28174   28173   28174   28174       0   28176   28177   28178
   28177   28178   28178       0   28180   28181   28182   28181   28182   28182
       0   28184   28185   28186   28185   28186   28186       0   28188   28189
   28190   28189   28190   28190       0   28192   28193   28194   28193   28194
   28194       0   28196   28197   28198   28197   28198   28198       0   28200
   28201   28202   28201   28202   28202       0   28204   28205   28206   28205
   28206   28206       0   28208   28209   28210   28209   28210   28210       0
   28212   28213   28214   28213   28214   28214       0   28216   28217   28218
   28217   28218   28218       0   28220   28221   28222   28221   28222   28222
       0   28224   28225   28226   28225   28226   28226       0   28228   28229
   28230   28229   28230   28230       0   28232   28233   28234   28233   28234
   28234       0   28236   28237   28238   28237   28238   28238       0   28240
   28241   28242   28241   28242   28242       0   28244   28245   28246   28245
   28246   28246       0   28248   28249   28250   28249   28250   28250       0
   28252   28253   28254   28253   28254   28254       0   28256   28257   28258
   28257   28258   28258       0   28260   28261   28262   28261   28262   28262
       0   28264   28265   28266   28265   28266   28266       0   28268   28269
   28270   28269   28270   28270       0   28272   28273   28274   28273   28274
   28274       0   28276   28277   28278   28277   28278   28278       0   28280
   28281   28282   28281   28282   28282       0   28284   28285   28286   28285
   28286   28286       0   28288   28289   28290   28289   28290   28290       0
   28292   28293   28294   28293   28294   28294       0   28296   28297   28298
   28297   28298   28298       0   28300   28301   28302   28301   28302   28302
       0   28304   28305   28306   28305   28306   28306       0   28308   28309
   28310   28309   28310   28310       0   28312   28313   28314   28313   28314
   28314       0   28316   28317   28318   28317   28318   28318       0   28320
   28321   28322   28321   28322   28322       0   28324   28325   28326   28325
   28326   28326       0   28328   28329   28330   28329   28330   28330       0
   28332   28333   28334   28333   28334   28334       0   28336   28337   28338
   28337   28338   28338       0   28340   28341   28342   28341   28342   28342
       0   28344   28345   28346   28345   28346   28346       0   28348   28349
   28350   28349   28350   28350       0   28352   28353   28354   28353   28354
   28354       0   28356   28357   28358   28357   28358   28358       0   28360
   28361   28362   28361   28362   28362       0   28364   28365   28366   28365
   28366   28366       0   28368   28369   28370   28369   28370   28370       0
   28372   28373   28374   28373   28374   28374       0   28376   28377   28378
   28377   28378   28378       0   28380   28381   28382   28381   28382   28382
       0   28384   28385   28386   28385   28386   28386       0   28388   28389
   28390   28389   28390   28390       0   28392   28393   28394   28393   28394
   28394       0   28396   28397   28398   28397   28398   28398       0   28400
   28401   28402   28401   28402   28402       0   28404   28405   28406   28405
   28406   28406       0   28408   28409   28410   28409   28410   28410       0
   28412   28413   28414   28413   28414   28414       0   28416   28417   28418
   28417   28418   28418       0   28420   28421   28422   28421   28422   28422
       0   28424   28425   28426   28425   28426   28426       0   28428   28429
   28430   28429   28430   28430       0   28432   28433   28434   28433   28434
   28434       0   28436   28437   28438   28437   28438   28438       0   28440
   28441   28442   28441   28442   28442       0   28444   28445   28446   28445
   28446   28446       0   28448   28449   28450   28449   28450   28450       0
   28452   28453   28454   28453   28454   28454       0   28456   28457   28458
   28457   28458   28458       0   28460   28461   28462   28461   28462   28462
       0   28464   28465   28466   28465   28466   28466       0   28468   28469
   28470   28469   28470   28470       0   28472   28473   28474   28473   28474
   28474       0   28476   28477   28478   28477   28478   28478       0   28480
   28481   28482   28481   28482   28482       0   28484   28485   28486   28485
   28486   28486       0   28488   28489   28490   28489   28490   28490       0
   28492   28493   28494   28493   28494   28494       0   28496   28497   28498
   28497   28498   28498       0   28500   28501   28502   28501   28502   28502
       0   28504   28505   28506   28505   28506   28506       0   28508   28509
   28510   28509   28510   28510       0   28512   28513   28514   28513   28514
   28514       0   28516   28517   28518   28517   28518   28518       0   28520
   28521   28522   28521   28522   28522       0   28524   28525   28526   28525
   28526   28526       0   28528   28529   28530   28529   28530   28530       0
   28532   28533   28534   28533   28534   28534       0   28536   28537   28538
   28537   28538   28538       0   28540   28541   28542   28541   28542   28542
       0   28544   28545   28546   28545   28546   28546       0   28548   28549
   28550   28549   28550   28550       0   28552   28553   28554   28553   28554
   28554       0   28556   28557   28558   28557   28558   28558       0   28560
   28561   28562   28561   28562   28562       0   28564   28565   28566   28565
   28566   28566       0   28568   28569   28570   28569   28570   28570       0
   28572   28573   28574   28573   28574   28574       0   28576   28577   28578
   28577   28578   28578       0   28580   28581   28582   28581   28582   28582
       0   28584   28585   28586   28585   28586   28586       0   28588   28589
   28590   28589   28590   28590       0   28592   28593   28594   28593   28594
   28594       0   28596   28597   28598   28597   28598   28598       0   28600
   28601   28602   28601   28602   28602       0   28604   28605   28606   28605
   28606   28606       0   28608   28609   28610   28609   28610   28610       0
   28612   28613   28614   28613   28614   28614       0   28616   28617   28618
   28617   28618   28618       0   28620   28621   28622   28621   28622   28622
       0   28624   28625   28626   28625   28626   28626       0   28628   28629
   28630   28629   28630   28630       0   28632   28633   28634   28633   28634
   28634       0   28636   28637   28638   28637   28638   28638       0   28640
   28641   28642   28641   28642   28642       0   28644   28645   28646   28645
   28646   28646       0   28648   28649   28650   28649   28650   28650       0
   28652   28653   28654   28653   28654   28654       0   28656   28657   28658
   28657   28658   28658       0   28660   28661   28662   28661   28662   28662
       0   28664   28665   28666   28665   28666   28666       0   28668   28669
   28670   28669   28670   28670       0   28672   28673   28674   28673   28674
   28674       0   28676   28677   28678   28677   28678   28678       0   28680
   28681   28682   28681   28682   28682       0   28684   28685   28686   28685
   28686   28686       0   28688   28689   28690   28689   28690   28690       0
   28692   28693   28694   28693   28694   28694       0   28696   28697   28698
   28697   28698   28698       0   28700   28701   28702   28701   28702   28702
       0   28704   28705   28706   28705   28706   28706       0   28708   28709
   28710   28709   28710   28710       0   28712   28713   28714   28713   28714
   28714       0   28716   28717   28718   28717   28718   28718       0   28720
   28721   28722   28721   28722   28722       0   28724   28725   28726   28725
   28726   28726       0   28728   28729   28730   28729   28730   28730       0
   28732   28733   28734   28733   28734   28734       0   28736   28737   28738
   28737   28738   28738       0   28740   28741   28742   28741   28742   28742
       0   28744   28745   28746   28745   28746   28746       0   28748   28749
   28750   28749   28750   28750       0   28752   28753   28754   28753   28754
   28754       0   28756   28757   28758   28757   28758   28758       0   28760
   28761   28762   28761   28762   28762       0   28764   28765   28766   28765
   28766   28766       0   28768   28769   28770   28769   28770   28770       0
   28772   28773   28774   28773   28774   28774       0   28776   28777   28778
   28777   28778   28778       0   28780   28781   28782   28781   28782   28782
       0   28784   28785   28786   28785   28786   28786       0   28788   28789
   28790   28789   28790   28790       0   28792   28793   28794   28793   28794
   28794       0   28796   28797   28798   28797   28798   28798       0   28800
   28801   28802   28801   28802   28802       0   28804   28805   28806   28805
   28806   28806       0   28808   28809   28810   28809   28810   28810       0
   28812   28813   28814   28813   28814   28814       0   28816   28817   28818
   28817   28818   28818       0   28820   28821   28822   28821   28822   28822
       0   28824   28825   28826   28825   28826   28826       0   28828   28829
   28830   28829   28830   28830       0   28832   28833   28834   28833   28834
   28834       0   28836   28837   28838   28837   28838   28838       0   28840
   28841   28842   28841   28842   28842       0   28844   28845   28846   28845
   28846   28846       0   28848   28849   28850   28849   28850   28850       0
   28852   28853   28854   28853   28854   28854       0   28856   28857   28858
   28857   28858   28858       0   28860   28861   28862   28861   28862   28862
       0   28864   28865   28866   28865   28866   28866       0   28868   28869
   28870   28869   28870   28870       0   28872   28873   28874   28873   28874
   28874       0   28876   28877   28878   28877   28878   28878       0   28880
   28881   28882   28881   28882   28882       0   28884   28885   28886   28885
   28886   28886       0   28888   28889   28890   28889   28890   28890       0
   28892   28893   28894   28893   28894   28894       0   28896   28897   28898
   28897   28898   28898       0   28900   28901   28902   28901   28902   28902
       0   28904   28905   28906   28905   28906   28906       0   28908   28909
   28910   28909   28910   28910       0   28912   28913   28914   28913   28914
   28914       0   28916   28917   28918   28917   28918   28918       0   28920
   28921   28922   28921   28922   28922       0   28924   28925   28926   28925
   28926   28926       0   28928   28929   28930   28929   28930   28930       0
   28932   28933   28934   28933   28934   28934       0   28936   28937   28938
   28937   28938   28938       0   28940   28941   28942   28941   28942   28942
       0   28944   28945   28946   28945   28946   28946       0   28948   28949
   28950   28949   28950   28950       0   28952   28953   28954   28953   28954
   28954       0   28956   28957   28958   28957   28958   28958       0   28960
   28961   28962   28961   28962   28962       0   28964   28965   28966   28965
   28966   28966       0   28968   28969   28970   28969   28970   28970       0
   28972   28973   28974   28973   28974   28974       0   28976   28977   28978
   28977   28978   28978       0   28980   28981   28982   28981   28982   28982
       0   28984   28985   28986   28985   28986   28986       0   28988   28989
   28990   28989   28990   28990       0   28992   28993   28994   28993   28994
   28994       0   28996   28997   28998   28997   28998   28998       0   29000
   29001   29002   29001   29002   29002       0   29004   29005   29006   29005
   29006   29006       0   29008   29009   29010   29009   29010   29010       0
   29012   29013   29014   29013   29014   29014       0   29016   29017   29018
   29017   29018   29018       0   29020   29021   29022   29021   29022   29022
       0   29024   29025   29026   29025   29026   29026       0   29028   29029
   29030   29029   29030   29030       0   29032   29033   29034   29033   29034
   29034       0   29036   29037   29038   29037   29038   29038       0   29040
   29041   29042   29041   29042   29042       0   29044   29045   29046   29045
   29046   29046       0   29048   29049   29050   29049   29050   29050       0
   29052   29053   29054   29053   29054   29054       0   29056   29057   29058
   29057   29058   29058       0   29060   29061   29062   29061   29062   29062
       0   29064   29065   29066   29065   29066   29066       0   29068   29069
   29070   29069   29070   29070       0   29072   29073   29074   29073   29074
   29074       0   29076   29077   29078   29077   29078   29078       0   29080
   29081   29082   29081   29082   29082       0   29084   29085   29086   29085
   29086   29086       0   29088   29089   29090   29089   29090   29090       0
   29092   29093   29094   29093   29094   29094       0   29096   29097   29098
   29097   29098   29098       0   29100   29101   29102   29101   29102   29102
       0   29104   29105   29106   29105   29106   29106       0   29108   29109
   29110   29109   29110   29110       0   29112   29113   29114   29113   29114
   29114       0   29116   29117   29118   29117   29118   29118       0   29120
   29121   29122   29121   29122   29122       0   29124   29125   29126   29125
   29126   29126       0   29128   29129   29130   29129   29130   29130       0
   29132   29133   29134   29133   29134   29134       0   29136   29137   29138
   29137   29138   29138       0   29140   29141   29142   29141   29142   29142
       0   29144   29145   29146   29145   29146   29146       0   29148   29149
   29150   29149   29150   29150       0   29152   29153   29154   29153   29154
   29154       0   29156   29157   29158   29157   29158   29158       0   29160
   29161   29162   29161   29162   29162       0   29164   29165   29166   29165
   29166   29166       0   29168   29169   29170   29169   29170   29170       0
   29172   29173   29174   29173   29174   29174       0   29176   29177   29178
   29177   29178   29178       0   29180   29181   29182   29181   29182   29182
       0   29184   29185   29186   29185   29186   29186       0   29188   29189
   29190   29189   29190   29190       0   29192   29193   29194   29193   29194
   29194       0   29196   29197   29198   29197   29198   29198       0   29200
   29201   29202   29201   29202   29202       0   29204   29205   29206   29205
   29206   29206       0   29208   29209   29210   29209   29210   29210       0
   29212   29213   29214   29213   29214   29214       0   29216   29217   29218
   29217   29218   29218       0   29220   29221   29222   29221   29222   29222
       0   29224   29225   29226   29225   29226   29226       0   29228   29229
   29230   29229   29230   29230       0   29232   29233   29234   29233   29234
   29234       0   29236   29237   29238   29237   29238   29238       0   29240
   29241   29242   29241   29242   29242       0   29244   29245   29246   29245
   29246   29246       0   29248   29249   29250   29249   29250   29250       0
   29252   29253   29254   29253   29254   29254       0   29256   29257   29258
   29257   29258   29258       0   29260   29261   29262   29261   29262   29262
       0   29264   29265   29266   29265   29266   29266       0   29268   29269
   29270   29269   29270   29270       0   29272   29273   29274   29273   29274
   29274       0   29276   29277   29278   29277   29278   29278       0   29280
   29281   29282   29281   29282   29282       0   29284   29285   29286   29285
   29286   29286       0   29288   29289   29290   29289   29290   29290       0
   29292   29293   29294   29293   29294   29294       0   29296   29297   29298
   29297   29298   29298       0   29300   29301   29302   29301   29302   29302
       0   29304   29305   29306   29305   29306   29306       0   29308   29309
   29310   29309   29310   29310       0   29312   29313   29314   29313   29314
   29314       0   29316   29317   29318   29317   29318   29318       0   29320
   29321   29322   29321   29322   29322       0   29324   29325   29326   29325
   29326   29326       0   29328   29329   29330   29329   29330   29330       0
   29332   29333   29334   29333   29334   29334       0   29336   29337   29338
   29337   29338   29338       0   29340   29341   29342   29341   29342   29342
       0   29344   29345   29346   29345   29346   29346       0   29348   29349
   29350   29349   29350   29350       0   29352   29353   29354   29353   29354
   29354       0   29356   29357   29358   29357   29358   29358       0   29360
   29361   29362   29361   29362   29362       0   29364   29365   29366   29365
   29366   29366       0   29368   29369   29370   29369   29370   29370       0
   29372   29373   29374   29373   29374   29374       0   29376   29377   29378
   29377   29378   29378       0   29380   29381   29382   29381   29382   29382
       0   29384   29385   29386   29385   29386   29386       0   29388   29389
   29390   29389   29390   29390       0   29392   29393   29394   29393   29394
   29394       0   29396   29397   29398   29397   29398   29398       0   29400
   29401   29402   29401   29402   29402       0   29404   29405   29406   29405
   29406   29406       0   29408   29409   29410   29409   29410   29410       0
   29412   29413   29414   29413   29414   29414       0   29416   29417   29418
   29417   29418   29418       0   29420   29421   29422   29421   29422   29422
       0   29424   29425   29426   29425   29426   29426       0   29428   29429
   29430   29429   29430   29430       0   29432   29433   29434   29433   29434
   29434       0   29436   29437   29438   29437   29438   29438       0   29440
   29441   29442   29441   29442   29442       0   29444   29445   29446   29445
   29446   29446       0   29448   29449   29450   29449   29450   29450       0
   29452   29453   29454   29453   29454   29454       0   29456   29457   29458
   29457   29458   29458       0   29460   29461   29462   29461   29462   29462
       0   29464   29465   29466   29465   29466   29466       0   29468   29469
   29470   29469   29470   29470       0   29472   29473   29474   29473   29474
   29474       0   29476   29477   29478   29477   29478   29478       0   29480
   29481   29482   29481   29482   29482       0   29484   29485   29486   29485
   29486   29486       0   29488   29489   29490   29489   29490   29490       0
   29492   29493   29494   29493   29494   29494       0   29496   29497   29498
   29497   29498   29498       0   29500   29501   29502   29501   29502   29502
       0   29504   29505   29506   29505   29506   29506       0   29508   29509
   29510   29509   29510   29510       0   29512   29513   29514   29513   29514
   29514       0   29516   29517   29518   29517   29518   29518       0   29520
   29521   29522   29521   29522   29522       0   29524   29525   29526   29525
   29526   29526       0   29528   29529   29530   29529   29530   29530       0
   29532   29533   29534   29533   29534   29534       0   29536   29537   29538
   29537   29538   29538       0   29540   29541   29542   29541   29542   29542
       0   29544   29545   29546   29545   29546   29546       0   29548   29549
   29550   29549   29550   29550       0   29552   29553   29554   29553   29554
   29554       0   29556   29557   29558   29557   29558   29558       0   29560
   29561   29562   29561   29562   29562       0   29564   29565   29566   29565
   29566   29566       0   29568   29569   29570   29569   29570   29570       0
   29572   29573   29574   29573   29574   29574       0   29576   29577   29578
   29577   29578   29578       0   29580   29581   29582   29581   29582   29582
       0   29584   29585   29586   29585   29586   29586       0   29588   29589
   29590   29589   29590   29590       0   29592   29593   29594   29593   29594
   29594       0   29596   29597   29598   29597   29598   29598       0   29600
   29601   29602   29601   29602   29602       0   29604   29605   29606   29605
   29606   29606       0   29608   29609   29610   29609   29610   29610       0
   29612   29613   29614   29613   29614   29614       0   29616   29617   29618
   29617   29618   29618       0   29620   29621   29622   29621   29622   29622
       0   29624   29625   29626   29625   29626   29626       0   29628   29629
   29630   29629   29630   29630       0   29632   29633   29634   29633   29634
   29634       0   29636   29637   29638   29637   29638   29638       0   29640
   29641   29642   29641   29642   29642       0   29644   29645   29646   29645
   29646   29646       0   29648   29649   29650   29649   29650   29650       0
   29652   29653   29654   29653   29654   29654       0   29656   29657   29658
   29657   29658   29658       0   29660   29661   29662   29661   29662   29662
       0   29664   29665   29666   29665   29666   29666       0   29668   29669
   29670   29669   29670   29670       0   29672   29673   29674   29673   29674
   29674       0   29676   29677   29678   29677   29678   29678       0   29680
   29681   29682   29681   29682   29682       0   29684   29685   29686   29685
   29686   29686       0   29688   29689   29690   29689   29690   29690       0
   29692   29693   29694   29693   29694   29694       0   29696   29697   29698
   29697   29698   29698       0   29700   29701   29702   29701   29702   29702
       0   29704   29705   29706   29705   29706   29706       0   29708   29709
   29710   29709   29710   29710       0   29712   29713   29714   29713   29714
   29714       0   29716   29717   29718   29717   29718   29718       0   29720
   29721   29722   29721   29722   29722       0   29724   29725   29726   29725
   29726   29726       0   29728   29729   29730   29729   29730   29730       0
   29732   29733   29734   29733   29734   29734       0   29736   29737   29738
   29737   29738   29738       0   29740   29741   29742   29741   29742   29742
       0   29744   29745   29746   29745   29746   29746       0   29748   29749
   29750   29749   29750   29750       0   29752   29753   29754   29753   29754
   29754       0   29756   29757   29758   29757   29758   29758       0   29760
   29761   29762   29761   29762   29762       0   29764   29765   29766   29765
   29766   29766       0   29768   29769   29770   29769   29770   29770       0
   29772   29773   29774   29773   29774   29774       0   29776   29777   29778
   29777   29778   29778       0   29780   29781   29782   29781   29782   29782
       0   29784   29785   29786   29785   29786   29786       0   29788   29789
   29790   29789   29790   29790       0   29792   29793   29794   29793   29794
   29794       0   29796   29797   29798   29797   29798   29798       0   29800
   29801   29802   29801   29802   29802       0   29804   29805   29806   29805
   29806   29806       0   29808   29809   29810   29809   29810   29810       0
   29812   29813   29814   29813   29814   29814       0   29816   29817   29818
   29817   29818   29818       0   29820   29821   29822   29821   29822   29822
       0   29824   29825   29826   29825   29826   29826       0   29828   29829
   29830   29829   29830   29830       0   29832   29833   29834   29833   29834
   29834       0   29836   29837   29838   29837   29838   29838       0   29840
   29841   29842   29841   29842   29842       0   29844   29845   29846   29845
   29846   29846       0   29848   29849   29850   29849   29850   29850       0
   29852   29853   29854   29853   29854   29854       0   29856   29857   29858
   29857   29858   29858       0   29860   29861   29862   29861   29862   29862
       0   29864   29865   29866   29865   29866   29866       0   29868   29869
   29870   29869   29870   29870       0   29872   29873   29874   29873   29874
   29874       0   29876   29877   29878   29877   29878   29878       0   29880
   29881   29882   29881   29882   29882       0   29884   29885   29886   29885
   29886   29886       0   29888   29889   29890   29889   29890   29890       0
   29892   29893   29894   29893   29894   29894       0   29896   29897   29898
   29897   29898   29898       0   29900   29901   29902   29901   29902   29902
       0   29904   29905   29906   29905   29906   29906       0   29908   29909
   29910   29909   29910   29910       0   29912   29913   29914   29913   29914
   29914       0   29916   29917   29918   29917   29918   29918       0   29920
   29921   29922   29921   29922   29922       0   29924   29925   29926   29925
   29926   29926       0   29928   29929   29930   29929   29930   29930       0
   29932   29933   29934   29933   29934   29934       0   29936   29937   29938
   29937   29938   29938       0   29940   29941   29942   29941   29942   29942
       0   29944   29945   29946   29945   29946   29946       0   29948   29949
   29950   29949   29950   29950       0   29952   29953   29954   29953   29954
   29954       0   29956   29957   29958   29957   29958   29958       0   29960
   29961   29962   29961   29962   29962       0   29964   29965   29966   29965
   29966   29966       0   29968   29969   29970   29969   29970   29970       0
   29972   29973   29974   29973   29974   29974       0   29976   29977   29978
   29977   29978   29978       0   29980   29981   29982   29981   29982   29982
       0   29984   29985   29986   29985   29986   29986       0   29988   29989
   29990   29989   29990   29990       0   29992   29993   29994   29993   29994
   29994       0   29996   29997   29998   29997   29998   29998       0   30000
   30001   30002   30001   30002   30002       0   30004   30005   30006   30005
   30006   30006       0   30008   30009   30010   30009   30010   30010       0
   30012   30013   30014   30013   30014   30014       0   30016   30017   30018
   30017   30018   30018       0   30020   30021   30022   30021   30022   30022
       0   30024   30025   30026   30025   30026   30026       0   30028   30029
   30030   30029   30030   30030       0   30032   30033   30034   30033   30034
   30034       0   30036   30037   30038   30037   30038   30038       0   30040
   30041   30042   30041   30042   30042       0   30044   30045   30046   30045
   30046   30046       0   30048   30049   30050   30049   30050   30050       0
   30052   30053   30054   30053   30054   30054       0   30056   30057   30058
   30057   30058   30058       0   30060   30061   30062   30061   30062   30062
       0   30064   30065   30066   30065   30066   30066       0   30068   30069
   30070   30069   30070   30070       0   30072   30073   30074   30073   30074
   30074       0   30076   30077   30078   30077   30078   30078       0   30080
   30081   30082   30081   30082   30082       0   30084   30085   30086   30085
   30086   30086       0   30088   30089   30090   30089   30090   30090       0
   30092   30093   30094   30093   30094   30094       0   30096   30097   30098
   30097   30098   30098       0   30100   30101   30102   30101   30102   30102
       0   30104   30105   30106   30105   30106   30106       0   30108   30109
   30110   30109   30110   30110       0   30112   30113   30114   30113   30114
   30114       0   30116   30117   30118   30117   30118   30118       0   30120
   30121   30122   30121   30122   30122       0   30124   30125   30126   30125
   30126   30126       0   30128   30129   30130   30129   30130   30130       0
   30132   30133   30134   30133   30134   30134       0   30136   30137   30138
   30137   30138   30138       0   30140   30141   30142   30141   30142   30142
       0   30144   30145   30146   30145   30146   30146       0   30148   30149
   30150   30149   30150   30150       0   30152   30153   30154   30153   30154
   30154       0   30156   30157   30158   30157   30158   30158       0   30160
   30161   30162   30161   30162   30162       0   30164   30165   30166   30165
   30166   30166       0   30168   30169   30170   30169   30170   30170       0
   30172   30173   30174   30173   30174   30174       0   30176   30177   30178
   30177   30178   30178       0   30180   30181   30182   30181   30182   30182
       0   30184   30185   30186   30185   30186   30186       0   30188   30189
   30190   30189   30190   30190       0   30192   30193   30194   30193   30194
   30194       0   30196   30197   30198   30197   30198   30198       0   30200
   30201   30202   30201   30202   30202       0   30204   30205   30206   30205
   30206   30206       0   30208   30209   30210   30209   30210   30210       0
   30212   30213   30214   30213   30214   30214       0   30216   30217   30218
   30217   30218   30218       0   30220   30221   30222   30221   30222   30222
       0   30224   30225   30226   30225   30226   30226       0   30228   30229
   30230   30229   30230   30230       0   30232   30233   30234   30233   30234
   30234       0   30236   30237   30238   30237   30238   30238       0   30240
   30241   30242   30241   30242   30242       0   30244   30245   30246   30245
   30246   30246       0   30248   30249   30250   30249   30250   30250       0
   30252   30253   30254   30253   30254   30254       0   30256   30257   30258
   30257   30258   30258       0   30260   30261   30262   30261   30262   30262
       0   30264   30265   30266   30265   30266   30266       0   30268   30269
   30270   30269   30270   30270       0   30272   30273   30274   30273   30274
   30274       0   30276   30277   30278   30277   30278   30278       0   30280
   30281   30282   30281   30282   30282       0   30284   30285   30286   30285
   30286   30286       0   30288   30289   30290   30289   30290   30290       0
   30292   30293   30294   30293   30294   30294       0   30296   30297   30298
   30297   30298   30298       0   30300   30301   30302   30301   30302   30302
       0   30304   30305   30306   30305   30306   30306       0   30308   30309
   30310   30309   30310   30310       0   30312   30313   30314   30313   30314
   30314       0   30316   30317   30318   30317   30318   30318       0   30320
   30321   30322   30321   30322   30322       0   30324   30325   30326   30325
   30326   30326       0   30328   30329   30330   30329   30330   30330       0
   30332   30333   30334   30333   30334   30334       0   30336   30337   30338
   30337   30338   30338       0   30340   30341   30342   30341   30342   30342
       0   30344   30345   30346   30345   30346   30346       0   30348   30349
   30350   30349   30350   30350       0   30352   30353   30354   30353   30354
   30354       0   30356   30357   30358   30357   30358   30358       0   30360
   30361   30362   30361   30362   30362       0   30364   30365   30366   30365
   30366   30366       0   30368   30369   30370   30369   30370   30370       0
   30372   30373   30374   30373   30374   30374       0   30376   30377   30378
   30377   30378   30378       0   30380   30381   30382   30381   30382   30382
       0   30384   30385   30386   30385   30386   30386       0   30388   30389
   30390   30389   30390   30390       0   30392   30393   30394   30393   30394
   30394       0   30396   30397   30398   30397   30398   30398       0   30400
   30401   30402   30401   30402   30402       0   30404   30405   30406   30405
   30406   30406       0   30408   30409   30410   30409   30410   30410       0
   30412   30413   30414   30413   30414   30414       0   30416   30417   30418
   30417   30418   30418       0   30420   30421   30422   30421   30422   30422
       0   30424   30425   30426   30425   30426   30426       0   30428   30429
   30430   30429   30430   30430       0   30432   30433   30434   30433   30434
   30434       0   30436   30437   30438   30437   30438   30438       0   30440
   30441   30442   30441   30442   30442       0   30444   30445   30446   30445
   30446   30446       0   30448   30449   30450   30449   30450   30450       0
   30452   30453   30454   30453   30454   30454       0   30456   30457   30458
   30457   30458   30458       0   30460   30461   30462   30461   30462   30462
       0   30464   30465   30466   30465   30466   30466       0   30468   30469
   30470   30469   30470   30470       0   30472   30473   30474   30473   30474
   30474       0   30476   30477   30478   30477   30478   30478       0   30480
   30481   30482   30481   30482   30482       0   30484   30485   30486   30485
   30486   30486       0   30488   30489   30490   30489   30490   30490       0
   30492   30493   30494   30493   30494   30494       0   30496   30497   30498
   30497   30498   30498       0   30500   30501   30502   30501   30502   30502
       0   30504   30505   30506   30505   30506   30506       0   30508   30509
   30510   30509   30510   30510       0   30512   30513   30514   30513   30514
   30514       0   30516   30517   30518   30517   30518   30518       0   30520
   30521   30522   30521   30522   30522       0   30524   30525   30526   30525
   30526   30526       0   30528   30529   30530   30529   30530   30530       0
   30532   30533   30534   30533   30534   30534       0   30536   30537   30538
   30537   30538   30538       0   30540   30541   30542   30541   30542   30542
       0   30544   30545   30546   30545   30546   30546       0   30548   30549
   30550   30549   30550   30550       0   30552   30553   30554   30553   30554
   30554       0   30556   30557   30558   30557   30558   30558       0   30560
   30561   30562   30561   30562   30562       0   30564   30565   30566   30565
   30566   30566       0   30568   30569   30570   30569   30570   30570       0
   30572   30573   30574   30573   30574   30574       0   30576   30577   30578
   30577   30578   30578       0   30580   30581   30582   30581   30582   30582
       0   30584   30585   30586   30585   30586   30586       0   30588   30589
   30590   30589   30590   30590       0   30592   30593   30594   30593   30594
   30594       0   30596   30597   30598   30597   30598   30598       0   30600
   30601   30602   30601   30602   30602       0   30604   30605   30606   30605
   30606   30606       0   30608   30609   30610   30609   30610   30610       0
   30612   30613   30614   30613   30614   30614       0   30616   30617   30618
   30617   30618   30618       0   30620   30621   30622   30621   30622   30622
       0   30624   30625   30626   30625   30626   30626       0   30628   30629
   30630   30629   30630   30630       0   30632   30633   30634   30633   30634
   30634       0   30636   30637   30638   30637   30638   30638       0   30640
   30641   30642   30641   30642   30642       0   30644   30645   30646   30645
   30646   30646       0   30648   30649   30650   30649   30650   30650       0
   30652   30653   30654   30653   30654   30654       0   30656   30657   30658
   30657   30658   30658       0   30660   30661   30662   30661   30662   30662
       0   30664   30665   30666   30665   30666   30666       0   30668   30669
   30670   30669   30670   30670       0   30672   30673   30674   30673   30674
   30674       0   30676   30677   30678   30677   30678   30678       0   30680
   30681   30682   30681   30682   30682       0   30684   30685   30686   30685
   30686   30686       0   30688   30689   30690   30689   30690   30690       0
   30692   30693   30694   30693   30694   30694       0   30696   30697   30698
   30697   30698   30698       0   30700   30701   30702   30701   30702   30702
       0   30704   30705   30706   30705   30706   30706       0   30708   30709
   30710   30709   30710   30710       0   30712   30713   30714   30713   30714
   30714       0   30716   30717   30718   30717   30718   30718       0   30720
   30721   30722   30721   30722   30722       0   30724   30725   30726   30725
   30726   30726       0   30728   30729   30730   30729   30730   30730       0
   30732   30733   30734   30733   30734   30734       0   30736   30737   30738
   30737   30738   30738       0   30740   30741   30742   30741   30742   30742
       0   30744   30745   30746   30745   30746   30746       0   30748   30749
   30750   30749   30750   30750       0   30752   30753   30754   30753   30754
   30754       0   30756   30757   30758   30757   30758   30758       0   30760
   30761   30762   30761   30762   30762       0   30764   30765   30766   30765
   30766   30766       0   30768   30769   30770   30769   30770   30770       0
   30772   30773   30774   30773   30774   30774       0   30776   30777   30778
   30777   30778   30778       0   30780   30781   30782   30781   30782   30782
       0   30784   30785   30786   30785   30786   30786       0   30788   30789
   30790   30789   30790   30790       0   30792   30793   30794   30793   30794
   30794       0   30796   30797   30798   30797   30798   30798       0   30800
   30801   30802   30801   30802   30802       0   30804   30805   30806   30805
   30806   30806       0   30808   30809   30810   30809   30810   30810       0
   30812   30813   30814   30813   30814   30814       0   30816   30817   30818
   30817   30818   30818       0   30820   30821   30822   30821   30822   30822
       0   30824   30825   30826   30825   30826   30826       0   30828   30829
   30830   30829   30830   30830       0   30832   30833   30834   30833   30834
   30834       0   30836   30837   30838   30837   30838   30838       0   30840
   30841   30842   30841   30842   30842       0   30844   30845   30846   30845
   30846   30846       0   30848   30849   30850   30849   30850   30850       0
   30852   30853   30854   30853   30854   30854       0   30856   30857   30858
   30857   30858   30858       0   30860   30861   30862   30861   30862   30862
       0   30864   30865   30866   30865   30866   30866       0   30868   30869
   30870   30869   30870   30870       0   30872   30873   30874   30873   30874
   30874       0   30876   30877   30878   30877   30878   30878       0   30880
   30881   30882   30881   30882   30882       0   30884   30885   30886   30885
   30886   30886       0   30888   30889   30890   30889   30890   30890       0
   30892   30893   30894   30893   30894   30894       0   30896   30897   30898
   30897   30898   30898       0   30900   30901   30902   30901   30902   30902
       0   30904   30905   30906   30905   30906   30906       0   30908   30909
   30910   30909   30910   30910       0   30912   30913   30914   30913   30914
   30914       0   30916   30917   30918   30917   30918   30918       0   30920
   30921   30922   30921   30922   30922       0   30924   30925   30926   30925
   30926   30926       0   30928   30929   30930   30929   30930   30930       0
   30932   30933   30934   30933   30934   30934       0   30936   30937   30938
   30937   30938   30938       0   30940   30941   30942   30941   30942   30942
       0   30944   30945   30946   30945   30946   30946       0   30948   30949
   30950   30949   30950   30950       0   30952   30953   30954   30953   30954
   30954       0   30956   30957   30958   30957   30958   30958       0   30960
   30961   30962   30961   30962   30962       0   30964   30965   30966   30965
   30966   30966       0   30968   30969   30970   30969   30970   30970       0
   30972   30973   30974   30973   30974   30974       0   30976   30977   30978
   30977   30978   30978       0   30980   30981   30982   30981   30982   30982
       0   30984   30985   30986   30985   30986   30986       0   30988   30989
   30990   30989   30990   30990       0   30992   30993   30994   30993   30994
   30994       0   30996   30997   30998   30997   30998   30998       0   31000
   31001   31002   31001   31002   31002       0   31004   31005   31006   31005
   31006   31006       0   31008   31009   31010   31009   31010   31010       0
   31012   31013   31014   31013   31014   31014       0   31016   31017   31018
   31017   31018   31018       0   31020   31021   31022   31021   31022   31022
       0   31024   31025   31026   31025   31026   31026       0   31028   31029
   31030   31029   31030   31030       0   31032   31033   31034   31033   31034
   31034       0   31036   31037   31038   31037   31038   31038       0   31040
   31041   31042   31041   31042   31042       0   31044   31045   31046   31045
   31046   31046       0   31048   31049   31050   31049   31050   31050       0
   31052   31053   31054   31053   31054   31054       0   31056   31057   31058
   31057   31058   31058       0   31060   31061   31062   31061   31062   31062
       0   31064   31065   31066   31065   31066   31066       0   31068   31069
   31070   31069   31070   31070       0   31072   31073   31074   31073   31074
   31074       0   31076   31077   31078   31077   31078   31078       0   31080
   31081   31082   31081   31082   31082       0   31084   31085   31086   31085
   31086   31086       0   31088   31089   31090   31089   31090   31090       0
   31092   31093   31094   31093   31094   31094       0   31096   31097   31098
   31097   31098   31098       0   31100   31101   31102   31101   31102   31102
       0   31104   31105   31106   31105   31106   31106       0   31108   31109
   31110   31109   31110   31110       0   31112   31113   31114   31113   31114
   31114       0   31116   31117   31118   31117   31118   31118       0   31120
   31121   31122   31121   31122   31122       0   31124   31125   31126   31125
   31126   31126       0   31128   31129   31130   31129   31130   31130       0
   31132   31133   31134   31133   31134   31134       0   31136   31137   31138
   31137   31138   31138       0   31140   31141   31142   31141   31142   31142
       0   31144   31145   31146   31145   31146   31146       0   31148   31149
   31150   31149   31150   31150       0   31152   31153   31154   31153   31154
   31154       0   31156   31157   31158   31157   31158   31158       0   31160
   31161   31162   31161   31162   31162       0   31164   31165   31166   31165
   31166   31166       0   31168   31169   31170   31169   31170   31170       0
   31172   31173   31174   31173   31174   31174       0   31176   31177   31178
   31177   31178   31178       0   31180   31181   31182   31181   31182   31182
       0   31184   31185   31186   31185   31186   31186       0   31188   31189
   31190   31189   31190   31190       0   31192   31193   31194   31193   31194
   31194       0   31196   31197   31198   31197   31198   31198       0   31200
   31201   31202   31201   31202   31202       0   31204   31205   31206   31205
   31206   31206       0   31208   31209   31210   31209   31210   31210       0
   31212   31213   31214   31213   31214   31214       0   31216   31217   31218
   31217   31218   31218       0   31220   31221   31222   31221   31222   31222
       0   31224   31225   31226   31225   31226   31226       0   31228   31229
   31230   31229   31230   31230       0   31232   31233   31234   31233   31234
   31234       0   31236   31237   31238   31237   31238   31238       0   31240
   31241   31242   31241   31242   31242       0   31244   31245   31246   31245
   31246   31246       0   31248   31249   31250   31249   31250   31250       0
   31252   31253   31254   31253   31254   31254       0   31256   31257   31258
   31257   31258   31258       0   31260   31261   31262   31261   31262   31262
       0   31264   31265   31266   31265   31266   31266       0   31268   31269
   31270   31269   31270   31270       0   31272   31273   31274   31273   31274
   31274       0   31276   31277   31278   31277   31278   31278       0   31280
   31281   31282   31281   31282   31282       0   31284   31285   31286   31285
   31286   31286       0   31288   31289   31290   31289   31290   31290       0
   31292   31293   31294   31293   31294   31294       0   31296   31297   31298
   31297   31298   31298       0   31300   31301   31302   31301   31302   31302
       0   31304   31305   31306   31305   31306   31306       0   31308   31309
   31310   31309   31310   31310       0   31312   31313   31314   31313   31314
   31314       0   31316   31317   31318   31317   31318   31318       0   31320
   31321   31322   31321   31322   31322       0   31324   31325   31326   31325
   31326   31326       0   31328   31329   31330   31329   31330   31330       0
   31332   31333   31334   31333   31334   31334       0   31336   31337   31338
   31337   31338   31338       0   31340   31341   31342   31341   31342   31342
       0   31344   31345   31346   31345   31346   31346       0   31348   31349
   31350   31349   31350   31350       0   31352   31353   31354   31353   31354
   31354       0   31356   31357   31358   31357   31358   31358       0   31360
   31361   31362   31361   31362   31362       0   31364   31365   31366   31365
   31366   31366       0   31368   31369   31370   31369   31370   31370       0
   31372   31373   31374   31373   31374   31374       0   31376   31377   31378
   31377   31378   31378       0   31380   31381   31382   31381   31382   31382
       0   31384   31385   31386   31385   31386   31386       0   31388   31389
   31390   31389   31390   31390       0   31392   31393   31394   31393   31394
   31394       0   31396   31397   31398   31397   31398   31398       0   31400
   31401   31402   31401   31402   31402       0   31404   31405   31406   31405
   31406   31406       0   31408   31409   31410   31409   31410   31410       0
   31412   31413   31414   31413   31414   31414       0   31416   31417   31418
   31417   31418   31418       0   31420   31421   31422   31421   31422   31422
       0   31424   31425   31426   31425   31426   31426       0   31428   31429
   31430   31429   31430   31430       0   31432   31433   31434   31433   31434
   31434       0   31436   31437   31438   31437   31438   31438       0   31440
   31441   31442   31441   31442   31442       0   31444   31445   31446   31445
   31446   31446       0   31448   31449   31450   31449   31450   31450       0
   31452   31453   31454   31453   31454   31454       0   31456   31457   31458
   31457   31458   31458       0   31460   31461   31462   31461   31462   31462
       0   31464   31465   31466   31465   31466   31466       0   31468   31469
   31470   31469   31470   31470       0   31472   31473   31474   31473   31474
   31474       0   31476   31477   31478   31477   31478   31478       0   31480
   31481   31482   31481   31482   31482       0   31484   31485   31486   31485
   31486   31486       0   31488   31489   31490   31489   31490   31490       0
   31492   31493   31494   31493   31494   31494       0   31496   31497   31498
   31497   31498   31498       0   31500   31501   31502   31501   31502   31502
       0   31504   31505   31506   31505   31506   31506       0   31508   31509
   31510   31509   31510   31510       0   31512   31513   31514   31513   31514
   31514       0   31516   31517   31518   31517   31518   31518       0   31520
   31521   31522   31521   31522   31522       0   31524   31525   31526   31525
   31526   31526       0   31528   31529   31530   31529   31530   31530       0
   31532   31533   31534   31533   31534   31534       0   31536   31537   31538
   31537   31538   31538       0   31540   31541   31542   31541   31542   31542
       0   31544   31545   31546   31545   31546   31546       0   31548   31549
   31550   31549   31550   31550       0   31552   31553   31554   31553   31554
   31554       0   31556   31557   31558   31557   31558   31558       0   31560
   31561   31562   31561   31562   31562       0   31564   31565   31566   31565
   31566   31566       0   31568   31569   31570   31569   31570   31570       0
   31572   31573   31574   31573   31574   31574       0   31576   31577   31578
   31577   31578   31578       0   31580   31581   31582   31581   31582   31582
       0   31584   31585   31586   31585   31586   31586       0   31588   31589
   31590   31589   31590   31590       0   31592   31593   31594   31593   31594
   31594       0   31596   31597   31598   31597   31598   31598       0   31600
   31601   31602   31601   31602   31602       0   31604   31605   31606   31605
   31606   31606       0   31608   31609   31610   31609   31610   31610       0
   31612   31613   31614   31613   31614   31614       0   31616   31617   31618
   31617   31618   31618       0   31620   31621   31622   31621   31622   31622
       0   31624   31625   31626   31625   31626   31626       0   31628   31629
   31630   31629   31630   31630       0   31632   31633   31634   31633   31634
   31634       0   31636   31637   31638   31637   31638   31638       0   31640
   31641   31642   31641   31642   31642       0   31644   31645   31646   31645
   31646   31646       0   31648   31649   31650   31649   31650   31650       0
   31652   31653   31654   31653   31654   31654       0   31656   31657   31658
   31657   31658   31658       0   31660   31661   31662   31661   31662   31662
       0   31664   31665   31666   31665   31666   31666       0   31668   31669
   31670   31669   31670   31670       0   31672   31673   31674   31673   31674
   31674       0   31676   31677   31678   31677   31678   31678       0   31680
   31681   31682   31681   31682   31682       0   31684   31685   31686   31685
   31686   31686       0   31688   31689   31690   31689   31690   31690       0
   31692   31693   31694   31693   31694   31694       0   31696   31697   31698
   31697   31698   31698       0   31700   31701   31702   31701   31702   31702
       0   31704   31705   31706   31705   31706   31706       0   31708   31709
   31710   31709   31710   31710       0   31712   31713   31714   31713   31714
   31714       0   31716   31717   31718   31717   31718   31718       0   31720
   31721   31722   31721   31722   31722       0   31724   31725   31726   31725
   31726   31726       0   31728   31729   31730   31729   31730   31730       0
   31732   31733   31734   31733   31734   31734       0   31736   31737   31738
   31737   31738   31738       0   31740   31741   31742   31741   31742   31742
       0   31744   31745   31746   31745   31746   31746       0   31748   31749
   31750   31749   31750   31750       0   31752   31753   31754   31753   31754
   31754       0   31756   31757   31758   31757   31758   31758       0   31760
   31761   31762   31761   31762   31762       0   31764   31765   31766   31765
   31766   31766       0   31768   31769   31770   31769   31770   31770       0
   31772   31773   31774   31773   31774   31774       0   31776   31777   31778
   31777   31778   31778       0   31780   31781   31782   31781   31782   31782
       0   31784   31785   31786   31785   31786   31786       0   31788   31789
   31790   31789   31790   31790       0   31792   31793   31794   31793   31794
   31794       0   31796   31797   31798   31797   31798   31798       0   31800
   31801   31802   31801   31802   31802       0   31804   31805   31806   31805
   31806   31806       0   31808   31809   31810   31809   31810   31810       0
   31812   31813   31814   31813   31814   31814       0   31816   31817   31818
   31817   31818   31818       0   31820   31821   31822   31821   31822   31822
       0   31824   31825   31826   31825   31826   31826       0   31828   31829
   31830   31829   31830   31830       0   31832   31833   31834   31833   31834
   31834       0   31836   31837   31838   31837   31838   31838       0   31840
   31841   31842   31841   31842   31842       0   31844   31845   31846   31845
   31846   31846       0   31848   31849   31850   31849   31850   31850       0
   31852   31853   31854   31853   31854   31854       0   31856   31857   31858
   31857   31858   31858       0   31860   31861   31862   31861   31862   31862
       0   31864   31865   31866   31865   31866   31866       0   31868   31869
   31870   31869   31870   31870       0   31872   31873   31874   31873   31874
   31874       0   31876   31877   31878   31877   31878   31878       0   31880
   31881   31882   31881   31882   31882       0   31884   31885   31886   31885
   31886   31886       0   31888   31889   31890   31889   31890   31890       0
   31892   31893   31894   31893   31894   31894       0   31896   31897   31898
   31897   31898   31898       0   31900   31901   31902   31901   31902   31902
       0   31904   31905   31906   31905   31906   31906       0   31908   31909
   31910   31909   31910   31910       0   31912   31913   31914   31913   31914
   31914       0   31916   31917   31918   31917   31918   31918       0   31920
   31921   31922   31921   31922   31922       0   31924   31925   31926   31925
   31926   31926       0   31928   31929   31930   31929   31930   31930       0
   31932   31933   31934   31933   31934   31934       0   31936   31937   31938
   31937   31938   31938       0   31940   31941   31942   31941   31942   31942
       0   31944   31945   31946   31945   31946   31946       0   31948   31949
   31950   31949   31950   31950       0   31952   31953   31954   31953   31954
   31954       0   31956   31957   31958   31957   31958   31958       0   31960
   31961   31962   31961   31962   31962       0   31964   31965   31966   31965
   31966   31966       0   31968   31969   31970   31969   31970   31970       0
   31972   31973   31974   31973   31974   31974       0   31976   31977   31978
   31977   31978   31978       0   31980   31981   31982   31981   31982   31982
       0   31984   31985   31986   31985   31986   31986       0   31988   31989
   31990   31989   31990   31990       0   31992   31993   31994   31993   31994
   31994       0   31996   31997   31998   31997   31998   31998       0   32000
   32001   32002   32001   32002   32002       0   32004   32005   32006   32005
   32006   32006       0   32008   32009   32010   32009   32010   32010       0
   32012   32013   32014   32013   32014   32014       0   32016   32017   32018
   32017   32018   32018       0   32020   32021   32022   32021   32022   32022
       0   32024   32025   32026   32025   32026   32026       0   32028   32029
   32030   32029   32030   32030       0   32032   32033   32034   32033   32034
   32034       0   32036   32037   32038   32037   32038   32038       0   32040
   32041   32042   32041   32042   32042       0   32044   32045   32046   32045
   32046   32046       0   32048   32049   32050   32049   32050   32050       0
   32052   32053   32054   32053   32054   32054       0   32056   32057   32058
   32057   32058   32058       0   32060   32061   32062   32061   32062   32062
       0   32064   32065   32066   32065   32066   32066       0   32068   32069
   32070   32069   32070   32070       0   32072   32073   32074   32073   32074
   32074       0   32076   32077   32078   32077   32078   32078       0   32080
   32081   32082   32081   32082   32082       0   32084   32085   32086   32085
   32086   32086       0   32088   32089   32090   32089   32090   32090       0
   32092   32093   32094   32093   32094   32094       0   32096   32097   32098
   32097   32098   32098       0   32100   32101   32102   32101   32102   32102
       0   32104   32105   32106   32105   32106   32106       0   32108   32109
   32110   32109   32110   32110       0   32112   32113   32114   32113   32114
   32114       0   32116   32117   32118   32117   32118   32118       0   32120
   32121   32122   32121   32122   32122       0   32124   32125   32126   32125
   32126   32126       0   32128   32129   32130   32129   32130   32130       0
   32132   32133   32134   32133   32134   32134       0   32136   32137   32138
   32137   32138   32138       0   32140   32141   32142   32141   32142   32142
       0   32144   32145   32146   32145   32146   32146       0   32148   32149
   32150   32149   32150   32150       0   32152   32153   32154   32153   32154
   32154       0   32156   32157   32158   32157   32158   32158       0   32160
   32161   32162   32161   32162   32162       0   32164   32165   32166   32165
   32166   32166       0   32168   32169   32170   32169   32170   32170       0
   32172   32173   32174   32173   32174   32174       0   32176   32177   32178
   32177   32178   32178       0   32180   32181   32182   32181   32182   32182
       0   32184   32185   32186   32185   32186   32186       0   32188   32189
   32190   32189   32190   32190       0   32192   32193   32194   32193   32194
   32194       0   32196   32197   32198   32197   32198   32198       0   32200
   32201   32202   32201   32202   32202       0   32204   32205   32206   32205
   32206   32206       0   32208   32209   32210   32209   32210   32210       0
   32212   32213   32214   32213   32214   32214       0   32216   32217   32218
   32217   32218   32218       0   32220   32221   32222   32221   32222   32222
       0   32224   32225   32226   32225   32226   32226       0   32228   32229
   32230   32229   32230   32230       0   32232   32233   32234   32233   32234
   32234       0   32236   32237   32238   32237   32238   32238       0   32240
   32241   32242   32241   32242   32242       0   32244   32245   32246   32245
   32246   32246       0   32248   32249   32250   32249   32250   32250       0
   32252   32253   32254   32253   32254   32254       0   32256   32257   32258
   32257   32258   32258       0   32260   32261   32262   32261   32262   32262
       0   32264   32265   32266   32265   32266   32266       0   32268   32269
   32270   32269   32270   32270       0   32272   32273   32274   32273   32274
   32274       0   32276   32277   32278   32277   32278   32278       0   32280
   32281   32282   32281   32282   32282       0   32284   32285   32286   32285
   32286   32286       0   32288   32289   32290   32289   32290   32290       0
   32292   32293   32294   32293   32294   32294       0   32296   32297   32298
   32297   32298   32298       0   32300   32301   32302   32301   32302   32302
       0   32304   32305   32306   32305   32306   32306       0   32308   32309
   32310   32309   32310   32310       0   32312   32313   32314   32313   32314
   32314       0   32316   32317   32318   32317   32318   32318       0   32320
   32321   32322   32321   32322   32322       0   32324   32325   32326   32325
   32326   32326       0   32328   32329   32330   32329   32330   32330       0
   32332   32333   32334   32333   32334   32334       0   32336   32337   32338
   32337   32338   32338       0   32340   32341   32342   32341   32342   32342
       0   32344   32345   32346   32345   32346   32346       0   32348   32349
   32350   32349   32350   32350       0   32352   32353   32354   32353   32354
   32354       0   32356   32357   32358   32357   32358   32358       0   32360
   32361   32362   32361   32362   32362       0   32364   32365   32366   32365
   32366   32366       0   32368   32369   32370   32369   32370   32370       0
   32372   32373   32374   32373   32374   32374       0   32376   32377   32378
   32377   32378   32378       0   32380   32381   32382   32381   32382   32382
       0   32384   32385   32386   32385   32386   32386       0   32388   32389
   32390   32389   32390   32390       0   32392   32393   32394   32393   32394
   32394       0   32396   32397   32398   32397   32398   32398       0   32400
   32401   32402   32401   32402   32402       0   32404   32405   32406   32405
   32406   32406       0   32408   32409   32410   32409   32410   32410       0
   32412   32413   32414   32413   32414   32414       0   32416   32417   32418
   32417   32418   32418       0   32420   32421   32422   32421   32422   32422
       0   32424   32425   32426   32425   32426   32426       0   32428   32429
   32430   32429   32430   32430       0   32432   32433   32434   32433   32434
   32434       0   32436   32437   32438   32437   32438   32438       0   32440
   32441   32442   32441   32442   32442       0   32444   32445   32446   32445
   32446   32446       0   32448   32449   32450   32449   32450   32450       0
   32452   32453   32454   32453   32454   32454       0   32456   32457   32458
   32457   32458   32458       0   32460   32461   32462   32461   32462   32462
       0   32464   32465   32466   32465   32466   32466       0   32468   32469
   32470   32469   32470   32470       0   32472   32473   32474   32473   32474
   32474       0   32476   32477   32478   32477   32478   32478       0   32480
   32481   32482   32481   32482   32482       0   32484   32485   32486   32485
   32486   32486       0   32488   32489   32490   32489   32490   32490       0
   32492   32493   32494   32493   32494   32494       0   32496   32497   32498
   32497   32498   32498       0   32500   32501   32502   32501   32502   32502
       0   32504   32505   32506   32505   32506   32506       0   32508   32509
   32510   32509   32510   32510       0   32512   32513   32514   32513   32514
   32514       0   32516   32517   32518   32517   32518   32518       0   32520
   32521   32522   32521   32522   32522       0   32524   32525   32526   32525
   32526   32526       0   32528   32529   32530   32529   32530   32530       0
   32532   32533   32534   32533   32534   32534       0   32536   32537   32538
   32537   32538   32538       0   32540   32541   32542   32541   32542   32542
       0   32544   32545   32546   32545   32546   32546       0   32548   32549
   32550   32549   32550   32550       0   32552   32553   32554   32553   32554
   32554       0   32556   32557   32558   32557   32558   32558       0   32560
   32561   32562   32561   32562   32562       0   32564   32565   32566   32565
   32566   32566       0   32568   32569   32570   32569   32570   32570       0
   32572   32573   32574   32573   32574   32574       0   32576   32577   32578
   32577   32578   32578       0   32580   32581   32582   32581   32582   32582
       0   32584   32585   32586   32585   32586   32586       0   32588   32589
   32590   32589   32590   32590       0   32592   32593   32594   32593   32594
   32594       0   32596   32597   32598   32597   32598   32598       0   32600
   32601   32602   32601   32602   32602       0   32604   32605   32606   32605
   32606   32606       0   32608   32609   32610   32609   32610   32610       0
   32612   32613   32614   32613   32614   32614       0   32616   32617   32618
   32617   32618   32618       0   32620   32621   32622   32621   32622   32622
       0   32624   32625   32626   32625   32626   32626       0   32628   32629
   32630   32629   32630   32630       0   32632   32633   32634   32633   32634
   32634       0   32636   32637   32638   32637   32638   32638       0   32640
   32641   32642   32641   32642   32642       0   32644   32645   32646   32645
   32646   32646       0   32648   32649   32650   32649   32650   32650       0
   32652   32653   32654   32653   32654   32654       0   32656   32657   32658
   32657   32658   32658       0   32660   32661   32662   32661   32662   32662
       0   32664   32665   32666   32665   32666   32666       0   32668   32669
   32670   32669   32670   32670       0   32672   32673   32674   32673   32674
   32674       0   32676   32677   32678   32677   32678   32678       0   32680
   32681   32682   32681   32682   32682       0   32684   32685   32686   32685
   32686   32686       0   32688   32689   32690   32689   32690   32690       0
   32692   32693   32694   32693   32694   32694       0   32696   32697   32698
   32697   32698   32698       0   32700   32701   32702   32701   32702   32702
       0   32704   32705   32706   32705   32706   32706       0   32708   32709
   32710   32709   32710   32710       0   32712   32713   32714   32713   32714
   32714       0   32716   32717   32718   32717   32718   32718       0   32720
   32721   32722   32721   32722   32722       0   32724   32725   32726   32725
   32726   32726       0   32728   32729   32730   32729   32730   32730       0
   32732   32733   32734   32733   32734   32734       0   32736   32737   32738
   32737   32738   32738       0   32740   32741   32742   32741   32742   32742
       0   32744   32745   32746   32745   32746   32746       0   32748   32749
   32750   32749   32750   32750       0   32752   32753   32754   32753   32754
   32754       0   32756   32757   32758   32757   32758   32758       0   32760
   32761   32762   32761   32762   32762       0   32764   32765   32766   32765
   32766   32766       0   32768   32769   32770   32769   32770   32770       0
   32772   32773   32774   32773   32774   32774       0   32776   32777   32778
   32777   32778   32778       0   32780   32781   32782   32781   32782   32782
       0   32784   32785   32786   32785   32786   32786       0   32788   32789
   32790   32789   32790   32790       0   32792   32793   32794   32793   32794
   32794       0   32796   32797   32798   32797   32798   32798       0   32800
   32801   32802   32801   32802   32802       0   32804   32805   32806   32805
   32806   32806       0   32808   32809   32810   32809   32810   32810       0
   32812   32813   32814   32813   32814   32814       0   32816   32817   32818
   32817   32818   32818       0   32820   32821   32822   32821   32822   32822
       0   32824   32825   32826   32825   32826   32826       0   32828   32829
   32830   32829   32830   32830       0   32832   32833   32834   32833   32834
   32834       0   32836   32837   32838   32837   32838   32838       0   32840
   32841   32842   32841   32842   32842       0   32844   32845   32846   32845
   32846   32846       0   32848   32849   32850   32849   32850   32850       0
   32852   32853   32854   32853   32854   32854       0   32856   32857   32858
   32857   32858   32858       0   32860   32861   32862   32861   32862   32862
       0   32864   32865   32866   32865   32866   32866       0   32868   32869
   32870   32869   32870   32870       0   32872   32873   32874   32873   32874
   32874       0   32876   32877   32878   32877   32878   32878       0   32880
   32881   32882   32881   32882   32882       0   32884   32885   32886   32885
   32886   32886       0   32888   32889   32890   32889   32890   32890       0
   32892   32893   32894   32893   32894   32894       0   32896   32897   32898
   32897   32898   32898       0   32900   32901   32902   32901   32902   32902
       0   32904   32905   32906   32905   32906   32906       0   32908   32909
   32910   32909   32910   32910       0   32912   32913   32914   32913   32914
   32914       0   32916   32917   32918   32917   32918   32918       0   32920
   32921   32922   32921   32922   32922       0   32924   32925   32926   32925
   32926   32926       0   32928   32929   32930   32929   32930   32930       0
   32932   32933   32934   32933   32934   32934       0   32936   32937   32938
   32937   32938   32938       0   32940   32941   32942   32941   32942   32942
       0   32944   32945   32946   32945   32946   32946       0   32948   32949
   32950   32949   32950   32950       0   32952   32953   32954   32953   32954
   32954       0   32956   32957   32958   32957   32958   32958       0   32960
   32961   32962   32961   32962   32962       0   32964   32965   32966   32965
   32966   32966       0   32968   32969   32970   32969   32970   32970       0
   32972   32973   32974   32973   32974   32974       0   32976   32977   32978
   32977   32978   32978       0   32980   32981   32982   32981   32982   32982
       0   32984   32985   32986   32985   32986   32986       0   32988   32989
   32990   32989   32990   32990       0   32992   32993   32994   32993   32994
   32994       0   32996   32997   32998   32997   32998   32998       0   33000
   33001   33002   33001   33002   33002       0   33004   33005   33006   33005
   33006   33006       0   33008   33009   33010   33009   33010   33010       0
   33012   33013   33014   33013   33014   33014       0   33016   33017   33018
   33017   33018   33018       0   33020   33021   33022   33021   33022   33022
       0   33024   33025   33026   33025   33026   33026       0   33028   33029
   33030   33029   33030   33030       0   33032   33033   33034   33033   33034
   33034       0   33036   33037   33038   33037   33038   33038       0   33040
   33041   33042   33041   33042   33042       0   33044   33045   33046   33045
   33046   33046       0   33048   33049   33050   33049   33050   33050       0
   33052   33053   33054   33053   33054   33054       0   33056   33057   33058
   33057   33058   33058       0   33060   33061   33062   33061   33062   33062
       0   33064   33065   33066   33065   33066   33066       0   33068   33069
   33070   33069   33070   33070       0   33072   33073   33074   33073   33074
   33074       0   33076   33077   33078   33077   33078   33078       0   33080
   33081   33082   33081   33082   33082       0   33084   33085   33086   33085
   33086   33086       0   33088   33089   33090   33089   33090   33090       0
   33092   33093   33094   33093   33094   33094       0   33096   33097   33098
   33097   33098   33098       0   33100   33101   33102   33101   33102   33102
       0   33104   33105   33106   33105   33106   33106       0   33108   33109
   33110   33109   33110   33110       0   33112   33113   33114   33113   33114
   33114       0   33116   33117   33118   33117   33118   33118       0   33120
   33121   33122   33121   33122   33122       0   33124   33125   33126   33125
   33126   33126       0   33128   33129   33130   33129   33130   33130       0
   33132   33133   33134   33133   33134   33134       0   33136   33137   33138
   33137   33138   33138       0   33140   33141   33142   33141   33142   33142
       0   33144   33145   33146   33145   33146   33146       0   33148   33149
   33150   33149   33150   33150       0   33152   33153   33154   33153   33154
   33154       0   33156   33157   33158   33157   33158   33158       0   33160
   33161   33162   33161   33162   33162       0   33164   33165   33166   33165
   33166   33166       0   33168   33169   33170   33169   33170   33170       0
   33172   33173   33174   33173   33174   33174       0   33176   33177   33178
   33177   33178   33178       0   33180   33181   33182   33181   33182   33182
       0   33184   33185   33186   33185   33186   33186       0   33188   33189
   33190   33189   33190   33190       0   33192   33193   33194   33193   33194
   33194       0   33196   33197   33198   33197   33198   33198       0   33200
   33201   33202   33201   33202   33202       0   33204   33205   33206   33205
   33206   33206       0   33208   33209   33210   33209   33210   33210       0
   33212   33213   33214   33213   33214   33214       0   33216   33217   33218
   33217   33218   33218       0   33220   33221   33222   33221   33222   33222
       0   33224   33225   33226   33225   33226   33226       0   33228   33229
   33230   33229   33230   33230       0   33232   33233   33234   33233   33234
   33234       0   33236   33237   33238   33237   33238   33238       0   33240
   33241   33242   33241   33242   33242       0   33244   33245   33246   33245
   33246   33246       0   33248   33249   33250   33249   33250   33250       0
   33252   33253   33254   33253   33254   33254       0   33256   33257   33258
   33257   33258   33258       0   33260   33261   33262   33261   33262   33262
       0   33264   33265   33266   33265   33266   33266       0   33268   33269
   33270   33269   33270   33270       0   33272   33273   33274   33273   33274
   33274       0   33276   33277   33278   33277   33278   33278       0   33280
   33281   33282   33281   33282   33282       0   33284   33285   33286   33285
   33286   33286       0   33288   33289   33290   33289   33290   33290       0
   33292   33293   33294   33293   33294   33294       0   33296   33297   33298
   33297   33298   33298       0   33300   33301   33302   33301   33302   33302
       0   33304   33305   33306   33305   33306   33306       0   33308   33309
   33310   33309   33310   33310       0   33312   33313   33314   33313   33314
   33314       0   33316   33317   33318   33317   33318   33318       0   33320
   33321   33322   33321   33322   33322       0   33324   33325   33326   33325
   33326   33326       0   33328   33329   33330   33329   33330   33330       0
   33332   33333   33334   33333   33334   33334       0   33336   33337   33338
   33337   33338   33338       0   33340   33341   33342   33341   33342   33342
       0   33344   33345   33346   33345   33346   33346       0   33348   33349
   33350   33349   33350   33350       0   33352   33353   33354   33353   33354
   33354       0   33356   33357   33358   33357   33358   33358       0   33360
   33361   33362   33361   33362   33362       0   33364   33365   33366   33365
   33366   33366       0   33368   33369   33370   33369   33370   33370       0
   33372   33373   33374   33373   33374   33374       0   33376   33377   33378
   33377   33378   33378       0   33380   33381   33382   33381   33382   33382
       0   33384   33385   33386   33385   33386   33386       0   33388   33389
   33390   33389   33390   33390       0   33392   33393   33394   33393   33394
   33394       0   33396   33397   33398   33397   33398   33398       0   33400
   33401   33402   33401   33402   33402       0   33404   33405   33406   33405
   33406   33406       0   33408   33409   33410   33409   33410   33410       0
   33412   33413   33414   33413   33414   33414       0   33416   33417   33418
   33417   33418   33418       0   33420   33421   33422   33421   33422   33422
       0   33424   33425   33426   33425   33426   33426       0   33428   33429
   33430   33429   33430   33430       0   33432   33433   33434   33433   33434
   33434       0   33436   33437   33438   33437   33438   33438       0   33440
   33441   33442   33441   33442   33442       0   33444   33445   33446   33445
   33446   33446       0   33448   33449   33450   33449   33450   33450       0
   33452   33453   33454   33453   33454   33454       0   33456   33457   33458
   33457   33458   33458       0   33460   33461   33462   33461   33462   33462
       0   33464   33465   33466   33465   33466   33466       0   33468   33469
   33470   33469   33470   33470       0   33472   33473   33474   33473   33474
   33474       0   33476   33477   33478   33477   33478   33478       0   33480
   33481   33482   33481   33482   33482       0   33484   33485   33486   33485
   33486   33486       0   33488   33489   33490   33489   33490   33490       0
   33492   33493   33494   33493   33494   33494       0   33496   33497   33498
   33497   33498   33498       0   33500   33501   33502   33501   33502   33502
       0   33504   33505   33506   33505   33506   33506       0   33508   33509
   33510   33509   33510   33510       0   33512   33513   33514   33513   33514
   33514       0   33516   33517   33518   33517   33518   33518       0   33520
   33521   33522   33521   33522   33522       0   33524   33525   33526   33525
   33526   33526       0   33528   33529   33530   33529   33530   33530       0
   33532   33533   33534   33533   33534   33534       0   33536   33537   33538
   33537   33538   33538       0   33540   33541   33542   33541   33542   33542
       0   33544   33545   33546   33545   33546   33546       0   33548   33549
   33550   33549   33550   33550       0   33552   33553   33554   33553   33554
   33554       0   33556   33557   33558   33557   33558   33558       0   33560
   33561   33562   33561   33562   33562       0   33564   33565   33566   33565
   33566   33566       0   33568   33569   33570   33569   33570   33570       0
   33572   33573   33574   33573   33574   33574       0   33576   33577   33578
   33577   33578   33578       0   33580   33581   33582   33581   33582   33582
       0   33584   33585   33586   33585   33586   33586       0   33588   33589
   33590   33589   33590   33590       0   33592   33593   33594   33593   33594
   33594       0   33596   33597   33598   33597   33598   33598       0   33600
   33601   33602   33601   33602   33602       0   33604   33605   33606   33605
   33606   33606       0   33608   33609   33610   33609   33610   33610       0
   33612   33613   33614   33613   33614   33614       0   33616   33617   33618
   33617   33618   33618       0   33620   33621   33622   33621   33622   33622
       0   33624   33625   33626   33625   33626   33626       0   33628   33629
   33630   33629   33630   33630       0   33632   33633   33634   33633   33634
   33634       0   33636   33637   33638   33637   33638   33638       0   33640
   33641   33642   33641   33642   33642       0   33644   33645   33646   33645
   33646   33646       0   33648   33649   33650   33649   33650   33650       0
   33652   33653   33654   33653   33654   33654       0   33656   33657   33658
   33657   33658   33658       0   33660   33661   33662   33661   33662   33662
       0   33664   33665   33666   33665   33666   33666       0   33668   33669
   33670   33669   33670   33670       0   33672   33673   33674   33673   33674
   33674       0   33676   33677   33678   33677   33678   33678       0   33680
   33681   33682   33681   33682   33682       0   33684   33685   33686   33685
   33686   33686       0   33688   33689   33690   33689   33690   33690       0
   33692   33693   33694   33693   33694   33694       0   33696   33697   33698
   33697   33698   33698       0   33700   33701   33702   33701   33702   33702
       0   33704   33705   33706   33705   33706   33706       0   33708   33709
   33710   33709   33710   33710       0   33712   33713   33714   33713   33714
   33714       0   33716   33717   33718   33717   33718   33718       0   33720
   33721   33722   33721   33722   33722       0   33724   33725   33726   33725
   33726   33726       0   33728   33729   33730   33729   33730   33730       0
   33732   33733   33734   33733   33734   33734       0   33736   33737   33738
   33737   33738   33738       0   33740   33741   33742   33741   33742   33742
       0   33744   33745   33746   33745   33746   33746       0   33748   33749
   33750   33749   33750   33750       0   33752   33753   33754   33753   33754
   33754       0   33756   33757   33758   33757   33758   33758       0   33760
   33761   33762   33761   33762   33762       0   33764   33765   33766   33765
   33766   33766       0   33768   33769   33770   33769   33770   33770       0
   33772   33773   33774   33773   33774   33774       0   33776   33777   33778
   33777   33778   33778       0   33780   33781   33782   33781   33782   33782
       0   33784   33785   33786   33785   33786   33786       0   33788   33789
   33790   33789   33790   33790       0   33792   33793   33794   33793   33794
   33794       0   33796   33797   33798   33797   33798   33798       0   33800
   33801   33802   33801   33802   33802       0   33804   33805   33806   33805
   33806   33806       0   33808   33809   33810   33809   33810   33810       0
   33812   33813   33814   33813   33814   33814       0   33816   33817   33818
   33817   33818   33818       0   33820   33821   33822   33821   33822   33822
       0   33824   33825   33826   33825   33826   33826       0   33828   33829
   33830   33829   33830   33830       0   33832   33833   33834   33833   33834
   33834       0   33836   33837   33838   33837   33838   33838       0   33840
   33841   33842   33841   33842   33842       0   33844   33845   33846   33845
   33846   33846       0   33848   33849   33850   33849   33850   33850       0
   33852   33853   33854   33853   33854   33854       0   33856   33857   33858
   33857   33858   33858       0   33860   33861   33862   33861   33862   33862
       0   33864   33865   33866   33865   33866   33866       0   33868   33869
   33870   33869   33870   33870       0   33872   33873   33874   33873   33874
   33874       0   33876   33877   33878   33877   33878   33878       0   33880
   33881   33882   33881   33882   33882       0   33884   33885   33886   33885
   33886   33886       0   33888   33889   33890   33889   33890   33890       0
   33892   33893   33894   33893   33894   33894       0   33896   33897   33898
   33897   33898   33898       0   33900   33901   33902   33901   33902   33902
       0   33904   33905   33906   33905   33906   33906       0   33908   33909
   33910   33909   33910   33910       0   33912   33913   33914   33913   33914
   33914       0   33916   33917   33918   33917   33918   33918       0   33920
   33921   33922   33921   33922   33922       0   33924   33925   33926   33925
   33926   33926       0   33928   33929   33930   33929   33930   33930       0
   33932   33933   33934   33933   33934   33934       0   33936   33937   33938
   33937   33938   33938       0   33940   33941   33942   33941   33942   33942
       0   33944   33945   33946   33945   33946   33946       0   33948   33949
   33950   33949   33950   33950       0   33952   33953   33954   33953   33954
   33954       0   33956   33957   33958   33957   33958   33958       0   33960
   33961   33962   33961   33962   33962       0   33964   33965   33966   33965
   33966   33966       0   33968   33969   33970   33969   33970   33970       0
   33972   33973   33974   33973   33974   33974       0   33976   33977   33978
   33977   33978   33978       0   33980   33981   33982   33981   33982   33982
       0   33984   33985   33986   33985   33986   33986       0   33988   33989
   33990   33989   33990   33990       0   33992   33993   33994   33993   33994
   33994       0   33996   33997   33998   33997   33998   33998       0   34000
   34001   34002   34001   34002   34002       0   34004   34005   34006   34005
   34006   34006       0   34008   34009   34010   34009   34010   34010       0
   34012   34013   34014   34013   34014   34014       0   34016   34017   34018
   34017   34018   34018       0   34020   34021   34022   34021   34022   34022
       0   34024   34025   34026   34025   34026   34026       0   34028   34029
   34030   34029   34030   34030       0   34032   34033   34034   34033   34034
   34034       0   34036   34037   34038   34037   34038   34038       0   34040
   34041   34042   34041   34042   34042       0   34044   34045   34046   34045
   34046   34046       0   34048   34049   34050   34049   34050   34050       0
   34052   34053   34054   34053   34054   34054       0   34056   34057   34058
   34057   34058   34058       0   34060   34061   34062   34061   34062   34062
       0   34064   34065   34066   34065   34066   34066       0   34068   34069
   34070   34069   34070   34070       0   34072   34073   34074   34073   34074
   34074       0   34076   34077   34078   34077   34078   34078       0   34080
   34081   34082   34081   34082   34082       0   34084   34085   34086   34085
   34086   34086       0   34088   34089   34090   34089   34090   34090       0
   34092   34093   34094   34093   34094   34094       0   34096   34097   34098
   34097   34098   34098       0   34100   34101   34102   34101   34102   34102
       0   34104   34105   34106   34105   34106   34106       0   34108   34109
   34110   34109   34110   34110       0   34112   34113   34114   34113   34114
   34114       0   34116   34117   34118   34117   34118   34118       0   34120
   34121   34122   34121   34122   34122       0   34124   34125   34126   34125
   34126   34126       0   34128   34129   34130   34129   34130   34130       0
   34132   34133   34134   34133   34134   34134       0   34136   34137   34138
   34137   34138   34138       0   34140   34141   34142   34141   34142   34142
       0   34144   34145   34146   34145   34146   34146       0   34148   34149
   34150   34149   34150   34150       0   34152   34153   34154   34153   34154
   34154       0   34156   34157   34158   34157   34158   34158       0   34160
   34161   34162   34161   34162   34162       0   34164   34165   34166   34165
   34166   34166       0   34168   34169   34170   34169   34170   34170       0
   34172   34173   34174   34173   34174   34174       0   34176   34177   34178
   34177   34178   34178       0   34180   34181   34182   34181   34182   34182
       0   34184   34185   34186   34185   34186   34186       0   34188   34189
   34190   34189   34190   34190       0   34192   34193   34194   34193   34194
   34194       0   34196   34197   34198   34197   34198   34198       0   34200
   34201   34202   34201   34202   34202       0   34204   34205   34206   34205
   34206   34206       0   34208   34209   34210   34209   34210   34210       0
   34212   34213   34214   34213   34214   34214       0   34216   34217   34218
   34217   34218   34218       0   34220   34221   34222   34221   34222   34222
       0   34224   34225   34226   34225   34226   34226       0   34228   34229
   34230   34229   34230   34230       0   34232   34233   34234   34233   34234
   34234       0   34236   34237   34238   34237   34238   34238       0   34240
   34241   34242   34241   34242   34242       0   34244   34245   34246   34245
   34246   34246       0   34248   34249   34250   34249   34250   34250       0
   34252   34253   34254   34253   34254   34254       0   34256   34257   34258
   34257   34258   34258       0   34260   34261   34262   34261   34262   34262
       0   34264   34265   34266   34265   34266   34266       0   34268   34269
   34270   34269   34270   34270       0   34272   34273   34274   34273   34274
   34274       0   34276   34277   34278   34277   34278   34278       0   34280
   34281   34282   34281   34282   34282       0   34284   34285   34286   34285
   34286   34286       0   34288   34289   34290   34289   34290   34290       0
   34292   34293   34294   34293   34294   34294       0   34296   34297   34298
   34297   34298   34298       0   34300   34301   34302   34301   34302   34302
       0   34304   34305   34306   34305   34306   34306       0   34308   34309
   34310   34309   34310   34310       0   34312   34313   34314   34313   34314
   34314       0   34316   34317   34318   34317   34318   34318       0   34320
   34321   34322   34321   34322   34322       0   34324   34325   34326   34325
   34326   34326       0   34328   34329   34330   34329   34330   34330       0
   34332   34333   34334   34333   34334   34334       0   34336   34337   34338
   34337   34338   34338       0   34340   34341   34342   34341   34342   34342
       0   34344   34345   34346   34345   34346   34346       0   34348   34349
   34350   34349   34350   34350       0   34352   34353   34354   34353   34354
   34354       0   34356   34357   34358   34357   34358   34358       0   34360
   34361   34362   34361   34362   34362       0   34364   34365   34366   34365
   34366   34366       0   34368   34369   34370   34369   34370   34370       0
   34372   34373   34374   34373   34374   34374       0   34376   34377   34378
   34377   34378   34378       0   34380   34381   34382   34381   34382   34382
       0   34384   34385   34386   34385   34386   34386       0   34388   34389
   34390   34389   34390   34390       0   34392   34393   34394   34393   34394
   34394       0   34396   34397   34398   34397   34398   34398       0   34400
   34401   34402   34401   34402   34402       0   34404   34405   34406   34405
   34406   34406       0   34408   34409   34410   34409   34410   34410       0
   34412   34413   34414   34413   34414   34414       0   34416   34417   34418
   34417   34418   34418       0   34420   34421   34422   34421   34422   34422
       0   34424   34425   34426   34425   34426   34426       0   34428   34429
   34430   34429   34430   34430       0   34432   34433   34434   34433   34434
   34434       0   34436   34437   34438   34437   34438   34438       0   34440
   34441   34442   34441   34442   34442       0   34444   34445   34446   34445
   34446   34446       0   34448   34449   34450   34449   34450   34450       0
   34452   34453   34454   34453   34454   34454       0   34456   34457   34458
   34457   34458   34458       0   34460   34461   34462   34461   34462   34462
       0   34464   34465   34466   34465   34466   34466       0   34468   34469
   34470   34469   34470   34470       0   34472   34473   34474   34473   34474
   34474       0   34476   34477   34478   34477   34478   34478       0   34480
   34481   34482   34481   34482   34482       0   34484   34485   34486   34485
   34486   34486       0   34488   34489   34490   34489   34490   34490       0
   34492   34493   34494   34493   34494   34494       0   34496   34497   34498
   34497   34498   34498       0   34500   34501   34502   34501   34502   34502
       0   34504   34505   34506   34505   34506   34506       0   34508   34509
   34510   34509   34510   34510       0   34512   34513   34514   34513   34514
   34514       0   34516   34517   34518   34517   34518   34518       0   34520
   34521   34522   34521   34522   34522       0   34524   34525   34526   34525
   34526   34526       0   34528   34529   34530   34529   34530   34530       0
   34532   34533   34534   34533   34534   34534       0   34536   34537   34538
   34537   34538   34538       0   34540   34541   34542   34541   34542   34542
       0   34544   34545   34546   34545   34546   34546       0   34548   34549
   34550   34549   34550   34550       0   34552   34553   34554   34553   34554
   34554       0   34556   34557   34558   34557   34558   34558       0   34560
   34561   34562   34561   34562   34562       0   34564   34565   34566   34565
   34566   34566       0   34568   34569   34570   34569   34570   34570       0
   34572   34573   34574   34573   34574   34574       0   34576   34577   34578
   34577   34578   34578       0   34580   34581   34582   34581   34582   34582
       0   34584   34585   34586   34585   34586   34586       0   34588   34589
   34590   34589   34590   34590       0   34592   34593   34594   34593   34594
   34594       0   34596   34597   34598   34597   34598   34598       0   34600
   34601   34602   34601   34602   34602       0   34604   34605   34606   34605
   34606   34606       0   34608   34609   34610   34609   34610   34610       0
   34612   34613   34614   34613   34614   34614       0   34616   34617   34618
   34617   34618   34618       0   34620   34621   34622   34621   34622   34622
       0   34624   34625   34626   34625   34626   34626       0   34628   34629
   34630   34629   34630   34630       0   34632   34633   34634   34633   34634
   34634       0   34636   34637   34638   34637   34638   34638       0   34640
   34641   34642   34641   34642   34642       0   34644   34645   34646   34645
   34646   34646       0   34648   34649   34650   34649   34650   34650       0
   34652   34653   34654   34653   34654   34654       0   34656   34657   34658
   34657   34658   34658       0   34660   34661   34662   34661   34662   34662
       0   34664   34665   34666   34665   34666   34666       0   34668   34669
   34670   34669   34670   34670       0   34672   34673   34674   34673   34674
   34674       0   34676   34677   34678   34677   34678   34678       0   34680
   34681   34682   34681   34682   34682       0   34684   34685   34686   34685
   34686   34686       0   34688   34689   34690   34689   34690   34690       0
   34692   34693   34694   34693   34694   34694       0   34696   34697   34698
   34697   34698   34698       0   34700   34701   34702   34701   34702   34702
       0   34704   34705   34706   34705   34706   34706       0   34708   34709
   34710   34709   34710   34710       0   34712   34713   34714   34713   34714
   34714       0   34716   34717   34718   34717   34718   34718       0   34720
   34721   34722   34721   34722   34722       0   34724   34725   34726   34725
   34726   34726       0   34728   34729   34730   34729   34730   34730       0
   34732   34733   34734   34733   34734   34734       0   34736   34737   34738
   34737   34738   34738       0   34740   34741   34742   34741   34742   34742
       0   34744   34745   34746   34745   34746   34746       0   34748   34749
   34750   34749   34750   34750       0   34752   34753   34754   34753   34754
   34754       0   34756   34757   34758   34757   34758   34758       0   34760
   34761   34762   34761   34762   34762       0   34764   34765   34766   34765
   34766   34766       0   34768   34769   34770   34769   34770   34770       0
   34772   34773   34774   34773   34774   34774       0   34776   34777   34778
   34777   34778   34778       0   34780   34781   34782   34781   34782   34782
       0   34784   34785   34786   34785   34786   34786       0   34788   34789
   34790   34789   34790   34790       0   34792   34793   34794   34793   34794
   34794       0   34796   34797   34798   34797   34798   34798       0   34800
   34801   34802   34801   34802   34802       0   34804   34805   34806   34805
   34806   34806       0   34808   34809   34810   34809   34810   34810       0
   34812   34813   34814   34813   34814   34814       0   34816   34817   34818
   34817   34818   34818       0   34820   34821   34822   34821   34822   34822
       0   34824   34825   34826   34825   34826   34826       0   34828   34829
   34830   34829   34830   34830       0   34832   34833   34834   34833   34834
   34834       0   34836   34837   34838   34837   34838   34838       0   34840
   34841   34842   34841   34842   34842       0   34844   34845   34846   34845
   34846   34846       0   34848   34849   34850   34849   34850   34850       0
   34852   34853   34854   34853   34854   34854       0   34856   34857   34858
   34857   34858   34858       0   34860   34861   34862   34861   34862   34862
       0   34864   34865   34866   34865   34866   34866       0   34868   34869
   34870   34869   34870   34870       0   34872   34873   34874   34873   34874
   34874       0   34876   34877   34878   34877   34878   34878       0   34880
   34881   34882   34881   34882   34882       0   34884   34885   34886   34885
   34886   34886       0   34888   34889   34890   34889   34890   34890       0
   34892   34893   34894   34893   34894   34894       0   34896   34897   34898
   34897   34898   34898       0   34900   34901   34902   34901   34902   34902
       0   34904   34905   34906   34905   34906   34906       0   34908   34909
   34910   34909   34910   34910       0   34912   34913   34914   34913   34914
   34914       0   34916   34917   34918   34917   34918   34918       0   34920
   34921   34922   34921   34922   34922       0   34924   34925   34926   34925
   34926   34926       0   34928   34929   34930   34929   34930   34930       0
   34932   34933   34934   34933   34934   34934       0   34936   34937   34938
   34937   34938   34938       0   34940   34941   34942   34941   34942   34942
       0   34944   34945   34946   34945   34946   34946       0   34948   34949
   34950   34949   34950   34950       0   34952   34953   34954   34953   34954
   34954       0   34956   34957   34958   34957   34958   34958       0   34960
   34961   34962   34961   34962   34962       0   34964   34965   34966   34965
   34966   34966       0   34968   34969   34970   34969   34970   34970       0
   34972   34973   34974   34973   34974   34974       0   34976   34977   34978
   34977   34978   34978       0   34980   34981   34982   34981   34982   34982
       0   34984   34985   34986   34985   34986   34986       0   34988   34989
   34990   34989   34990   34990       0   34992   34993   34994   34993   34994
   34994       0   34996   34997   34998   34997   34998   34998       0   35000
   35001   35002   35001   35002   35002       0   35004   35005   35006   35005
   35006   35006       0   35008   35009   35010   35009   35010   35010       0
   35012   35013   35014   35013   35014   35014       0   35016   35017   35018
   35017   35018   35018       0   35020   35021   35022   35021   35022   35022
       0   35024   35025   35026   35025   35026   35026       0   35028   35029
   35030   35029   35030   35030       0   35032   35033   35034   35033   35034
   35034       0   35036   35037   35038   35037   35038   35038       0   35040
   35041   35042   35041   35042   35042       0   35044   35045   35046   35045
   35046   35046       0   35048   35049   35050   35049   35050   35050       0
   35052   35053   35054   35053   35054   35054       0   35056   35057   35058
   35057   35058   35058       0   35060   35061   35062   35061   35062   35062
       0   35064   35065   35066   35065   35066   35066       0   35068   35069
   35070   35069   35070   35070       0   35072   35073   35074   35073   35074
   35074       0   35076   35077   35078   35077   35078   35078       0   35080
   35081   35082   35081   35082   35082       0   35084   35085   35086   35085
   35086   35086       0   35088   35089   35090   35089   35090   35090       0
   35092   35093   35094   35093   35094   35094       0   35096   35097   35098
   35097   35098   35098       0   35100   35101   35102   35101   35102   35102
       0   35104   35105   35106   35105   35106   35106       0   35108   35109
   35110   35109   35110   35110       0   35112   35113   35114   35113   35114
   35114       0   35116   35117   35118   35117   35118   35118       0   35120
   35121   35122   35121   35122   35122       0   35124   35125   35126   35125
   35126   35126       0   35128   35129   35130   35129   35130   35130       0
   35132   35133   35134   35133   35134   35134       0   35136   35137   35138
   35137   35138   35138       0   35140   35141   35142   35141   35142   35142
       0   35144   35145   35146   35145   35146   35146       0   35148   35149
   35150   35149   35150   35150       0   35152   35153   35154   35153   35154
   35154       0   35156   35157   35158   35157   35158   35158       0   35160
   35161   35162   35161   35162   35162       0   35164   35165   35166   35165
   35166   35166       0   35168   35169   35170   35169   35170   35170       0
   35172   35173   35174   35173   35174   35174       0   35176   35177   35178
   35177   35178   35178       0   35180   35181   35182   35181   35182   35182
       0   35184   35185   35186   35185   35186   35186       0   35188   35189
   35190   35189   35190   35190       0   35192   35193   35194   35193   35194
   35194       0   35196   35197   35198   35197   35198   35198       0   35200
   35201   35202   35201   35202   35202       0   35204   35205   35206   35205
   35206   35206       0   35208   35209   35210   35209   35210   35210       0
   35212   35213   35214   35213   35214   35214       0   35216   35217   35218
   35217   35218   35218       0   35220   35221   35222   35221   35222   35222
       0   35224   35225   35226   35225   35226   35226       0   35228   35229
   35230   35229   35230   35230       0   35232   35233   35234   35233   35234
   35234       0   35236   35237   35238   35237   35238   35238       0   35240
   35241   35242   35241   35242   35242       0   35244   35245   35246   35245
   35246   35246       0   35248   35249   35250   35249   35250   35250       0
   35252   35253   35254   35253   35254   35254       0   35256   35257   35258
   35257   35258   35258       0   35260   35261   35262   35261   35262   35262
       0   35264   35265   35266   35265   35266   35266       0   35268   35269
   35270   35269   35270   35270       0   35272   35273   35274   35273   35274
   35274       0   35276   35277   35278   35277   35278   35278       0   35280
   35281   35282   35281   35282   35282       0   35284   35285   35286   35285
   35286   35286       0   35288   35289   35290   35289   35290   35290       0
   35292   35293   35294   35293   35294   35294       0   35296   35297   35298
   35297   35298   35298       0   35300   35301   35302   35301   35302   35302
       0   35304   35305   35306   35305   35306   35306       0   35308   35309
   35310   35309   35310   35310       0   35312   35313   35314   35313   35314
   35314       0   35316   35317   35318   35317   35318   35318       0   35320
   35321   35322   35321   35322   35322       0   35324   35325   35326   35325
   35326   35326       0   35328   35329   35330   35329   35330   35330       0
   35332   35333   35334   35333   35334   35334       0   35336   35337   35338
   35337   35338   35338       0   35340   35341   35342   35341   35342   35342
       0   35344   35345   35346   35345   35346   35346       0   35348   35349
   35350   35349   35350   35350       0   35352   35353   35354   35353   35354
   35354       0   35356   35357   35358   35357   35358   35358       0   35360
   35361   35362   35361   35362   35362       0   35364   35365   35366   35365
   35366   35366       0   35368   35369   35370   35369   35370   35370       0
   35372   35373   35374   35373   35374   35374       0   35376   35377   35378
   35377   35378   35378       0   35380   35381   35382   35381   35382   35382
       0   35384   35385   35386   35385   35386   35386       0   35388   35389
   35390   35389   35390   35390       0   35392   35393   35394   35393   35394
   35394       0   35396   35397   35398   35397   35398   35398       0   35400
   35401   35402   35401   35402   35402       0   35404   35405   35406   35405
   35406   35406       0   35408   35409   35410   35409   35410   35410       0
   35412   35413   35414   35413   35414   35414       0   35416   35417   35418
   35417   35418   35418       0   35420   35421   35422   35421   35422   35422
       0   35424   35425   35426   35425   35426   35426       0   35428   35429
   35430   35429   35430   35430       0   35432   35433   35434   35433   35434
   35434       0   35436   35437   35438   35437   35438   35438       0   35440
   35441   35442   35441   35442   35442       0   35444   35445   35446   35445
   35446   35446       0   35448   35449   35450   35449   35450   35450       0
   35452   35453   35454   35453   35454   35454       0   35456   35457   35458
   35457   35458   35458       0   35460   35461   35462   35461   35462   35462
       0   35464   35465   35466   35465   35466   35466       0   35468   35469
   35470   35469   35470   35470       0   35472   35473   35474   35473   35474
   35474       0   35476   35477   35478   35477   35478   35478       0   35480
   35481   35482   35481   35482   35482       0   35484   35485   35486   35485
   35486   35486       0   35488   35489   35490   35489   35490   35490       0
   35492   35493   35494   35493   35494   35494       0   35496   35497   35498
   35497   35498   35498       0   35500   35501   35502   35501   35502   35502
       0   35504   35505   35506   35505   35506   35506       0   35508   35509
   35510   35509   35510   35510       0   35512   35513   35514   35513   35514
   35514       0   35516   35517   35518   35517   35518   35518       0   35520
   35521   35522   35521   35522   35522       0   35524   35525   35526   35525
   35526   35526       0   35528   35529   35530   35529   35530   35530       0
   35532   35533   35534   35533   35534   35534       0   35536   35537   35538
   35537   35538   35538       0   35540   35541   35542   35541   35542   35542
       0   35544   35545   35546   35545   35546   35546       0   35548   35549
   35550   35549   35550   35550       0   35552   35553   35554   35553   35554
   35554       0   35556   35557   35558   35557   35558   35558       0   35560
   35561   35562   35561   35562   35562       0   35564   35565   35566   35565
   35566   35566       0   35568   35569   35570   35569   35570   35570       0
   35572   35573   35574   35573   35574   35574       0   35576   35577   35578
   35577   35578   35578       0   35580   35581   35582   35581   35582   35582
       0   35584   35585   35586   35585   35586   35586       0   35588   35589
   35590   35589   35590   35590       0   35592   35593   35594   35593   35594
   35594       0   35596   35597   35598   35597   35598   35598       0   35600
   35601   35602   35601   35602   35602       0   35604   35605   35606   35605
   35606   35606       0   35608   35609   35610   35609   35610   35610       0
   35612   35613   35614   35613   35614   35614       0   35616   35617   35618
   35617   35618   35618       0   35620   35621   35622   35621   35622   35622
       0   35624   35625   35626   35625   35626   35626       0   35628   35629
   35630   35629   35630   35630       0   35632   35633   35634   35633   35634
   35634       0   35636   35637   35638   35637   35638   35638       0   35640
   35641   35642   35641   35642   35642       0   35644   35645   35646   35645
   35646   35646       0   35648   35649   35650   35649   35650   35650       0
   35652   35653   35654   35653   35654   35654       0   35656   35657   35658
   35657   35658   35658       0   35660   35661   35662   35661   35662   35662
       0   35664   35665   35666   35665   35666   35666       0   35668   35669
   35670   35669   35670   35670       0   35672   35673   35674   35673   35674
   35674       0   35676   35677   35678   35677   35678   35678       0   35680
   35681   35682   35681   35682   35682       0   35684   35685   35686   35685
   35686   35686       0   35688   35689   35690   35689   35690   35690       0
   35692   35693   35694   35693   35694   35694       0   35696   35697   35698
   35697   35698   35698       0   35700   35701   35702   35701   35702   35702
       0   35704   35705   35706   35705   35706   35706       0   35708   35709
   35710   35709   35710   35710       0   35712   35713   35714   35713   35714
   35714       0   35716   35717   35718   35717   35718   35718       0   35720
   35721   35722   35721   35722   35722       0   35724   35725   35726   35725
   35726   35726       0   35728   35729   35730   35729   35730   35730       0
   35732   35733   35734   35733   35734   35734       0   35736   35737   35738
   35737   35738   35738       0   35740   35741   35742   35741   35742   35742
       0   35744   35745   35746   35745   35746   35746       0   35748   35749
   35750   35749   35750   35750       0   35752   35753   35754   35753   35754
   35754       0   35756   35757   35758   35757   35758   35758       0   35760
   35761   35762   35761   35762   35762       0   35764   35765   35766   35765
   35766   35766       0   35768   35769   35770   35769   35770   35770       0
   35772   35773   35774   35773   35774   35774       0   35776   35777   35778
   35777   35778   35778       0   35780   35781   35782   35781   35782   35782
       0   35784   35785   35786   35785   35786   35786       0   35788   35789
   35790   35789   35790   35790       0   35792   35793   35794   35793   35794
   35794       0   35796   35797   35798   35797   35798   35798       0   35800
   35801   35802   35801   35802   35802       0   35804   35805   35806   35805
   35806   35806       0   35808   35809   35810   35809   35810   35810       0
   35812   35813   35814   35813   35814   35814       0   35816   35817   35818
   35817   35818   35818       0   35820   35821   35822   35821   35822   35822
       0   35824   35825   35826   35825   35826   35826       0   35828   35829
   35830   35829   35830   35830       0   35832   35833   35834   35833   35834
   35834       0   35836   35837   35838   35837   35838   35838       0   35840
   35841   35842   35841   35842   35842       0   35844   35845   35846   35845
   35846   35846       0   35848   35849   35850   35849   35850   35850       0
   35852   35853   35854   35853   35854   35854       0   35856   35857   35858
   35857   35858   35858       0   35860   35861   35862   35861   35862   35862
       0   35864   35865   35866   35865   35866   35866       0   35868   35869
   35870   35869   35870   35870       0   35872   35873   35874   35873   35874
   35874       0   35876   35877   35878   35877   35878   35878       0   35880
   35881   35882   35881   35882   35882       0   35884   35885   35886   35885
   35886   35886       0   35888   35889   35890   35889   35890   35890       0
   35892   35893   35894   35893   35894   35894       0   35896   35897   35898
   35897   35898   35898       0   35900   35901   35902   35901   35902   35902
       0   35904   35905   35906   35905   35906   35906       0   35908   35909
   35910   35909   35910   35910       0   35912   35913   35914   35913   35914
   35914       0   35916   35917   35918   35917   35918   35918       0   35920
   35921   35922   35921   35922   35922       0   35924   35925   35926   35925
   35926   35926       0   35928   35929   35930   35929   35930   35930       0
   35932   35933   35934   35933   35934   35934       0   35936   35937   35938
   35937   35938   35938       0   35940   35941   35942   35941   35942   35942
       0   35944   35945   35946   35945   35946   35946       0   35948   35949
   35950   35949   35950   35950       0   35952   35953   35954   35953   35954
   35954       0   35956   35957   35958   35957   35958   35958       0   35960
   35961   35962   35961   35962   35962       0   35964   35965   35966   35965
   35966   35966       0   35968   35969   35970   35969   35970   35970       0
   35972   35973   35974   35973   35974   35974       0   35976   35977   35978
   35977   35978   35978       0   35980   35981   35982   35981   35982   35982
       0   35984   35985   35986   35985   35986   35986       0   35988   35989
   35990   35989   35990   35990       0   35992   35993   35994   35993   35994
   35994       0   35996   35997   35998   35997   35998   35998       0   36000
   36001   36002   36001   36002   36002       0   36004   36005   36006   36005
   36006   36006       0   36008   36009   36010   36009   36010   36010       0
   36012   36013   36014   36013   36014   36014       0   36016   36017   36018
   36017   36018   36018       0   36020   36021   36022   36021   36022   36022
       0   36024   36025   36026   36025   36026   36026       0   36028   36029
   36030   36029   36030   36030       0   36032   36033   36034   36033   36034
   36034       0   36036   36037   36038   36037   36038   36038       0   36040
   36041   36042   36041   36042   36042       0   36044   36045   36046   36045
   36046   36046       0   36048   36049   36050   36049   36050   36050       0
   36052   36053   36054   36053   36054   36054       0   36056   36057   36058
   36057   36058   36058       0   36060   36061   36062   36061   36062   36062
       0   36064   36065   36066   36065   36066   36066       0   36068   36069
   36070   36069   36070   36070       0   36072   36073   36074   36073   36074
   36074       0   36076   36077   36078   36077   36078   36078       0   36080
   36081   36082   36081   36082   36082       0   36084   36085   36086   36085
   36086   36086       0   36088   36089   36090   36089   36090   36090       0
   36092   36093   36094   36093   36094   36094       0   36096   36097   36098
   36097   36098   36098       0   36100   36101   36102   36101   36102   36102
       0   36104   36105   36106   36105   36106   36106       0   36108   36109
   36110   36109   36110   36110       0   36112   36113   36114   36113   36114
   36114       0   36116   36117   36118   36117   36118   36118       0   36120
   36121   36122   36121   36122   36122       0   36124   36125   36126   36125
   36126   36126       0   36128   36129   36130   36129   36130   36130       0
   36132   36133   36134   36133   36134   36134       0   36136   36137   36138
   36137   36138   36138       0   36140   36141   36142   36141   36142   36142
       0   36144   36145   36146   36145   36146   36146       0   36148   36149
   36150   36149   36150   36150       0   36152   36153   36154   36153   36154
   36154       0   36156   36157   36158   36157   36158   36158       0   36160
   36161   36162   36161   36162   36162       0   36164   36165   36166   36165
   36166   36166       0   36168   36169   36170   36169   36170   36170       0
   36172   36173   36174   36173   36174   36174       0   36176   36177   36178
   36177   36178   36178       0   36180   36181   36182   36181   36182   36182
       0   36184   36185   36186   36185   36186   36186       0   36188   36189
   36190   36189   36190   36190       0   36192   36193   36194   36193   36194
   36194       0   36196   36197   36198   36197   36198   36198       0   36200
   36201   36202   36201   36202   36202       0   36204   36205   36206   36205
   36206   36206       0   36208   36209   36210   36209   36210   36210       0
   36212   36213   36214   36213   36214   36214       0   36216   36217   36218
   36217   36218   36218       0   36220   36221   36222   36221   36222   36222
       0   36224   36225   36226   36225   36226   36226       0   36228   36229
   36230   36229   36230   36230       0   36232   36233   36234   36233   36234
   36234       0   36236   36237   36238   36237   36238   36238       0   36240
   36241   36242   36241   36242   36242       0   36244   36245   36246   36245
   36246   36246       0   36248   36249   36250   36249   36250   36250       0
   36252   36253   36254   36253   36254   36254       0   36256   36257   36258
   36257   36258   36258       0   36260   36261   36262   36261   36262   36262
       0   36264   36265   36266   36265   36266   36266       0   36268   36269
   36270   36269   36270   36270       0   36272   36273   36274   36273   36274
   36274       0   36276   36277   36278   36277   36278   36278       0   36280
   36281   36282   36281   36282   36282       0   36284   36285   36286   36285
   36286   36286       0   36288   36289   36290   36289   36290   36290       0
   36292   36293   36294   36293   36294   36294       0   36296   36297   36298
   36297   36298   36298       0   36300   36301   36302   36301   36302   36302
       0   36304   36305   36306   36305   36306   36306       0   36308   36309
   36310   36309   36310   36310       0   36312   36313   36314   36313   36314
   36314       0   36316   36317   36318   36317   36318   36318       0   36320
   36321   36322   36321   36322   36322       0   36324   36325   36326   36325
   36326   36326       0   36328   36329   36330   36329   36330   36330       0
   36332   36333   36334   36333   36334   36334       0   36336   36337   36338
   36337   36338   36338       0   36340   36341   36342   36341   36342   36342
       0   36344   36345   36346   36345   36346   36346       0   36348   36349
   36350   36349   36350   36350       0   36352   36353   36354   36353   36354
   36354       0   36356   36357   36358   36357   36358   36358       0   36360
   36361   36362   36361   36362   36362       0   36364   36365   36366   36365
   36366   36366       0   36368   36369   36370   36369   36370   36370       0
   36372   36373   36374   36373   36374   36374       0   36376   36377   36378
   36377   36378   36378       0   36380   36381   36382   36381   36382   36382
       0   36384   36385   36386   36385   36386   36386       0   36388   36389
   36390   36389   36390   36390       0   36392   36393   36394   36393   36394
   36394       0   36396   36397   36398   36397   36398   36398       0   36400
   36401   36402   36401   36402   36402       0   36404   36405   36406   36405
   36406   36406       0   36408   36409   36410   36409   36410   36410       0
   36412   36413   36414   36413   36414   36414       0   36416   36417   36418
   36417   36418   36418       0   36420   36421   36422   36421   36422   36422
       0   36424   36425   36426   36425   36426   36426       0   36428   36429
   36430   36429   36430   36430       0   36432   36433   36434   36433   36434
   36434       0   36436   36437   36438   36437   36438   36438       0   36440
   36441   36442   36441   36442   36442       0   36444   36445   36446   36445
   36446   36446       0   36448   36449   36450   36449   36450   36450       0
   36452   36453   36454   36453   36454   36454       0   36456   36457   36458
   36457   36458   36458       0   36460   36461   36462   36461   36462   36462
       0   36464   36465   36466   36465   36466   36466       0   36468   36469
   36470   36469   36470   36470       0   36472   36473   36474   36473   36474
   36474       0   36476   36477   36478   36477   36478   36478       0   36480
   36481   36482   36481   36482   36482       0   36484   36485   36486   36485
   36486   36486       0   36488   36489   36490   36489   36490   36490       0
   36492   36493   36494   36493   36494   36494       0   36496   36497   36498
   36497   36498   36498       0   36500   36501   36502   36501   36502   36502
       0   36504   36505   36506   36505   36506   36506       0   36508   36509
   36510   36509   36510   36510       0   36512   36513   36514   36513   36514
   36514       0   36516   36517   36518   36517   36518   36518       0   36520
   36521   36522   36521   36522   36522       0   36524   36525   36526   36525
   36526   36526       0   36528   36529   36530   36529   36530   36530       0
   36532   36533   36534   36533   36534   36534       0   36536   36537   36538
   36537   36538   36538       0   36540   36541   36542   36541   36542   36542
       0   36544   36545   36546   36545   36546   36546       0   36548   36549
   36550   36549   36550   36550       0   36552   36553   36554   36553   36554
   36554       0   36556   36557   36558   36557   36558   36558       0   36560
   36561   36562   36561   36562   36562       0   36564   36565   36566   36565
   36566   36566       0   36568   36569   36570   36569   36570   36570       0
   36572   36573   36574   36573   36574   36574       0   36576   36577   36578
   36577   36578   36578       0   36580   36581   36582   36581   36582   36582
       0   36584   36585   36586   36585   36586   36586       0   36588   36589
   36590   36589   36590   36590       0   36592   36593   36594   36593   36594
   36594       0   36596   36597   36598   36597   36598   36598       0   36600
   36601   36602   36601   36602   36602       0   36604   36605   36606   36605
   36606   36606       0   36608   36609   36610   36609   36610   36610       0
   36612   36613   36614   36613   36614   36614       0   36616   36617   36618
   36617   36618   36618       0   36620   36621   36622   36621   36622   36622
       0   36624   36625   36626   36625   36626   36626       0   36628   36629
   36630   36629   36630   36630       0   36632   36633   36634   36633   36634
   36634       0   36636   36637   36638   36637   36638   36638       0   36640
   36641   36642   36641   36642   36642       0   36644   36645   36646   36645
   36646   36646       0   36648   36649   36650   36649   36650   36650       0
   36652   36653   36654   36653   36654   36654       0   36656   36657   36658
   36657   36658   36658       0   36660   36661   36662   36661   36662   36662
       0   36664   36665   36666   36665   36666   36666       0   36668   36669
   36670   36669   36670   36670       0   36672   36673   36674   36673   36674
   36674       0   36676   36677   36678   36677   36678   36678       0   36680
   36681   36682   36681   36682   36682       0   36684   36685   36686   36685
   36686   36686       0   36688   36689   36690   36689   36690   36690       0
   36692   36693   36694   36693   36694   36694       0   36696   36697   36698
   36697   36698   36698       0   36700   36701   36702   36701   36702   36702
       0   36704   36705   36706   36705   36706   36706       0   36708   36709
   36710   36709   36710   36710       0   36712   36713   36714   36713   36714
   36714       0   36716   36717   36718   36717   36718   36718       0   36720
   36721   36722   36721   36722   36722       0   36724   36725   36726   36725
   36726   36726       0   36728   36729   36730   36729   36730   36730       0
   36732   36733   36734   36733   36734   36734       0   36736   36737   36738
   36737   36738   36738       0   36740   36741   36742   36741   36742   36742
       0   36744   36745   36746   36745   36746   36746       0   36748   36749
   36750   36749   36750   36750       0   36752   36753   36754   36753   36754
   36754       0   36756   36757   36758   36757   36758   36758       0   36760
   36761   36762   36761   36762   36762       0   36764   36765   36766   36765
   36766   36766       0   36768   36769   36770   36769   36770   36770       0
   36772   36773   36774   36773   36774   36774       0   36776   36777   36778
   36777   36778   36778       0   36780   36781   36782   36781   36782   36782
       0   36784   36785   36786   36785   36786   36786       0   36788   36789
   36790   36789   36790   36790       0   36792   36793   36794   36793   36794
   36794       0   36796   36797   36798   36797   36798   36798       0   36800
   36801   36802   36801   36802   36802       0   36804   36805   36806   36805
   36806   36806       0   36808   36809   36810   36809   36810   36810       0
   36812   36813   36814   36813   36814   36814       0   36816   36817   36818
   36817   36818   36818       0   36820   36821   36822   36821   36822   36822
       0   36824   36825   36826   36825   36826   36826       0   36828   36829
   36830   36829   36830   36830       0   36832   36833   36834   36833   36834
   36834       0   36836   36837   36838   36837   36838   36838       0   36840
   36841   36842   36841   36842   36842       0   36844   36845   36846   36845
   36846   36846       0   36848   36849   36850   36849   36850   36850       0
   36852   36853   36854   36853   36854   36854       0   36856   36857   36858
   36857   36858   36858       0   36860   36861   36862   36861   36862   36862
       0   36864   36865   36866   36865   36866   36866       0   36868   36869
   36870   36869   36870   36870       0   36872   36873   36874   36873   36874
   36874       0   36876   36877   36878   36877   36878   36878       0   36880
   36881   36882   36881   36882   36882       0   36884   36885   36886   36885
   36886   36886       0   36888   36889   36890   36889   36890   36890       0
   36892   36893   36894   36893   36894   36894       0   36896   36897   36898
   36897   36898   36898       0   36900   36901   36902   36901   36902   36902
       0   36904   36905   36906   36905   36906   36906       0   36908   36909
   36910   36909   36910   36910       0   36912   36913   36914   36913   36914
   36914       0   36916   36917   36918   36917   36918   36918       0   36920
   36921   36922   36921   36922   36922       0   36924   36925   36926   36925
   36926   36926       0   36928   36929   36930   36929   36930   36930       0
   36932   36933   36934   36933   36934   36934       0   36936   36937   36938
   36937   36938   36938       0   36940   36941   36942   36941   36942   36942
       0   36944   36945   36946   36945   36946   36946       0   36948   36949
   36950   36949   36950   36950       0   36952   36953   36954   36953   36954
   36954       0   36956   36957   36958   36957   36958   36958       0   36960
   36961   36962   36961   36962   36962       0   36964   36965   36966   36965
   36966   36966       0   36968   36969   36970   36969   36970   36970       0
   36972   36973   36974   36973   36974   36974       0   36976   36977   36978
   36977   36978   36978       0   36980   36981   36982   36981   36982   36982
       0   36984   36985   36986   36985   36986   36986       0   36988   36989
   36990   36989   36990   36990       0   36992   36993   36994   36993   36994
   36994       0   36996   36997   36998   36997   36998   36998       0   37000
   37001   37002   37001   37002   37002       0   37004   37005   37006   37005
   37006   37006       0   37008   37009   37010   37009   37010   37010       0
   37012   37013   37014   37013   37014   37014       0   37016   37017   37018
   37017   37018   37018       0   37020   37021   37022   37021   37022   37022
       0   37024   37025   37026   37025   37026   37026       0   37028   37029
   37030   37029   37030   37030       0   37032   37033   37034   37033   37034
   37034       0   37036   37037   37038   37037   37038   37038       0   37040
   37041   37042   37041   37042   37042       0   37044   37045   37046   37045
   37046   37046       0   37048   37049   37050   37049   37050   37050       0
   37052   37053   37054   37053   37054   37054       0   37056   37057   37058
   37057   37058   37058       0   37060   37061   37062   37061   37062   37062
       0   37064   37065   37066   37065   37066   37066       0   37068   37069
   37070   37069   37070   37070       0   37072   37073   37074   37073   37074
   37074       0   37076   37077   37078   37077   37078   37078       0   37080
   37081   37082   37081   37082   37082       0   37084   37085   37086   37085
   37086   37086       0   37088   37089   37090   37089   37090   37090       0
   37092   37093   37094   37093   37094   37094       0   37096   37097   37098
   37097   37098   37098       0   37100   37101   37102   37101   37102   37102
       0   37104   37105   37106   37105   37106   37106       0   37108   37109
   37110   37109   37110   37110       0   37112   37113   37114   37113   37114
   37114       0   37116   37117   37118   37117   37118   37118       0   37120
   37121   37122   37121   37122   37122       0   37124   37125   37126   37125
   37126   37126       0   37128   37129   37130   37129   37130   37130       0
   37132   37133   37134   37133   37134   37134       0   37136   37137   37138
   37137   37138   37138       0   37140   37141   37142   37141   37142   37142
       0   37144   37145   37146   37145   37146   37146       0   37148   37149
   37150   37149   37150   37150       0   37152   37153   37154   37153   37154
   37154       0   37156   37157   37158   37157   37158   37158       0   37160
   37161   37162   37161   37162   37162       0   37164   37165   37166   37165
   37166   37166       0   37168   37169   37170   37169   37170   37170       0
   37172   37173   37174   37173   37174   37174       0   37176   37177   37178
   37177   37178   37178       0   37180   37181   37182   37181   37182   37182
       0   37184   37185   37186   37185   37186   37186       0   37188   37189
   37190   37189   37190   37190       0   37192   37193   37194   37193   37194
   37194       0   37196   37197   37198   37197   37198   37198       0   37200
   37201   37202   37201   37202   37202       0   37204   37205   37206   37205
   37206   37206       0   37208   37209   37210   37209   37210   37210       0
   37212   37213   37214   37213   37214   37214       0   37216   37217   37218
   37217   37218   37218       0   37220   37221   37222   37221   37222   37222
       0   37224   37225   37226   37225   37226   37226       0   37228   37229
   37230   37229   37230   37230       0   37232   37233   37234   37233   37234
   37234       0   37236   37237   37238   37237   37238   37238       0   37240
   37241   37242   37241   37242   37242       0   37244   37245   37246   37245
   37246   37246       0   37248   37249   37250   37249   37250   37250       0
   37252   37253   37254   37253   37254   37254       0   37256   37257   37258
   37257   37258   37258       0   37260   37261   37262   37261   37262   37262
       0   37264   37265   37266   37265   37266   37266       0   37268   37269
   37270   37269   37270   37270       0   37272   37273   37274   37273   37274
   37274       0   37276   37277   37278   37277   37278   37278       0   37280
   37281   37282   37281   37282   37282       0   37284   37285   37286   37285
   37286   37286       0   37288   37289   37290   37289   37290   37290       0
   37292   37293   37294   37293   37294   37294       0   37296   37297   37298
   37297   37298   37298       0   37300   37301   37302   37301   37302   37302
       0   37304   37305   37306   37305   37306   37306       0   37308   37309
   37310   37309   37310   37310       0   37312   37313   37314   37313   37314
   37314       0   37316   37317   37318   37317   37318   37318       0   37320
   37321   37322   37321   37322   37322       0   37324   37325   37326   37325
   37326   37326       0   37328   37329   37330   37329   37330   37330       0
   37332   37333   37334   37333   37334   37334       0   37336   37337   37338
   37337   37338   37338       0   37340   37341   37342   37341   37342   37342
       0   37344   37345   37346   37345   37346   37346       0   37348   37349
   37350   37349   37350   37350       0   37352   37353   37354   37353   37354
   37354       0   37356   37357   37358   37357   37358   37358       0   37360
   37361   37362   37361   37362   37362       0   37364   37365   37366   37365
   37366   37366       0   37368   37369   37370   37369   37370   37370       0
   37372   37373   37374   37373   37374   37374       0   37376   37377   37378
   37377   37378   37378       0   37380   37381   37382   37381   37382   37382
       0   37384   37385   37386   37385   37386   37386       0   37388   37389
   37390   37389   37390   37390       0   37392   37393   37394   37393   37394
   37394       0   37396   37397   37398   37397   37398   37398       0   37400
   37401   37402   37401   37402   37402       0   37404   37405   37406   37405
   37406   37406       0   37408   37409   37410   37409   37410   37410       0
   37412   37413   37414   37413   37414   37414       0   37416   37417   37418
   37417   37418   37418       0   37420   37421   37422   37421   37422   37422
       0   37424   37425   37426   37425   37426   37426       0   37428   37429
   37430   37429   37430   37430       0   37432   37433   37434   37433   37434
   37434       0   37436   37437   37438   37437   37438   37438       0   37440
   37441   37442   37441   37442   37442       0   37444   37445   37446   37445
   37446   37446       0   37448   37449   37450   37449   37450   37450       0
   37452   37453   37454   37453   37454   37454       0   37456   37457   37458
   37457   37458   37458       0   37460   37461   37462   37461   37462   37462
       0   37464   37465   37466   37465   37466   37466       0   37468   37469
   37470   37469   37470   37470       0   37472   37473   37474   37473   37474
   37474       0   37476   37477   37478   37477   37478   37478       0   37480
   37481   37482   37481   37482   37482       0   37484   37485   37486   37485
   37486   37486       0   37488   37489   37490   37489   37490   37490       0
   37492   37493   37494   37493   37494   37494       0   37496   37497   37498
   37497   37498   37498       0   37500   37501   37502   37501   37502   37502
       0   37504   37505   37506   37505   37506   37506       0   37508   37509
   37510   37509   37510   37510       0   37512   37513   37514   37513   37514
   37514       0   37516   37517   37518   37517   37518   37518       0   37520
   37521   37522   37521   37522   37522       0   37524   37525   37526   37525
   37526   37526       0   37528   37529   37530   37529   37530   37530       0
   37532   37533   37534   37533   37534   37534       0   37536   37537   37538
   37537   37538   37538       0   37540   37541   37542   37541   37542   37542
       0   37544   37545   37546   37545   37546   37546       0   37548   37549
   37550   37549   37550   37550       0   37552   37553   37554   37553   37554
   37554       0   37556   37557   37558   37557   37558   37558       0   37560
   37561   37562   37561   37562   37562       0   37564   37565   37566   37565
   37566   37566       0   37568   37569   37570   37569   37570   37570       0
   37572   37573   37574   37573   37574   37574       0   37576   37577   37578
   37577   37578   37578       0   37580   37581   37582   37581   37582   37582
       0   37584   37585   37586   37585   37586   37586       0   37588   37589
   37590   37589   37590   37590       0   37592   37593   37594   37593   37594
   37594       0   37596   37597   37598   37597   37598   37598       0   37600
   37601   37602   37601   37602   37602       0   37604   37605   37606   37605
   37606   37606       0   37608   37609   37610   37609   37610   37610       0
   37612   37613   37614   37613   37614   37614       0   37616   37617   37618
   37617   37618   37618       0   37620   37621   37622   37621   37622   37622
       0   37624   37625   37626   37625   37626   37626       0   37628   37629
   37630   37629   37630   37630       0   37632   37633   37634   37633   37634
   37634       0   37636   37637   37638   37637   37638   37638       0   37640
   37641   37642   37641   37642   37642       0   37644   37645   37646   37645
   37646   37646       0   37648   37649   37650   37649   37650   37650       0
   37652   37653   37654   37653   37654   37654       0   37656   37657   37658
   37657   37658   37658       0   37660   37661   37662   37661   37662   37662
       0   37664   37665   37666   37665   37666   37666       0   37668   37669
   37670   37669   37670   37670       0   37672   37673   37674   37673   37674
   37674       0   37676   37677   37678   37677   37678   37678       0   37680
   37681   37682   37681   37682   37682       0   37684   37685   37686   37685
   37686   37686       0   37688   37689   37690   37689   37690   37690       0
   37692   37693   37694   37693   37694   37694       0   37696   37697   37698
   37697   37698   37698       0   37700   37701   37702   37701   37702   37702
       0   37704   37705   37706   37705   37706   37706       0   37708   37709
   37710   37709   37710   37710       0   37712   37713   37714   37713   37714
   37714       0   37716   37717   37718   37717   37718   37718       0   37720
   37721   37722   37721   37722   37722       0   37724   37725   37726   37725
   37726   37726       0   37728   37729   37730   37729   37730   37730       0
   37732   37733   37734   37733   37734   37734       0   37736   37737   37738
   37737   37738   37738       0   37740   37741   37742   37741   37742   37742
       0   37744   37745   37746   37745   37746   37746       0   37748   37749
   37750   37749   37750   37750       0   37752   37753   37754   37753   37754
   37754       0   37756   37757   37758   37757   37758   37758       0   37760
   37761   37762   37761   37762   37762       0   37764   37765   37766   37765
   37766   37766       0   37768   37769   37770   37769   37770   37770       0
   37772   37773   37774   37773   37774   37774       0   37776   37777   37778
   37777   37778   37778       0   37780   37781   37782   37781   37782   37782
       0   37784   37785   37786   37785   37786   37786       0   37788   37789
   37790   37789   37790   37790       0   37792   37793   37794   37793   37794
   37794       0   37796   37797   37798   37797   37798   37798       0   37800
   37801   37802   37801   37802   37802       0   37804   37805   37806   37805
   37806   37806       0   37808   37809   37810   37809   37810   37810       0
   37812   37813   37814   37813   37814   37814       0   37816   37817   37818
   37817   37818   37818       0   37820   37821   37822   37821   37822   37822
       0   37824   37825   37826   37825   37826   37826       0   37828   37829
   37830   37829   37830   37830       0   37832   37833   37834   37833   37834
   37834       0   37836   37837   37838   37837   37838   37838       0   37840
   37841   37842   37841   37842   37842       0   37844   37845   37846   37845
   37846   37846       0   37848   37849   37850   37849   37850   37850       0
   37852   37853   37854   37853   37854   37854       0   37856   37857   37858
   37857   37858   37858       0   37860   37861   37862   37861   37862   37862
       0   37864   37865   37866   37865   37866   37866       0   37868   37869
   37870   37869   37870   37870       0   37872   37873   37874   37873   37874
   37874       0   37876   37877   37878   37877   37878   37878       0   37880
   37881   37882   37881   37882   37882       0   37884   37885   37886   37885
   37886   37886       0   37888   37889   37890   37889   37890   37890       0
   37892   37893   37894   37893   37894   37894       0   37896   37897   37898
   37897   37898   37898       0   37900   37901   37902   37901   37902   37902
       0   37904   37905   37906   37905   37906   37906       0   37908   37909
   37910   37909   37910   37910       0   37912   37913   37914   37913   37914
   37914       0   37916   37917   37918   37917   37918   37918       0   37920
   37921   37922   37921   37922   37922       0   37924   37925   37926   37925
   37926   37926       0   37928   37929   37930   37929   37930   37930       0
   37932   37933   37934   37933   37934   37934       0   37936   37937   37938
   37937   37938   37938       0   37940   37941   37942   37941   37942   37942
       0   37944   37945   37946   37945   37946   37946       0   37948   37949
   37950   37949   37950   37950       0   37952   37953   37954   37953   37954
   37954       0   37956   37957   37958   37957   37958   37958       0   37960
   37961   37962   37961   37962   37962       0   37964   37965   37966   37965
   37966   37966       0   37968   37969   37970   37969   37970   37970       0
   37972   37973   37974   37973   37974   37974       0   37976   37977   37978
   37977   37978   37978       0   37980   37981   37982   37981   37982   37982
       0   37984   37985   37986   37985   37986   37986       0   37988   37989
   37990   37989   37990   37990       0   37992   37993   37994   37993   37994
   37994       0   37996   37997   37998   37997   37998   37998       0   38000
   38001   38002   38001   38002   38002       0   38004   38005   38006   38005
   38006   38006       0   38008   38009   38010   38009   38010   38010       0
   38012   38013   38014   38013   38014   38014       0   38016   38017   38018
   38017   38018   38018       0   38020   38021   38022   38021   38022   38022
       0   38024   38025   38026   38025   38026   38026       0   38028   38029
   38030   38029   38030   38030       0   38032   38033   38034   38033   38034
   38034       0   38036   38037   38038   38037   38038   38038       0   38040
   38041   38042   38041   38042   38042       0   38044   38045   38046   38045
   38046   38046       0   38048   38049   38050   38049   38050   38050       0
   38052   38053   38054   38053   38054   38054       0   38056   38057   38058
   38057   38058   38058       0   38060   38061   38062   38061   38062   38062
       0   38064   38065   38066   38065   38066   38066       0   38068   38069
   38070   38069   38070   38070       0   38072   38073   38074   38073   38074
   38074       0   38076   38077   38078   38077   38078   38078       0   38080
   38081   38082   38081   38082   38082       0   38084   38085   38086   38085
   38086   38086       0   38088   38089   38090   38089   38090   38090       0
   38092   38093   38094   38093   38094   38094       0   38096   38097   38098
   38097   38098   38098       0   38100   38101   38102   38101   38102   38102
       0   38104   38105   38106   38105   38106   38106       0   38108   38109
   38110   38109   38110   38110       0   38112   38113   38114   38113   38114
   38114       0   38116   38117   38118   38117   38118   38118       0   38120
   38121   38122   38121   38122   38122       0   38124   38125   38126   38125
   38126   38126       0   38128   38129   38130   38129   38130   38130       0
   38132   38133   38134   38133   38134   38134       0   38136   38137   38138
   38137   38138   38138       0   38140   38141   38142   38141   38142   38142
       0   38144   38145   38146   38145   38146   38146       0   38148   38149
   38150   38149   38150   38150       0   38152   38153   38154   38153   38154
   38154       0   38156   38157   38158   38157   38158   38158       0   38160
   38161   38162   38161   38162   38162       0   38164   38165   38166   38165
   38166   38166       0   38168   38169   38170   38169   38170   38170       0
   38172   38173   38174   38173   38174   38174       0   38176   38177   38178
   38177   38178   38178       0   38180   38181   38182   38181   38182   38182
       0   38184   38185   38186   38185   38186   38186       0   38188   38189
   38190   38189   38190   38190       0   38192   38193   38194   38193   38194
   38194       0   38196   38197   38198   38197   38198   38198       0   38200
   38201   38202   38201   38202   38202       0   38204   38205   38206   38205
   38206   38206       0   38208   38209   38210   38209   38210   38210       0
   38212   38213   38214   38213   38214   38214       0   38216   38217   38218
   38217   38218   38218       0   38220   38221   38222   38221   38222   38222
       0   38224   38225   38226   38225   38226   38226       0   38228   38229
   38230   38229   38230   38230       0   38232   38233   38234   38233   38234
   38234       0   38236   38237   38238   38237   38238   38238       0   38240
   38241   38242   38241   38242   38242       0   38244   38245   38246   38245
   38246   38246       0   38248   38249   38250   38249   38250   38250       0
   38252   38253   38254   38253   38254   38254       0   38256   38257   38258
   38257   38258   38258       0   38260   38261   38262   38261   38262   38262
       0   38264   38265   38266   38265   38266   38266       0   38268   38269
   38270   38269   38270   38270       0   38272   38273   38274   38273   38274
   38274       0   38276   38277   38278   38277   38278   38278       0   38280
   38281   38282   38281   38282   38282       0   38284   38285   38286   38285
   38286   38286       0   38288   38289   38290   38289   38290   38290       0
   38292   38293   38294   38293   38294   38294       0   38296   38297   38298
   38297   38298   38298       0   38300   38301   38302   38301   38302   38302
       0   38304   38305   38306   38305   38306   38306       0   38308   38309
   38310   38309   38310   38310       0   38312   38313   38314   38313   38314
   38314       0   38316   38317   38318   38317   38318   38318       0   38320
   38321   38322   38321   38322   38322       0   38324   38325   38326   38325
   38326   38326       0   38328   38329   38330   38329   38330   38330       0
   38332   38333   38334   38333   38334   38334       0   38336   38337   38338
   38337   38338   38338       0   38340   38341   38342   38341   38342   38342
       0   38344   38345   38346   38345   38346   38346       0   38348   38349
   38350   38349   38350   38350       0   38352   38353   38354   38353   38354
   38354       0   38356   38357   38358   38357   38358   38358       0   38360
   38361   38362   38361   38362   38362       0   38364   38365   38366   38365
   38366   38366       0   38368   38369   38370   38369   38370   38370       0
   38372   38373   38374   38373   38374   38374       0   38376   38377   38378
   38377   38378   38378       0   38380   38381   38382   38381   38382   38382
       0   38384   38385   38386   38385   38386   38386       0   38388   38389
   38390   38389   38390   38390       0   38392   38393   38394   38393   38394
   38394       0   38396   38397   38398   38397   38398   38398       0   38400
   38401   38402   38401   38402   38402       0   38404   38405   38406   38405
   38406   38406       0   38408   38409   38410   38409   38410   38410       0
   38412   38413   38414   38413   38414   38414       0   38416   38417   38418
   38417   38418   38418       0   38420   38421   38422   38421   38422   38422
       0   38424   38425   38426   38425   38426   38426       0   38428   38429
   38430   38429   38430   38430       0   38432   38433   38434   38433   38434
   38434       0   38436   38437   38438   38437   38438   38438       0   38440
   38441   38442   38441   38442   38442       0   38444   38445   38446   38445
   38446   38446       0   38448   38449   38450   38449   38450   38450       0
   38452   38453   38454   38453   38454   38454       0   38456   38457   38458
   38457   38458   38458       0   38460   38461   38462   38461   38462   38462
       0   38464   38465   38466   38465   38466   38466       0   38468   38469
   38470   38469   38470   38470       0   38472   38473   38474   38473   38474
   38474       0   38476   38477   38478   38477   38478   38478       0   38480
   38481   38482   38481   38482   38482       0   38484   38485   38486   38485
   38486   38486       0   38488   38489   38490   38489   38490   38490       0
   38492   38493   38494   38493   38494   38494       0   38496   38497   38498
   38497   38498   38498       0   38500   38501   38502   38501   38502   38502
       0   38504   38505   38506   38505   38506   38506       0   38508   38509
   38510   38509   38510   38510       0   38512   38513   38514   38513   38514
   38514       0   38516   38517   38518   38517   38518   38518       0   38520
   38521   38522   38521   38522   38522       0   38524   38525   38526   38525
   38526   38526       0   38528   38529   38530   38529   38530   38530       0
   38532   38533   38534   38533   38534   38534       0   38536   38537   38538
   38537   38538   38538       0   38540   38541   38542   38541   38542   38542
       0   38544   38545   38546   38545   38546   38546       0   38548   38549
   38550   38549   38550   38550       0   38552   38553   38554   38553   38554
   38554       0   38556   38557   38558   38557   38558   38558       0   38560
   38561   38562   38561   38562   38562       0   38564   38565   38566   38565
   38566   38566       0   38568   38569   38570   38569   38570   38570       0
   38572   38573   38574   38573   38574   38574       0   38576   38577   38578
   38577   38578   38578       0   38580   38581   38582   38581   38582   38582
       0   38584   38585   38586   38585   38586   38586       0   38588   38589
   38590   38589   38590   38590       0   38592   38593   38594   38593   38594
   38594       0   38596   38597   38598   38597   38598   38598       0   38600
   38601   38602   38601   38602   38602       0   38604   38605   38606   38605
   38606   38606       0   38608   38609   38610   38609   38610   38610       0
   38612   38613   38614   38613   38614   38614       0   38616   38617   38618
   38617   38618   38618       0   38620   38621   38622   38621   38622   38622
       0   38624   38625   38626   38625   38626   38626       0   38628   38629
   38630   38629   38630   38630       0   38632   38633   38634   38633   38634
   38634       0   38636   38637   38638   38637   38638   38638       0   38640
   38641   38642   38641   38642   38642       0   38644   38645   38646   38645
   38646   38646       0   38648   38649   38650   38649   38650   38650       0
   38652   38653   38654   38653   38654   38654       0   38656   38657   38658
   38657   38658   38658       0   38660   38661   38662   38661   38662   38662
       0   38664   38665   38666   38665   38666   38666       0   38668   38669
   38670   38669   38670   38670       0   38672   38673   38674   38673   38674
   38674       0   38676   38677   38678   38677   38678   38678       0   38680
   38681   38682   38681   38682   38682       0   38684   38685   38686   38685
   38686   38686       0   38688   38689   38690   38689   38690   38690       0
   38692   38693   38694   38693   38694   38694       0   38696   38697   38698
   38697   38698   38698       0   38700   38701   38702   38701   38702   38702
       0   38704   38705   38706   38705   38706   38706       0   38708   38709
   38710   38709   38710   38710       0   38712   38713   38714   38713   38714
   38714       0   38716   38717   38718   38717   38718   38718       0   38720
   38721   38722   38721   38722   38722       0   38724   38725   38726   38725
   38726   38726       0   38728   38729   38730   38729   38730   38730       0
   38732   38733   38734   38733   38734   38734       0   38736   38737   38738
   38737   38738   38738       0   38740   38741   38742   38741   38742   38742
       0   38744   38745   38746   38745   38746   38746       0   38748   38749
   38750   38749   38750   38750       0   38752   38753   38754   38753   38754
   38754       0   38756   38757   38758   38757   38758   38758       0   38760
   38761   38762   38761   38762   38762       0   38764   38765   38766   38765
   38766   38766       0   38768   38769   38770   38769   38770   38770       0
   38772   38773   38774   38773   38774   38774       0   38776   38777   38778
   38777   38778   38778       0   38780   38781   38782   38781   38782   38782
       0   38784   38785   38786   38785   38786   38786       0   38788   38789
   38790   38789   38790   38790       0   38792   38793   38794   38793   38794
   38794       0   38796   38797   38798   38797   38798   38798       0   38800
   38801   38802   38801   38802   38802       0   38804   38805   38806   38805
   38806   38806       0   38808   38809   38810   38809   38810   38810       0
   38812   38813   38814   38813   38814   38814       0   38816   38817   38818
   38817   38818   38818       0   38820   38821   38822   38821   38822   38822
       0   38824   38825   38826   38825   38826   38826       0   38828   38829
   38830   38829   38830   38830       0   38832   38833   38834   38833   38834
   38834       0   38836   38837   38838   38837   38838   38838       0   38840
   38841   38842   38841   38842   38842       0   38844   38845   38846   38845
   38846   38846       0   38848   38849   38850   38849   38850   38850       0
   38852   38853   38854   38853   38854   38854       0   38856   38857   38858
   38857   38858   38858       0   38860   38861   38862   38861   38862   38862
       0   38864   38865   38866   38865   38866   38866       0   38868   38869
   38870   38869   38870   38870       0   38872   38873   38874   38873   38874
   38874       0   38876   38877   38878   38877   38878   38878       0   38880
   38881   38882   38881   38882   38882       0   38884   38885   38886   38885
   38886   38886       0   38888   38889   38890   38889   38890   38890       0
   38892   38893   38894   38893   38894   38894       0   38896   38897   38898
   38897   38898   38898       0   38900   38901   38902   38901   38902   38902
       0   38904   38905   38906   38905   38906   38906       0   38908   38909
   38910   38909   38910   38910       0   38912   38913   38914   38913   38914
   38914       0   38916   38917   38918   38917   38918   38918       0   38920
   38921   38922   38921   38922   38922       0   38924   38925   38926   38925
   38926   38926       0   38928   38929   38930   38929   38930   38930       0
   38932   38933   38934   38933   38934   38934       0   38936   38937   38938
   38937   38938   38938       0   38940   38941   38942   38941   38942   38942
       0   38944   38945   38946   38945   38946   38946       0   38948   38949
   38950   38949   38950   38950       0   38952   38953   38954   38953   38954
   38954       0   38956   38957   38958   38957   38958   38958       0   38960
   38961   38962   38961   38962   38962       0   38964   38965   38966   38965
   38966   38966       0   38968   38969   38970   38969   38970   38970       0
   38972   38973   38974   38973   38974   38974       0   38976   38977   38978
   38977   38978   38978       0   38980   38981   38982   38981   38982   38982
       0   38984   38985   38986   38985   38986   38986       0   38988   38989
   38990   38989   38990   38990       0   38992   38993   38994   38993   38994
   38994       0   38996   38997   38998   38997   38998   38998       0   39000
   39001   39002   39001   39002   39002       0   39004   39005   39006   39005
   39006   39006       0   39008   39009   39010   39009   39010   39010       0
   39012   39013   39014   39013   39014   39014       0   39016   39017   39018
   39017   39018   39018       0   39020   39021   39022   39021   39022   39022
       0   39024   39025   39026   39025   39026   39026       0   39028   39029
   39030   39029   39030   39030       0   39032   39033   39034   39033   39034
   39034       0   39036   39037   39038   39037   39038   39038       0   39040
   39041   39042   39041   39042   39042       0   39044   39045   39046   39045
   39046   39046       0   39048   39049   39050   39049   39050   39050       0
   39052   39053   39054   39053   39054   39054       0   39056   39057   39058
   39057   39058   39058       0   39060   39061   39062   39061   39062   39062
       0   39064   39065   39066   39065   39066   39066       0   39068   39069
   39070   39069   39070   39070       0   39072   39073   39074   39073   39074
   39074       0   39076   39077   39078   39077   39078   39078       0   39080
   39081   39082   39081   39082   39082       0   39084   39085   39086   39085
   39086   39086       0   39088   39089   39090   39089   39090   39090       0
   39092   39093   39094   39093   39094   39094       0   39096   39097   39098
   39097   39098   39098       0   39100   39101   39102   39101   39102   39102
       0   39104   39105   39106   39105   39106   39106       0   39108   39109
   39110   39109   39110   39110       0   39112   39113   39114   39113   39114
   39114       0   39116   39117   39118   39117   39118   39118       0   39120
   39121   39122   39121   39122   39122       0   39124   39125   39126   39125
   39126   39126       0   39128   39129   39130   39129   39130   39130       0
   39132   39133   39134   39133   39134   39134       0   39136   39137   39138
   39137   39138   39138       0   39140   39141   39142   39141   39142   39142
       0   39144   39145   39146   39145   39146   39146       0   39148   39149
   39150   39149   39150   39150       0   39152   39153   39154   39153   39154
   39154       0   39156   39157   39158   39157   39158   39158       0   39160
   39161   39162   39161   39162   39162       0   39164   39165   39166   39165
   39166   39166       0   39168   39169   39170   39169   39170   39170       0
   39172   39173   39174   39173   39174   39174       0   39176   39177   39178
   39177   39178   39178       0   39180   39181   39182   39181   39182   39182
       0   39184   39185   39186   39185   39186   39186       0   39188   39189
   39190   39189   39190   39190       0   39192   39193   39194   39193   39194
   39194       0   39196   39197   39198   39197   39198   39198       0   39200
   39201   39202   39201   39202   39202       0   39204   39205   39206   39205
   39206   39206       0   39208   39209   39210   39209   39210   39210       0
   39212   39213   39214   39213   39214   39214       0   39216   39217   39218
   39217   39218   39218       0   39220   39221   39222   39221   39222   39222
       0   39224   39225   39226   39225   39226   39226       0   39228   39229
   39230   39229   39230   39230       0   39232   39233   39234   39233   39234
   39234       0   39236   39237   39238   39237   39238   39238       0   39240
   39241   39242   39241   39242   39242       0   39244   39245   39246   39245
   39246   39246       0   39248   39249   39250   39249   39250   39250       0
   39252   39253   39254   39253   39254   39254       0   39256   39257   39258
   39257   39258   39258       0   39260   39261   39262   39261   39262   39262
       0   39264   39265   39266   39265   39266   39266       0   39268   39269
   39270   39269   39270   39270       0   39272   39273   39274   39273   39274
   39274       0   39276   39277   39278   39277   39278   39278       0   39280
   39281   39282   39281   39282   39282       0   39284   39285   39286   39285
   39286   39286       0   39288   39289   39290   39289   39290   39290       0
   39292   39293   39294   39293   39294   39294       0   39296   39297   39298
   39297   39298   39298       0   39300   39301   39302   39301   39302   39302
       0   39304   39305   39306   39305   39306   39306       0   39308   39309
   39310   39309   39310   39310       0   39312   39313   39314   39313   39314
   39314       0   39316   39317   39318   39317   39318   39318       0   39320
   39321   39322   39321   39322   39322       0   39324   39325   39326   39325
   39326   39326       0   39328   39329   39330   39329   39330   39330       0
   39332   39333   39334   39333   39334   39334       0   39336   39337   39338
   39337   39338   39338       0   39340   39341   39342   39341   39342   39342
       0   39344   39345   39346   39345   39346   39346       0   39348   39349
   39350   39349   39350   39350       0   39352   39353   39354   39353   39354
   39354       0   39356   39357   39358   39357   39358   39358       0   39360
   39361   39362   39361   39362   39362       0   39364   39365   39366   39365
   39366   39366       0   39368   39369   39370   39369   39370   39370       0
   39372   39373   39374   39373   39374   39374       0   39376   39377   39378
   39377   39378   39378       0   39380   39381   39382   39381   39382   39382
       0   39384   39385   39386   39385   39386   39386       0   39388   39389
   39390   39389   39390   39390       0   39392   39393   39394   39393   39394
   39394       0   39396   39397   39398   39397   39398   39398       0   39400
   39401   39402   39401   39402   39402       0   39404   39405   39406   39405
   39406   39406       0   39408   39409   39410   39409   39410   39410       0
   39412   39413   39414   39413   39414   39414       0   39416   39417   39418
   39417   39418   39418       0   39420   39421   39422   39421   39422   39422
       0   39424   39425   39426   39425   39426   39426       0   39428   39429
   39430   39429   39430   39430       0   39432   39433   39434   39433   39434
   39434       0   39436   39437   39438   39437   39438   39438       0   39440
   39441   39442   39441   39442   39442       0   39444   39445   39446   39445
   39446   39446       0   39448   39449   39450   39449   39450   39450       0
   39452   39453   39454   39453   39454   39454       0   39456   39457   39458
   39457   39458   39458       0   39460   39461   39462   39461   39462   39462
       0   39464   39465   39466   39465   39466   39466       0   39468   39469
   39470   39469   39470   39470       0   39472   39473   39474   39473   39474
   39474       0   39476   39477   39478   39477   39478   39478       0   39480
   39481   39482   39481   39482   39482       0   39484   39485   39486   39485
   39486   39486       0   39488   39489   39490   39489   39490   39490       0
   39492   39493   39494   39493   39494   39494       0   39496   39497   39498
   39497   39498   39498       0   39500   39501   39502   39501   39502   39502
       0   39504   39505   39506   39505   39506   39506       0   39508   39509
   39510   39509   39510   39510       0   39512   39513   39514   39513   39514
   39514       0   39516   39517   39518   39517   39518   39518       0   39520
   39521   39522   39521   39522   39522       0   39524   39525   39526   39525
   39526   39526       0   39528   39529   39530   39529   39530   39530       0
   39532   39533   39534   39533   39534   39534       0   39536   39537   39538
   39537   39538   39538       0   39540   39541   39542   39541   39542   39542
       0   39544   39545   39546   39545   39546   39546       0   39548   39549
   39550   39549   39550   39550       0   39552   39553   39554   39553   39554
   39554       0   39556   39557   39558   39557   39558   39558       0   39560
   39561   39562   39561   39562   39562       0   39564   39565   39566   39565
   39566   39566       0   39568   39569   39570   39569   39570   39570       0
   39572   39573   39574   39573   39574   39574       0   39576   39577   39578
   39577   39578   39578       0   39580   39581   39582   39581   39582   39582
       0   39584   39585   39586   39585   39586   39586       0   39588   39589
   39590   39589   39590   39590       0   39592   39593   39594   39593   39594
   39594       0   39596   39597   39598   39597   39598   39598       0   39600
   39601   39602   39601   39602   39602       0   39604   39605   39606   39605
   39606   39606       0   39608   39609   39610   39609   39610   39610       0
   39612   39613   39614   39613   39614   39614       0   39616   39617   39618
   39617   39618   39618       0   39620   39621   39622   39621   39622   39622
       0   39624   39625   39626   39625   39626   39626       0   39628   39629
   39630   39629   39630   39630       0   39632   39633   39634   39633   39634
   39634       0   39636   39637   39638   39637   39638   39638       0   39640
   39641   39642   39641   39642   39642       0   39644   39645   39646   39645
   39646   39646       0   39648   39649   39650   39649   39650   39650       0
   39652   39653   39654   39653   39654   39654       0   39656   39657   39658
   39657   39658   39658       0   39660   39661   39662   39661   39662   39662
       0   39664   39665   39666   39665   39666   39666       0   39668   39669
   39670   39669   39670   39670       0   39672   39673   39674   39673   39674
   39674       0   39676   39677   39678   39677   39678   39678       0   39680
   39681   39682   39681   39682   39682       0   39684   39685   39686   39685
   39686   39686       0   39688   39689   39690   39689   39690   39690       0
   39692   39693   39694   39693   39694   39694       0   39696   39697   39698
   39697   39698   39698       0   39700   39701   39702   39701   39702   39702
       0   39704   39705   39706   39705   39706   39706       0   39708   39709
   39710   39709   39710   39710       0   39712   39713   39714   39713   39714
   39714       0   39716   39717   39718   39717   39718   39718       0   39720
   39721   39722   39721   39722   39722       0   39724   39725   39726   39725
   39726   39726       0   39728   39729   39730   39729   39730   39730       0
   39732   39733   39734   39733   39734   39734       0   39736   39737   39738
   39737   39738   39738       0   39740   39741   39742   39741   39742   39742
       0   39744   39745   39746   39745   39746   39746       0   39748   39749
   39750   39749   39750   39750       0   39752   39753   39754   39753   39754
   39754       0   39756   39757   39758   39757   39758   39758       0   39760
   39761   39762   39761   39762   39762       0   39764   39765   39766   39765
   39766   39766       0   39768   39769   39770   39769   39770   39770       0
   39772   39773   39774   39773   39774   39774       0   39776   39777   39778
   39777   39778   39778       0   39780   39781   39782   39781   39782   39782
       0   39784   39785   39786   39785   39786   39786       0   39788   39789
   39790   39789   39790   39790       0   39792   39793   39794   39793   39794
   39794       0   39796   39797   39798   39797   39798   39798       0   39800
   39801   39802   39801   39802   39802       0   39804   39805   39806   39805
   39806   39806       0   39808   39809   39810   39809   39810   39810       0
   39812   39813   39814   39813   39814   39814       0   39816   39817   39818
   39817   39818   39818       0   39820   39821   39822   39821   39822   39822
       0   39824   39825   39826   39825   39826   39826       0   39828   39829
   39830   39829   39830   39830       0   39832   39833   39834   39833   39834
   39834       0   39836   39837   39838   39837   39838   39838       0   39840
   39841   39842   39841   39842   39842       0   39844   39845   39846   39845
   39846   39846       0   39848   39849   39850   39849   39850   39850       0
   39852   39853   39854   39853   39854   39854       0   39856   39857   39858
   39857   39858   39858       0   39860   39861   39862   39861   39862   39862
       0   39864   39865   39866   39865   39866   39866       0   39868   39869
   39870   39869   39870   39870       0   39872   39873   39874   39873   39874
   39874       0   39876   39877   39878   39877   39878   39878       0   39880
   39881   39882   39881   39882   39882       0   39884   39885   39886   39885
   39886   39886       0   39888   39889   39890   39889   39890   39890       0
   39892   39893   39894   39893   39894   39894       0   39896   39897   39898
   39897   39898   39898       0   39900   39901   39902   39901   39902   39902
       0   39904   39905   39906   39905   39906   39906       0   39908   39909
   39910   39909   39910   39910       0   39912   39913   39914   39913   39914
   39914       0   39916   39917   39918   39917   39918   39918       0   39920
   39921   39922   39921   39922   39922       0   39924   39925   39926   39925
   39926   39926       0   39928   39929   39930   39929   39930   39930       0
   39932   39933   39934   39933   39934   39934       0   39936   39937   39938
   39937   39938   39938       0   39940   39941   39942   39941   39942   39942
       0   39944   39945   39946   39945   39946   39946       0   39948   39949
   39950   39949   39950   39950       0   39952   39953   39954   39953   39954
   39954       0   39956   39957   39958   39957   39958   39958       0   39960
   39961   39962   39961   39962   39962       0   39964   39965   39966   39965
   39966   39966       0   39968   39969   39970   39969   39970   39970       0
   39972   39973   39974   39973   39974   39974       0   39976   39977   39978
   39977   39978   39978       0   39980   39981   39982   39981   39982   39982
       0   39984   39985   39986   39985   39986   39986       0   39988   39989
   39990   39989   39990   39990       0   39992   39993   39994   39993   39994
   39994       0   39996   39997   39998   39997   39998   39998       0   40000
   40001   40002   40001   40002   40002       0   40004   40005   40006   40005
   40006   40006       0   40008   40009   40010   40009   40010   40010       0
   40012   40013   40014   40013   40014   40014       0   40016   40017   40018
   40017   40018   40018       0   40020   40021   40022   40021   40022   40022
       0   40024   40025   40026   40025   40026   40026       0   40028   40029
   40030   40029   40030   40030       0   40032   40033   40034   40033   40034
   40034       0   40036   40037   40038   40037   40038   40038       0   40040
   40041   40042   40041   40042   40042       0   40044   40045   40046   40045
   40046   40046       0   40048   40049   40050   40049   40050   40050       0
   40052   40053   40054   40053   40054   40054       0   40056   40057   40058
   40057   40058   40058       0   40060   40061   40062   40061   40062   40062
       0   40064   40065   40066   40065   40066   40066       0   40068   40069
   40070   40069   40070   40070       0   40072   40073   40074   40073   40074
   40074       0   40076   40077   40078   40077   40078   40078       0   40080
   40081   40082   40081   40082   40082       0   40084   40085   40086   40085
   40086   40086       0   40088   40089   40090   40089   40090   40090       0
   40092   40093   40094   40093   40094   40094       0   40096   40097   40098
   40097   40098   40098       0   40100   40101   40102   40101   40102   40102
       0   40104   40105   40106   40105   40106   40106       0   40108   40109
   40110   40109   40110   40110       0   40112   40113   40114   40113   40114
   40114       0   40116   40117   40118   40117   40118   40118       0   40120
   40121   40122   40121   40122   40122       0   40124   40125   40126   40125
   40126   40126       0   40128   40129   40130   40129   40130   40130       0
   40132   40133   40134   40133   40134   40134       0   40136   40137   40138
   40137   40138   40138       0   40140   40141   40142   40141   40142   40142
       0   40144   40145   40146   40145   40146   40146       0   40148   40149
   40150   40149   40150   40150       0   40152   40153   40154   40153   40154
   40154       0   40156   40157   40158   40157   40158   40158       0   40160
   40161   40162   40161   40162   40162       0   40164   40165   40166   40165
   40166   40166       0   40168   40169   40170   40169   40170   40170       0
   40172   40173   40174   40173   40174   40174       0   40176   40177   40178
   40177   40178   40178       0   40180   40181   40182   40181   40182   40182
       0   40184   40185   40186   40185   40186   40186       0   40188   40189
   40190   40189   40190   40190       0   40192   40193   40194   40193   40194
   40194       0   40196   40197   40198   40197   40198   40198       0   40200
   40201   40202   40201   40202   40202       0   40204   40205   40206   40205
   40206   40206       0   40208   40209   40210   40209   40210   40210       0
   40212   40213   40214   40213   40214   40214       0   40216   40217   40218
   40217   40218   40218       0   40220   40221   40222   40221   40222   40222
       0   40224   40225   40226   40225   40226   40226       0   40228   40229
   40230   40229   40230   40230       0   40232   40233   40234   40233   40234
   40234       0   40236   40237   40238   40237   40238   40238       0   40240
   40241   40242   40241   40242   40242       0   40244   40245   40246   40245
   40246   40246       0   40248   40249   40250   40249   40250   40250       0
   40252   40253   40254   40253   40254   40254       0   40256   40257   40258
   40257   40258   40258       0   40260   40261   40262   40261   40262   40262
       0   40264   40265   40266   40265   40266   40266       0   40268   40269
   40270   40269   40270   40270       0   40272   40273   40274   40273   40274
   40274       0   40276   40277   40278   40277   40278   40278       0   40280
   40281   40282   40281   40282   40282       0   40284   40285   40286   40285
   40286   40286       0   40288   40289   40290   40289   40290   40290       0
   40292   40293   40294   40293   40294   40294       0   40296   40297   40298
   40297   40298   40298       0   40300   40301   40302   40301   40302   40302
       0   40304   40305   40306   40305   40306   40306       0   40308   40309
   40310   40309   40310   40310       0   40312   40313   40314   40313   40314
   40314       0   40316   40317   40318   40317   40318   40318       0   40320
   40321   40322   40321   40322   40322       0   40324   40325   40326   40325
   40326   40326       0   40328   40329   40330   40329   40330   40330       0
   40332   40333   40334   40333   40334   40334       0   40336   40337   40338
   40337   40338   40338       0   40340   40341   40342   40341   40342   40342
       0   40344   40345   40346   40345   40346   40346       0   40348   40349
   40350   40349   40350   40350       0   40352   40353   40354   40353   40354
   40354       0   40356   40357   40358   40357   40358   40358       0   40360
   40361   40362   40361   40362   40362       0   40364   40365   40366   40365
   40366   40366       0   40368   40369   40370   40369   40370   40370       0
   40372   40373   40374   40373   40374   40374       0   40376   40377   40378
   40377   40378   40378       0   40380   40381   40382   40381   40382   40382
       0   40384   40385   40386   40385   40386   40386       0   40388   40389
   40390   40389   40390   40390       0   40392   40393   40394   40393   40394
   40394       0   40396   40397   40398   40397   40398   40398       0   40400
   40401   40402   40401   40402   40402       0   40404   40405   40406   40405
   40406   40406       0   40408   40409   40410   40409   40410   40410       0
   40412   40413   40414   40413   40414   40414       0   40416   40417   40418
   40417   40418   40418       0   40420   40421   40422   40421   40422   40422
       0   40424   40425   40426   40425   40426   40426       0   40428   40429
   40430   40429   40430   40430       0   40432   40433   40434   40433   40434
   40434       0   40436   40437   40438   40437   40438   40438       0   40440
   40441   40442   40441   40442   40442       0   40444   40445   40446   40445
   40446   40446       0   40448   40449   40450   40449   40450   40450       0
   40452   40453   40454   40453   40454   40454       0   40456   40457   40458
   40457   40458   40458       0   40460   40461   40462   40461   40462   40462
       0   40464   40465   40466   40465   40466   40466       0   40468   40469
   40470   40469   40470   40470       0   40472   40473   40474   40473   40474
   40474       0   40476   40477   40478   40477   40478   40478       0   40480
   40481   40482   40481   40482   40482       0   40484   40485   40486   40485
   40486   40486       0   40488   40489   40490   40489   40490   40490       0
   40492   40493   40494   40493   40494   40494       0   40496   40497   40498
   40497   40498   40498       0   40500   40501   40502   40501   40502   40502
       0   40504   40505   40506   40505   40506   40506       0   40508   40509
   40510   40509   40510   40510       0   40512   40513   40514   40513   40514
   40514       0   40516   40517   40518   40517   40518   40518       0   40520
   40521   40522   40521   40522   40522       0   40524   40525   40526   40525
   40526   40526       0   40528   40529   40530   40529   40530   40530       0
   40532   40533   40534   40533   40534   40534       0   40536   40537   40538
   40537   40538   40538       0   40540   40541   40542   40541   40542   40542
       0   40544   40545   40546   40545   40546   40546       0   40548   40549
   40550   40549   40550   40550       0   40552   40553   40554   40553   40554
   40554       0   40556   40557   40558   40557   40558   40558       0   40560
   40561   40562   40561   40562   40562       0   40564   40565   40566   40565
   40566   40566       0   40568   40569   40570   40569   40570   40570       0
   40572   40573   40574   40573   40574   40574       0   40576   40577   40578
   40577   40578   40578       0   40580   40581   40582   40581   40582   40582
       0   40584   40585   40586   40585   40586   40586       0   40588   40589
   40590   40589   40590   40590       0   40592   40593   40594   40593   40594
   40594       0   40596   40597   40598   40597   40598   40598       0   40600
   40601   40602   40601   40602   40602       0   40604   40605   40606   40605
   40606   40606       0   40608   40609   40610   40609   40610   40610       0
   40612   40613   40614   40613   40614   40614       0   40616   40617   40618
   40617   40618   40618       0   40620   40621   40622   40621   40622   40622
       0   40624   40625   40626   40625   40626   40626       0   40628   40629
   40630   40629   40630   40630       0   40632   40633   40634   40633   40634
   40634       0   40636   40637   40638   40637   40638   40638       0   40640
   40641   40642   40641   40642   40642       0   40644   40645   40646   40645
   40646   40646       0   40648   40649   40650   40649   40650   40650       0
   40652   40653   40654   40653   40654   40654       0   40656   40657   40658
   40657   40658   40658       0   40660   40661   40662   40661   40662   40662
       0   40664   40665   40666   40665   40666   40666       0   40668   40669
   40670   40669   40670   40670       0   40672   40673   40674   40673   40674
   40674       0   40676   40677   40678   40677   40678   40678       0   40680
   40681   40682   40681   40682   40682       0   40684   40685   40686   40685
   40686   40686       0   40688   40689   40690   40689   40690   40690       0
   40692   40693   40694   40693   40694   40694       0   40696   40697   40698
   40697   40698   40698       0   40700   40701   40702   40701   40702   40702
       0   40704   40705   40706   40705   40706   40706       0   40708   40709
   40710   40709   40710   40710       0   40712   40713   40714   40713   40714
   40714       0   40716   40717   40718   40717   40718   40718       0   40720
   40721   40722   40721   40722   40722       0   40724   40725   40726   40725
   40726   40726       0   40728   40729   40730   40729   40730   40730       0
   40732   40733   40734   40733   40734   40734       0   40736   40737   40738
   40737   40738   40738       0   40740   40741   40742   40741   40742   40742
       0   40744   40745   40746   40745   40746   40746       0   40748   40749
   40750   40749   40750   40750       0   40752   40753   40754   40753   40754
   40754       0   40756   40757   40758   40757   40758   40758       0   40760
   40761   40762   40761   40762   40762       0   40764   40765   40766   40765
   40766   40766       0   40768   40769   40770   40769   40770   40770       0
   40772   40773   40774   40773   40774   40774       0   40776   40777   40778
   40777   40778   40778       0   40780   40781   40782   40781   40782   40782
       0   40784   40785   40786   40785   40786   40786       0   40788   40789
   40790   40789   40790   40790       0   40792   40793   40794   40793   40794
   40794       0   40796   40797   40798   40797   40798   40798       0   40800
   40801   40802   40801   40802   40802       0   40804   40805   40806   40805
   40806   40806       0   40808   40809   40810   40809   40810   40810       0
   40812   40813   40814   40813   40814   40814       0   40816   40817   40818
   40817   40818   40818       0   40820   40821   40822   40821   40822   40822
       0   40824   40825   40826   40825   40826   40826       0   40828   40829
   40830   40829   40830   40830       0   40832   40833   40834   40833   40834
   40834       0   40836   40837   40838   40837   40838   40838       0   40840
   40841   40842   40841   40842   40842       0   40844   40845   40846   40845
   40846   40846       0   40848   40849   40850   40849   40850   40850       0
   40852   40853   40854   40853   40854   40854       0   40856   40857   40858
   40857   40858   40858       0   40860   40861   40862   40861   40862   40862
       0   40864   40865   40866   40865   40866   40866       0   40868   40869
   40870   40869   40870   40870       0   40872   40873   40874   40873   40874
   40874       0   40876   40877   40878   40877   40878   40878       0   40880
   40881   40882   40881   40882   40882       0   40884   40885   40886   40885
   40886   40886       0   40888   40889   40890   40889   40890   40890       0
   40892   40893   40894   40893   40894   40894       0   40896   40897   40898
   40897   40898   40898       0   40900   40901   40902   40901   40902   40902
       0   40904   40905   40906   40905   40906   40906       0   40908   40909
   40910   40909   40910   40910       0   40912   40913   40914   40913   40914
   40914       0   40916   40917   40918   40917   40918   40918       0   40920
   40921   40922   40921   40922   40922       0   40924   40925   40926   40925
   40926   40926       0   40928   40929   40930   40929   40930   40930       0
   40932   40933   40934   40933   40934   40934       0   40936   40937   40938
   40937   40938   40938       0   40940   40941   40942   40941   40942   40942
       0   40944   40945   40946   40945   40946   40946       0   40948   40949
   40950   40949   40950   40950       0   40952   40953   40954   40953   40954
   40954       0   40956   40957   40958   40957   40958   40958       0   40960
   40961   40962   40961   40962   40962       0   40964   40965   40966   40965
   40966   40966       0   40968   40969   40970   40969   40970   40970       0
   40972   40973   40974   40973   40974   40974       0   40976   40977   40978
   40977   40978   40978       0   40980   40981   40982   40981   40982   40982
       0   40984   40985   40986   40985   40986   40986       0   40988   40989
   40990   40989   40990   40990       0   40992   40993   40994   40993   40994
   40994       0   40996   40997   40998   40997   40998   40998       0   41000
   41001   41002   41001   41002   41002       0   41004   41005   41006   41005
   41006   41006       0   41008   41009   41010   41009   41010   41010       0
   41012   41013   41014   41013   41014   41014       0   41016   41017   41018
   41017   41018   41018       0   41020   41021   41022   41021   41022   41022
       0   41024   41025   41026   41025   41026   41026       0   41028   41029
   41030   41029   41030   41030       0   41032   41033   41034   41033   41034
   41034       0   41036   41037   41038   41037   41038   41038       0   41040
   41041   41042   41041   41042   41042       0   41044   41045   41046   41045
   41046   41046       0   41048   41049   41050   41049   41050   41050       0
   41052   41053   41054   41053   41054   41054       0   41056   41057   41058
   41057   41058   41058       0   41060   41061   41062   41061   41062   41062
       0   41064   41065   41066   41065   41066   41066       0   41068   41069
   41070   41069   41070   41070       0   41072   41073   41074   41073   41074
   41074       0   41076   41077   41078   41077   41078   41078       0   41080
   41081   41082   41081   41082   41082       0   41084   41085   41086   41085
   41086   41086       0   41088   41089   41090   41089   41090   41090       0
   41092   41093   41094   41093   41094   41094       0   41096   41097   41098
   41097   41098   41098       0   41100   41101   41102   41101   41102   41102
       0   41104   41105   41106   41105   41106   41106       0   41108   41109
   41110   41109   41110   41110       0   41112   41113   41114   41113   41114
   41114       0   41116   41117   41118   41117   41118   41118       0   41120
   41121   41122   41121   41122   41122       0   41124   41125   41126   41125
   41126   41126       0   41128   41129   41130   41129   41130   41130       0
   41132   41133   41134   41133   41134   41134       0   41136   41137   41138
   41137   41138   41138       0   41140   41141   41142   41141   41142   41142
       0   41144   41145   41146   41145   41146   41146       0   41148   41149
   41150   41149   41150   41150       0   41152   41153   41154   41153   41154
   41154       0   41156   41157   41158   41157   41158   41158       0   41160
   41161   41162   41161   41162   41162       0   41164   41165   41166   41165
   41166   41166       0   41168   41169   41170   41169   41170   41170       0
   41172   41173   41174   41173   41174   41174       0   41176   41177   41178
   41177   41178   41178       0   41180   41181   41182   41181   41182   41182
       0   41184   41185   41186   41185   41186   41186       0   41188   41189
   41190   41189   41190   41190       0   41192   41193   41194   41193   41194
   41194       0   41196   41197   41198   41197   41198   41198       0   41200
   41201   41202   41201   41202   41202       0   41204   41205   41206   41205
   41206   41206       0   41208   41209   41210   41209   41210   41210       0
   41212   41213   41214   41213   41214   41214       0   41216   41217   41218
   41217   41218   41218       0   41220   41221   41222   41221   41222   41222
       0   41224   41225   41226   41225   41226   41226       0   41228   41229
   41230   41229   41230   41230       0   41232   41233   41234   41233   41234
   41234       0   41236   41237   41238   41237   41238   41238       0   41240
   41241   41242   41241   41242   41242       0   41244   41245   41246   41245
   41246   41246       0   41248   41249   41250   41249   41250   41250       0
   41252   41253   41254   41253   41254   41254       0   41256   41257   41258
   41257   41258   41258       0   41260   41261   41262   41261   41262   41262
       0   41264   41265   41266   41265   41266   41266       0   41268   41269
   41270   41269   41270   41270       0   41272   41273   41274   41273   41274
   41274       0   41276   41277   41278   41277   41278   41278       0   41280
   41281   41282   41281   41282   41282       0   41284   41285   41286   41285
   41286   41286       0   41288   41289   41290   41289   41290   41290       0
   41292   41293   41294   41293   41294   41294       0   41296   41297   41298
   41297   41298   41298       0   41300   41301   41302   41301   41302   41302
       0   41304   41305   41306   41305   41306   41306       0   41308   41309
   41310   41309   41310   41310       0   41312   41313   41314   41313   41314
   41314       0   41316   41317   41318   41317   41318   41318       0   41320
   41321   41322   41321   41322   41322       0   41324   41325   41326   41325
   41326   41326       0   41328   41329   41330   41329   41330   41330       0
   41332   41333   41334   41333   41334   41334       0   41336   41337   41338
   41337   41338   41338       0   41340   41341   41342   41341   41342   41342
       0   41344   41345   41346   41345   41346   41346       0   41348   41349
   41350   41349   41350   41350       0   41352   41353   41354   41353   41354
   41354       0   41356   41357   41358   41357   41358   41358       0   41360
   41361   41362   41361   41362   41362       0   41364   41365   41366   41365
   41366   41366       0   41368   41369   41370   41369   41370   41370       0
   41372   41373   41374   41373   41374   41374       0   41376   41377   41378
   41377   41378   41378       0   41380   41381   41382   41381   41382   41382
       0   41384   41385   41386   41385   41386   41386       0   41388   41389
   41390   41389   41390   41390       0   41392   41393   41394   41393   41394
   41394       0   41396   41397   41398   41397   41398   41398       0   41400
   41401   41402   41401   41402   41402       0   41404   41405   41406   41405
   41406   41406       0   41408   41409   41410   41409   41410   41410       0
   41412   41413   41414   41413   41414   41414       0   41416   41417   41418
   41417   41418   41418       0   41420   41421   41422   41421   41422   41422
       0   41424   41425   41426   41425   41426   41426       0   41428   41429
   41430   41429   41430   41430       0   41432   41433   41434   41433   41434
   41434       0   41436   41437   41438   41437   41438   41438       0   41440
   41441   41442   41441   41442   41442       0   41444   41445   41446   41445
   41446   41446       0   41448   41449   41450   41449   41450   41450       0
   41452   41453   41454   41453   41454   41454       0   41456   41457   41458
   41457   41458   41458       0   41460   41461   41462   41461   41462   41462
       0   41464   41465   41466   41465   41466   41466       0   41468   41469
   41470   41469   41470   41470       0   41472   41473   41474   41473   41474
   41474       0   41476   41477   41478   41477   41478   41478       0   41480
   41481   41482   41481   41482   41482       0   41484   41485   41486   41485
   41486   41486       0   41488   41489   41490   41489   41490   41490       0
   41492   41493   41494   41493   41494   41494       0   41496   41497   41498
   41497   41498   41498       0   41500   41501   41502   41501   41502   41502
       0   41504   41505   41506   41505   41506   41506       0   41508   41509
   41510   41509   41510   41510       0   41512   41513   41514   41513   41514
   41514       0   41516   41517   41518   41517   41518   41518       0   41520
   41521   41522   41521   41522   41522       0   41524   41525   41526   41525
   41526   41526       0   41528   41529   41530   41529   41530   41530       0
   41532   41533   41534   41533   41534   41534       0   41536   41537   41538
   41537   41538   41538       0   41540   41541   41542   41541   41542   41542
       0   41544   41545   41546   41545   41546   41546       0   41548   41549
   41550   41549   41550   41550       0   41552   41553   41554   41553   41554
   41554       0   41556   41557   41558   41557   41558   41558       0   41560
   41561   41562   41561   41562   41562       0   41564   41565   41566   41565
   41566   41566       0   41568   41569   41570   41569   41570   41570       0
   41572   41573   41574   41573   41574   41574       0   41576   41577   41578
   41577   41578   41578       0   41580   41581   41582   41581   41582   41582
       0   41584   41585   41586   41585   41586   41586       0   41588   41589
   41590   41589   41590   41590       0   41592   41593   41594   41593   41594
   41594       0   41596   41597   41598   41597   41598   41598       0   41600
   41601   41602   41601   41602   41602       0   41604   41605   41606   41605
   41606   41606       0   41608   41609   41610   41609   41610   41610       0
   41612   41613   41614   41613   41614   41614       0   41616   41617   41618
   41617   41618   41618       0   41620   41621   41622   41621   41622   41622
       0   41624   41625   41626   41625   41626   41626       0   41628   41629
   41630   41629   41630   41630       0   41632   41633   41634   41633   41634
   41634       0   41636   41637   41638   41637   41638   41638       0   41640
   41641   41642   41641   41642   41642       0   41644   41645   41646   41645
   41646   41646       0   41648   41649   41650   41649   41650   41650       0
   41652   41653   41654   41653   41654   41654       0   41656   41657   41658
   41657   41658   41658       0   41660   41661   41662   41661   41662   41662
       0   41664   41665   41666   41665   41666   41666       0   41668   41669
   41670   41669   41670   41670       0   41672   41673   41674   41673   41674
   41674       0   41676   41677   41678   41677   41678   41678       0   41680
   41681   41682   41681   41682   41682       0   41684   41685   41686   41685
   41686   41686       0   41688   41689   41690   41689   41690   41690       0
   41692   41693   41694   41693   41694   41694       0   41696   41697   41698
   41697   41698   41698       0   41700   41701   41702   41701   41702   41702
       0   41704   41705   41706   41705   41706   41706       0   41708   41709
   41710   41709   41710   41710       0   41712   41713   41714   41713   41714
   41714       0   41716   41717   41718   41717   41718   41718       0   41720
   41721   41722   41721   41722   41722       0   41724   41725   41726   41725
   41726   41726       0   41728   41729   41730   41729   41730   41730       0
   41732   41733   41734   41733   41734   41734       0   41736   41737   41738
   41737   41738   41738       0   41740   41741   41742   41741   41742   41742
       0   41744   41745   41746   41745   41746   41746       0   41748   41749
   41750   41749   41750   41750       0   41752   41753   41754   41753   41754
   41754       0   41756   41757   41758   41757   41758   41758       0   41760
   41761   41762   41761   41762   41762       0   41764   41765   41766   41765
   41766   41766       0   41768   41769   41770   41769   41770   41770       0
   41772   41773   41774   41773   41774   41774       0   41776   41777   41778
   41777   41778   41778       0   41780   41781   41782   41781   41782   41782
       0   41784   41785   41786   41785   41786   41786       0   41788   41789
   41790   41789   41790   41790       0   41792   41793   41794   41793   41794
   41794       0   41796   41797   41798   41797   41798   41798       0   41800
   41801   41802   41801   41802   41802       0   41804   41805   41806   41805
   41806   41806       0   41808   41809   41810   41809   41810   41810       0
   41812   41813   41814   41813   41814   41814       0   41816   41817   41818
   41817   41818   41818       0   41820   41821   41822   41821   41822   41822
       0   41824   41825   41826   41825   41826   41826       0   41828   41829
   41830   41829   41830   41830       0   41832   41833   41834   41833   41834
   41834       0   41836   41837   41838   41837   41838   41838       0   41840
   41841   41842   41841   41842   41842       0   41844   41845   41846   41845
   41846   41846       0   41848   41849   41850   41849   41850   41850       0
   41852   41853   41854   41853   41854   41854       0   41856   41857   41858
   41857   41858   41858       0   41860   41861   41862   41861   41862   41862
       0   41864   41865   41866   41865   41866   41866       0   41868   41869
   41870   41869   41870   41870       0   41872   41873   41874   41873   41874
   41874       0   41876   41877   41878   41877   41878   41878       0   41880
   41881   41882   41881   41882   41882       0   41884   41885   41886   41885
   41886   41886       0   41888   41889   41890   41889   41890   41890       0
   41892   41893   41894   41893   41894   41894       0   41896   41897   41898
   41897   41898   41898       0   41900   41901   41902   41901   41902   41902
       0   41904   41905   41906   41905   41906   41906       0   41908   41909
   41910   41909   41910   41910       0   41912   41913   41914   41913   41914
   41914       0   41916   41917   41918   41917   41918   41918       0   41920
   41921   41922   41921   41922   41922       0   41924   41925   41926   41925
   41926   41926       0   41928   41929   41930   41929   41930   41930       0
   41932   41933   41934   41933   41934   41934       0   41936   41937   41938
   41937   41938   41938       0   41940   41941   41942   41941   41942   41942
       0   41944   41945   41946   41945   41946   41946       0   41948   41949
   41950   41949   41950   41950       0   41952   41953   41954   41953   41954
   41954       0   41956   41957   41958   41957   41958   41958       0   41960
   41961   41962   41961   41962   41962       0   41964   41965   41966   41965
   41966   41966       0   41968   41969   41970   41969   41970   41970       0
   41972   41973   41974   41973   41974   41974       0   41976   41977   41978
   41977   41978   41978       0   41980   41981   41982   41981   41982   41982
       0   41984   41985   41986   41985   41986   41986       0   41988   41989
   41990   41989   41990   41990       0   41992   41993   41994   41993   41994
   41994       0   41996   41997   41998   41997   41998   41998       0   42000
   42001   42002   42001   42002   42002       0   42004   42005   42006   42005
   42006   42006       0   42008   42009   42010   42009   42010   42010       0
   42012   42013   42014   42013   42014   42014       0   42016   42017   42018
   42017   42018   42018       0   42020   42021   42022   42021   42022   42022
       0   42024   42025   42026   42025   42026   42026       0   42028   42029
   42030   42029   42030   42030       0   42032   42033   42034   42033   42034
   42034       0   42036   42037   42038   42037   42038   42038       0   42040
   42041   42042   42041   42042   42042       0   42044   42045   42046   42045
   42046   42046       0   42048   42049   42050   42049   42050   42050       0
   42052   42053   42054   42053   42054   42054       0   42056   42057   42058
   42057   42058   42058       0   42060   42061   42062   42061   42062   42062
       0   42064   42065   42066   42065   42066   42066       0   42068   42069
   42070   42069   42070   42070       0   42072   42073   42074   42073   42074
   42074       0   42076   42077   42078   42077   42078   42078       0   42080
   42081   42082   42081   42082   42082       0   42084   42085   42086   42085
   42086   42086       0   42088   42089   42090   42089   42090   42090       0
   42092   42093   42094   42093   42094   42094       0   42096   42097   42098
   42097   42098   42098       0   42100   42101   42102   42101   42102   42102
       0   42104   42105   42106   42105   42106   42106       0   42108   42109
   42110   42109   42110   42110       0   42112   42113   42114   42113   42114
   42114       0   42116   42117   42118   42117   42118   42118       0   42120
   42121   42122   42121   42122   42122       0   42124   42125   42126   42125
   42126   42126       0   42128   42129   42130   42129   42130   42130       0
   42132   42133   42134   42133   42134   42134       0   42136   42137   42138
   42137   42138   42138       0   42140   42141   42142   42141   42142   42142
       0   42144   42145   42146   42145   42146   42146       0   42148   42149
   42150   42149   42150   42150       0   42152   42153   42154   42153   42154
   42154       0   42156   42157   42158   42157   42158   42158       0   42160
   42161   42162   42161   42162   42162       0   42164   42165   42166   42165
   42166   42166       0   42168   42169   42170   42169   42170   42170       0
   42172   42173   42174   42173   42174   42174       0   42176   42177   42178
   42177   42178   42178       0   42180   42181   42182   42181   42182   42182
       0   42184   42185   42186   42185   42186   42186       0   42188   42189
   42190   42189   42190   42190       0   42192   42193   42194   42193   42194
   42194       0   42196   42197   42198   42197   42198   42198       0   42200
   42201   42202   42201   42202   42202       0   42204   42205   42206   42205
   42206   42206       0   42208   42209   42210   42209   42210   42210       0
   42212   42213   42214   42213   42214   42214       0   42216   42217   42218
   42217   42218   42218       0   42220   42221   42222   42221   42222   42222
       0   42224   42225   42226   42225   42226   42226       0   42228   42229
   42230   42229   42230   42230       0   42232   42233   42234   42233   42234
   42234       0   42236   42237   42238   42237   42238   42238       0   42240
   42241   42242   42241   42242   42242       0   42244   42245   42246   42245
   42246   42246       0   42248   42249   42250   42249   42250   42250       0
   42252   42253   42254   42253   42254   42254       0   42256   42257   42258
   42257   42258   42258       0   42260   42261   42262   42261   42262   42262
       0   42264   42265   42266   42265   42266   42266       0   42268   42269
   42270   42269   42270   42270       0   42272   42273   42274   42273   42274
   42274       0   42276   42277   42278   42277   42278   42278       0   42280
   42281   42282   42281   42282   42282       0   42284   42285   42286   42285
   42286   42286       0   42288   42289   42290   42289   42290   42290       0
   42292   42293   42294   42293   42294   42294       0   42296   42297   42298
   42297   42298   42298       0   42300   42301   42302   42301   42302   42302
       0   42304   42305   42306   42305   42306   42306       0   42308   42309
   42310   42309   42310   42310       0   42312   42313   42314   42313   42314
   42314       0   42316   42317   42318   42317   42318   42318       0   42320
   42321   42322   42321   42322   42322       0   42324   42325   42326   42325
   42326   42326       0   42328   42329   42330   42329   42330   42330       0
   42332   42333   42334   42333   42334   42334       0   42336   42337   42338
   42337   42338   42338       0   42340   42341   42342   42341   42342   42342
       0   42344   42345   42346   42345   42346   42346       0   42348   42349
   42350   42349   42350   42350       0   42352   42353   42354   42353   42354
   42354       0   42356   42357   42358   42357   42358   42358       0   42360
   42361   42362   42361   42362   42362       0   42364   42365   42366   42365
   42366   42366       0   42368   42369   42370   42369   42370   42370       0
   42372   42373   42374   42373   42374   42374       0   42376   42377   42378
   42377   42378   42378       0   42380   42381   42382   42381   42382   42382
       0   42384   42385   42386   42385   42386   42386       0   42388   42389
   42390   42389   42390   42390       0   42392   42393   42394   42393   42394
   42394       0   42396   42397   42398   42397   42398   42398       0   42400
   42401   42402   42401   42402   42402       0   42404   42405   42406   42405
   42406   42406       0   42408   42409   42410   42409   42410   42410       0
   42412   42413   42414   42413   42414   42414       0   42416   42417   42418
   42417   42418   42418       0   42420   42421   42422   42421   42422   42422
       0   42424   42425   42426   42425   42426   42426       0   42428   42429
   42430   42429   42430   42430       0   42432   42433   42434   42433   42434
   42434       0   42436   42437   42438   42437   42438   42438       0   42440
   42441   42442   42441   42442   42442       0   42444   42445   42446   42445
   42446   42446       0   42448   42449   42450   42449   42450   42450       0
   42452   42453   42454   42453   42454   42454       0   42456   42457   42458
   42457   42458   42458       0   42460   42461   42462   42461   42462   42462
       0   42464   42465   42466   42465   42466   42466       0   42468   42469
   42470   42469   42470   42470       0   42472   42473   42474   42473   42474
   42474       0   42476   42477   42478   42477   42478   42478       0   42480
   42481   42482   42481   42482   42482       0   42484   42485   42486   42485
   42486   42486       0   42488   42489   42490   42489   42490   42490       0
   42492   42493   42494   42493   42494   42494       0   42496   42497   42498
   42497   42498   42498       0   42500   42501   42502   42501   42502   42502
       0   42504   42505   42506   42505   42506   42506       0   42508   42509
   42510   42509   42510   42510       0   42512   42513   42514   42513   42514
   42514       0   42516   42517   42518   42517   42518   42518       0   42520
   42521   42522   42521   42522   42522       0   42524   42525   42526   42525
   42526   42526       0   42528   42529   42530   42529   42530   42530       0
   42532   42533   42534   42533   42534   42534       0   42536   42537   42538
   42537   42538   42538       0   42540   42541   42542   42541   42542   42542
       0   42544   42545   42546   42545   42546   42546       0   42548   42549
   42550   42549   42550   42550       0   42552   42553   42554   42553   42554
   42554       0   42556   42557   42558   42557   42558   42558       0   42560
   42561   42562   42561   42562   42562       0   42564   42565   42566   42565
   42566   42566       0   42568   42569   42570   42569   42570   42570       0
   42572   42573   42574   42573   42574   42574       0   42576   42577   42578
   42577   42578   42578       0   42580   42581   42582   42581   42582   42582
       0   42584   42585   42586   42585   42586   42586       0   42588   42589
   42590   42589   42590   42590       0   42592   42593   42594   42593   42594
   42594       0   42596   42597   42598   42597   42598   42598       0   42600
   42601   42602   42601   42602   42602       0   42604   42605   42606   42605
   42606   42606       0   42608   42609   42610   42609   42610   42610       0
   42612   42613   42614   42613   42614   42614       0   42616   42617   42618
   42617   42618   42618       0   42620   42621   42622   42621   42622   42622
       0   42624   42625   42626   42625   42626   42626       0   42628   42629
   42630   42629   42630   42630       0   42632   42633   42634   42633   42634
   42634       0   42636   42637   42638   42637   42638   42638       0   42640
   42641   42642   42641   42642   42642       0   42644   42645   42646   42645
   42646   42646       0   42648   42649   42650   42649   42650   42650       0
   42652   42653   42654   42653   42654   42654       0   42656   42657   42658
   42657   42658   42658       0   42660   42661   42662   42661   42662   42662
       0   42664   42665   42666   42665   42666   42666       0   42668   42669
   42670   42669   42670   42670       0   42672   42673   42674   42673   42674
   42674       0   42676   42677   42678   42677   42678   42678       0   42680
   42681   42682   42681   42682   42682       0   42684   42685   42686   42685
   42686   42686       0   42688   42689   42690   42689   42690   42690       0
   42692   42693   42694   42693   42694   42694       0   42696   42697   42698
   42697   42698   42698       0   42700   42701   42702   42701   42702   42702
       0   42704   42705   42706   42705   42706   42706       0   42708   42709
   42710   42709   42710   42710       0   42712   42713   42714   42713   42714
   42714       0   42716   42717   42718   42717   42718   42718       0   42720
   42721   42722   42721   42722   42722       0   42724   42725   42726   42725
   42726   42726       0   42728   42729   42730   42729   42730   42730       0
   42732   42733   42734   42733   42734   42734       0   42736   42737   42738
   42737   42738   42738       0   42740   42741   42742   42741   42742   42742
       0   42744   42745   42746   42745   42746   42746       0   42748   42749
   42750   42749   42750   42750       0   42752   42753   42754   42753   42754
   42754       0   42756   42757   42758   42757   42758   42758       0   42760
   42761   42762   42761   42762   42762       0   42764   42765   42766   42765
   42766   42766       0   42768   42769   42770   42769   42770   42770       0
   42772   42773   42774   42773   42774   42774       0   42776   42777   42778
   42777   42778   42778       0   42780   42781   42782   42781   42782   42782
       0   42784   42785   42786   42785   42786   42786       0   42788   42789
   42790   42789   42790   42790       0   42792   42793   42794   42793   42794
   42794       0   42796   42797   42798   42797   42798   42798       0   42800
   42801   42802   42801   42802   42802       0   42804   42805   42806   42805
   42806   42806       0   42808   42809   42810   42809   42810   42810       0
   42812   42813   42814   42813   42814   42814       0   42816   42817   42818
   42817   42818   42818       0   42820   42821   42822   42821   42822   42822
       0   42824   42825   42826   42825   42826   42826       0   42828   42829
   42830   42829   42830   42830       0   42832   42833   42834   42833   42834
   42834       0   42836   42837   42838   42837   42838   42838       0   42840
   42841   42842   42841   42842   42842       0   42844   42845   42846   42845
   42846   42846       0   42848   42849   42850   42849   42850   42850       0
   42852   42853   42854   42853   42854   42854       0   42856   42857   42858
   42857   42858   42858       0   42860   42861   42862   42861   42862   42862
       0   42864   42865   42866   42865   42866   42866       0   42868   42869
   42870   42869   42870   42870       0   42872   42873   42874   42873   42874
   42874       0   42876   42877   42878   42877   42878   42878       0   42880
   42881   42882   42881   42882   42882       0   42884   42885   42886   42885
   42886   42886       0   42888   42889   42890   42889   42890   42890       0
   42892   42893   42894   42893   42894   42894       0   42896   42897   42898
   42897   42898   42898       0   42900   42901   42902   42901   42902   42902
       0   42904   42905   42906   42905   42906   42906       0   42908   42909
   42910   42909   42910   42910       0   42912   42913   42914   42913   42914
   42914       0   42916   42917   42918   42917   42918   42918       0   42920
   42921   42922   42921   42922   42922       0   42924   42925   42926   42925
   42926   42926       0   42928   42929   42930   42929   42930   42930       0
   42932   42933   42934   42933   42934   42934       0   42936   42937   42938
   42937   42938   42938       0   42940   42941   42942   42941   42942   42942
       0   42944   42945   42946   42945   42946   42946       0   42948   42949
   42950   42949   42950   42950       0   42952   42953   42954   42953   42954
   42954       0   42956   42957   42958   42957   42958   42958       0   42960
   42961   42962   42961   42962   42962       0   42964   42965   42966   42965
   42966   42966       0   42968   42969   42970   42969   42970   42970       0
   42972   42973   42974   42973   42974   42974       0   42976   42977   42978
   42977   42978   42978       0   42980   42981   42982   42981   42982   42982
       0   42984   42985   42986   42985   42986   42986       0   42988   42989
   42990   42989   42990   42990       0   42992   42993   42994   42993   42994
   42994       0   42996   42997   42998   42997   42998   42998       0   43000
   43001   43002   43001   43002   43002       0   43004   43005   43006   43005
   43006   43006       0   43008   43009   43010   43009   43010   43010       0
   43012   43013   43014   43013   43014   43014       0   43016   43017   43018
   43017   43018   43018       0   43020   43021   43022   43021   43022   43022
       0   43024   43025   43026   43025   43026   43026       0   43028   43029
   43030   43029   43030   43030       0   43032   43033   43034   43033   43034
   43034       0   43036   43037   43038   43037   43038   43038       0   43040
   43041   43042   43041   43042   43042       0   43044   43045   43046   43045
   43046   43046       0   43048   43049   43050   43049   43050   43050       0
   43052   43053   43054   43053   43054   43054       0   43056   43057   43058
   43057   43058   43058       0   43060   43061   43062   43061   43062   43062
       0   43064   43065   43066   43065   43066   43066       0   43068   43069
   43070   43069   43070   43070       0   43072   43073   43074   43073   43074
   43074       0   43076   43077   43078   43077   43078   43078       0   43080
   43081   43082   43081   43082   43082       0   43084   43085   43086   43085
   43086   43086       0   43088   43089   43090   43089   43090   43090       0
   43092   43093   43094   43093   43094   43094       0   43096   43097   43098
   43097   43098   43098       0   43100   43101   43102   43101   43102   43102
       0   43104   43105   43106   43105   43106   43106       0   43108   43109
   43110   43109   43110   43110       0   43112   43113   43114   43113   43114
   43114       0   43116   43117   43118   43117   43118   43118       0   43120
   43121   43122   43121   43122   43122       0   43124   43125   43126   43125
   43126   43126       0   43128   43129   43130   43129   43130   43130       0
   43132   43133   43134   43133   43134   43134       0   43136   43137   43138
   43137   43138   43138       0   43140   43141   43142   43141   43142   43142
       0   43144   43145   43146   43145   43146   43146       0   43148   43149
   43150   43149   43150   43150       0   43152   43153   43154   43153   43154
   43154       0   43156   43157   43158   43157   43158   43158       0   43160
   43161   43162   43161   43162   43162       0   43164   43165   43166   43165
   43166   43166       0   43168   43169   43170   43169   43170   43170       0
   43172   43173   43174   43173   43174   43174       0   43176   43177   43178
   43177   43178   43178       0   43180   43181   43182   43181   43182   43182
       0   43184   43185   43186   43185   43186   43186       0   43188   43189
   43190   43189   43190   43190       0   43192   43193   43194   43193   43194
   43194       0   43196   43197   43198   43197   43198   43198       0   43200
   43201   43202   43201   43202   43202       0   43204   43205   43206   43205
   43206   43206       0   43208   43209   43210   43209   43210   43210       0
   43212   43213   43214   43213   43214   43214       0   43216   43217   43218
   43217   43218   43218       0   43220   43221   43222   43221   43222   43222
       0   43224   43225   43226   43225   43226   43226       0   43228   43229
   43230   43229   43230   43230       0   43232   43233   43234   43233   43234
   43234       0   43236   43237   43238   43237   43238   43238       0   43240
   43241   43242   43241   43242   43242       0   43244   43245   43246   43245
   43246   43246       0   43248   43249   43250   43249   43250   43250       0
   43252   43253   43254   43253   43254   43254       0   43256   43257   43258
   43257   43258   43258       0   43260   43261   43262   43261   43262   43262
       0   43264   43265   43266   43265   43266   43266       0   43268   43269
   43270   43269   43270   43270       0   43272   43273   43274   43273   43274
   43274       0   43276   43277   43278   43277   43278   43278       0   43280
   43281   43282   43281   43282   43282       0   43284   43285   43286   43285
   43286   43286       0   43288   43289   43290   43289   43290   43290       0
   43292   43293   43294   43293   43294   43294       0   43296   43297   43298
   43297   43298   43298       0   43300   43301   43302   43301   43302   43302
       0   43304   43305   43306   43305   43306   43306       0   43308   43309
   43310   43309   43310   43310       0   43312   43313   43314   43313   43314
   43314       0   43316   43317   43318   43317   43318   43318       0   43320
   43321   43322   43321   43322   43322       0   43324   43325   43326   43325
   43326   43326       0   43328   43329   43330   43329   43330   43330       0
   43332   43333   43334   43333   43334   43334       0   43336   43337   43338
   43337   43338   43338       0   43340   43341   43342   43341   43342   43342
       0   43344   43345   43346   43345   43346   43346       0   43348   43349
   43350   43349   43350   43350       0   43352   43353   43354   43353   43354
   43354       0   43356   43357   43358   43357   43358   43358       0   43360
   43361   43362   43361   43362   43362       0   43364   43365   43366   43365
   43366   43366       0   43368   43369   43370   43369   43370   43370       0
   43372   43373   43374   43373   43374   43374       0   43376   43377   43378
   43377   43378   43378       0   43380   43381   43382   43381   43382   43382
       0   43384   43385   43386   43385   43386   43386       0   43388   43389
   43390   43389   43390   43390       0   43392   43393   43394   43393   43394
   43394       0   43396   43397   43398   43397   43398   43398       0   43400
   43401   43402   43401   43402   43402       0   43404   43405   43406   43405
   43406   43406       0   43408   43409   43410   43409   43410   43410       0
   43412   43413   43414   43413   43414   43414       0   43416   43417   43418
   43417   43418   43418       0   43420   43421   43422   43421   43422   43422
       0   43424   43425   43426   43425   43426   43426       0   43428   43429
   43430   43429   43430   43430       0   43432   43433   43434   43433   43434
   43434       0   43436   43437   43438   43437   43438   43438       0   43440
   43441   43442   43441   43442   43442       0   43444   43445   43446   43445
   43446   43446       0   43448   43449   43450   43449   43450   43450       0
   43452   43453   43454   43453   43454   43454       0   43456   43457   43458
   43457   43458   43458       0   43460   43461   43462   43461   43462   43462
       0   43464   43465   43466   43465   43466   43466       0   43468   43469
   43470   43469   43470   43470       0   43472   43473   43474   43473   43474
   43474       0   43476   43477   43478   43477   43478   43478       0   43480
   43481   43482   43481   43482   43482       0   43484   43485   43486   43485
   43486   43486       0   43488   43489   43490   43489   43490   43490       0
   43492   43493   43494   43493   43494   43494       0   43496   43497   43498
   43497   43498   43498       0   43500   43501   43502   43501   43502   43502
       0   43504   43505   43506   43505   43506   43506       0   43508   43509
   43510   43509   43510   43510       0   43512   43513   43514   43513   43514
   43514       0   43516   43517   43518   43517   43518   43518       0   43520
   43521   43522   43521   43522   43522       0   43524   43525   43526   43525
   43526   43526       0   43528   43529   43530   43529   43530   43530       0
   43532   43533   43534   43533   43534   43534       0   43536   43537   43538
   43537   43538   43538       0   43540   43541   43542   43541   43542   43542
       0   43544   43545   43546   43545   43546   43546       0   43548   43549
   43550   43549   43550   43550       0   43552   43553   43554   43553   43554
   43554       0   43556   43557   43558   43557   43558   43558       0   43560
   43561   43562   43561   43562   43562       0   43564   43565   43566   43565
   43566   43566       0   43568   43569   43570   43569   43570   43570       0
   43572   43573   43574   43573   43574   43574       0   43576   43577   43578
   43577   43578   43578       0   43580   43581   43582   43581   43582   43582
       0   43584   43585   43586   43585   43586   43586       0   43588   43589
   43590   43589   43590   43590       0   43592   43593   43594   43593   43594
   43594       0   43596   43597   43598   43597   43598   43598       0   43600
   43601   43602   43601   43602   43602       0   43604   43605   43606   43605
   43606   43606       0   43608   43609   43610   43609   43610   43610       0
   43612   43613   43614   43613   43614   43614       0   43616   43617   43618
   43617   43618   43618       0   43620   43621   43622   43621   43622   43622
       0   43624   43625   43626   43625   43626   43626       0   43628   43629
   43630   43629   43630   43630       0   43632   43633   43634   43633   43634
   43634       0   43636   43637   43638   43637   43638   43638       0   43640
   43641   43642   43641   43642   43642       0   43644   43645   43646   43645
   43646   43646       0   43648   43649   43650   43649   43650   43650       0
   43652   43653   43654   43653   43654   43654       0   43656   43657   43658
   43657   43658   43658       0   43660   43661   43662   43661   43662   43662
       0   43664   43665   43666   43665   43666   43666       0   43668   43669
   43670   43669   43670   43670       0   43672   43673   43674   43673   43674
   43674       0   43676   43677   43678   43677   43678   43678       0   43680
   43681   43682   43681   43682   43682       0   43684   43685   43686   43685
   43686   43686       0   43688   43689   43690   43689   43690   43690       0
   43692   43693   43694   43693   43694   43694       0   43696   43697   43698
   43697   43698   43698       0   43700   43701   43702   43701   43702   43702
       0   43704   43705   43706   43705   43706   43706       0   43708   43709
   43710   43709   43710   43710       0   43712   43713   43714   43713   43714
   43714       0   43716   43717   43718   43717   43718   43718       0   43720
   43721   43722   43721   43722   43722       0   43724   43725   43726   43725
   43726   43726       0   43728   43729   43730   43729   43730   43730       0
   43732   43733   43734   43733   43734   43734       0   43736   43737   43738
   43737   43738   43738       0   43740   43741   43742   43741   43742   43742
       0   43744   43745   43746   43745   43746   43746       0   43748   43749
   43750   43749   43750   43750       0   43752   43753   43754   43753   43754
   43754       0   43756   43757   43758   43757   43758   43758       0   43760
   43761   43762   43761   43762   43762       0   43764   43765   43766   43765
   43766   43766       0   43768   43769   43770   43769   43770   43770       0
   43772   43773   43774   43773   43774   43774       0   43776   43777   43778
   43777   43778   43778       0   43780   43781   43782   43781   43782   43782
       0   43784   43785   43786   43785   43786   43786       0   43788   43789
   43790   43789   43790   43790       0   43792   43793   43794   43793   43794
   43794       0   43796   43797   43798   43797   43798   43798       0   43800
   43801   43802   43801   43802   43802       0   43804   43805   43806   43805
   43806   43806       0   43808   43809   43810   43809   43810   43810       0
   43812   43813   43814   43813   43814   43814       0   43816   43817   43818
   43817   43818   43818       0   43820   43821   43822   43821   43822   43822
       0   43824   43825   43826   43825   43826   43826       0   43828   43829
   43830   43829   43830   43830       0   43832   43833   43834   43833   43834
   43834       0   43836   43837   43838   43837   43838   43838       0   43840
   43841   43842   43841   43842   43842       0   43844   43845   43846   43845
   43846   43846       0   43848   43849   43850   43849   43850   43850       0
   43852   43853   43854   43853   43854   43854       0   43856   43857   43858
   43857   43858   43858       0   43860   43861   43862   43861   43862   43862
       0   43864   43865   43866   43865   43866   43866       0   43868   43869
   43870   43869   43870   43870       0   43872   43873   43874   43873   43874
   43874       0   43876   43877   43878   43877   43878   43878       0   43880
   43881   43882   43881   43882   43882       0   43884   43885   43886   43885
   43886   43886       0   43888   43889   43890   43889   43890   43890       0
   43892   43893   43894   43893   43894   43894       0   43896   43897   43898
   43897   43898   43898       0   43900   43901   43902   43901   43902   43902
       0   43904   43905   43906   43905   43906   43906       0   43908   43909
   43910   43909   43910   43910       0   43912   43913   43914   43913   43914
   43914       0   43916   43917   43918   43917   43918   43918       0   43920
   43921   43922   43921   43922   43922       0   43924   43925   43926   43925
   43926   43926       0   43928   43929   43930   43929   43930   43930       0
   43932   43933   43934   43933   43934   43934       0   43936   43937   43938
   43937   43938   43938       0   43940   43941   43942   43941   43942   43942
       0   43944   43945   43946   43945   43946   43946       0   43948   43949
   43950   43949   43950   43950       0   43952   43953   43954   43953   43954
   43954       0   43956   43957   43958   43957   43958   43958       0   43960
   43961   43962   43961   43962   43962       0   43964   43965   43966   43965
   43966   43966       0   43968   43969   43970   43969   43970   43970       0
   43972   43973   43974   43973   43974   43974       0   43976   43977   43978
   43977   43978   43978       0   43980   43981   43982   43981   43982   43982
       0   43984   43985   43986   43985   43986   43986       0   43988   43989
   43990   43989   43990   43990       0   43992   43993   43994   43993   43994
   43994       0   43996   43997   43998   43997   43998   43998       0   44000
   44001   44002   44001   44002   44002       0   44004   44005   44006   44005
   44006   44006       0   44008   44009   44010   44009   44010   44010       0
   44012   44013   44014   44013   44014   44014       0   44016   44017   44018
   44017   44018   44018       0   44020   44021   44022   44021   44022   44022
       0   44024   44025   44026   44025   44026   44026       0   44028   44029
   44030   44029   44030   44030       0   44032   44033   44034   44033   44034
   44034       0   44036   44037   44038   44037   44038   44038       0   44040
   44041   44042   44041   44042   44042       0   44044   44045   44046   44045
   44046   44046       0   44048   44049   44050   44049   44050   44050       0
   44052   44053   44054   44053   44054   44054       0   44056   44057   44058
   44057   44058   44058       0   44060   44061   44062   44061   44062   44062
       0   44064   44065   44066   44065   44066   44066       0   44068   44069
   44070   44069   44070   44070       0   44072   44073   44074   44073   44074
   44074       0   44076   44077   44078   44077   44078   44078       0   44080
   44081   44082   44081   44082   44082       0   44084   44085   44086   44085
   44086   44086       0   44088   44089   44090   44089   44090   44090       0
   44092   44093   44094   44093   44094   44094       0   44096   44097   44098
   44097   44098   44098       0   44100   44101   44102   44101   44102   44102
       0   44104   44105   44106   44105   44106   44106       0   44108   44109
   44110   44109   44110   44110       0   44112   44113   44114   44113   44114
   44114       0   44116   44117   44118   44117   44118   44118       0   44120
   44121   44122   44121   44122   44122       0   44124   44125   44126   44125
   44126   44126       0   44128   44129   44130   44129   44130   44130       0
   44132   44133   44134   44133   44134   44134       0   44136   44137   44138
   44137   44138   44138       0   44140   44141   44142   44141   44142   44142
       0   44144   44145   44146   44145   44146   44146       0   44148   44149
   44150   44149   44150   44150       0   44152   44153   44154   44153   44154
   44154       0   44156   44157   44158   44157   44158   44158       0   44160
   44161   44162   44161   44162   44162       0   44164   44165   44166   44165
   44166   44166       0   44168   44169   44170   44169   44170   44170       0
   44172   44173   44174   44173   44174   44174       0   44176   44177   44178
   44177   44178   44178       0   44180   44181   44182   44181   44182   44182
       0   44184   44185   44186   44185   44186   44186       0   44188   44189
   44190   44189   44190   44190       0   44192   44193   44194   44193   44194
   44194       0   44196   44197   44198   44197   44198   44198       0   44200
   44201   44202   44201   44202   44202       0   44204   44205   44206   44205
   44206   44206       0   44208   44209   44210   44209   44210   44210       0
   44212   44213   44214   44213   44214   44214       0   44216   44217   44218
   44217   44218   44218       0   44220   44221   44222   44221   44222   44222
       0   44224   44225   44226   44225   44226   44226       0   44228   44229
   44230   44229   44230   44230       0   44232   44233   44234   44233   44234
   44234       0   44236   44237   44238   44237   44238   44238       0   44240
   44241   44242   44241   44242   44242       0   44244   44245   44246   44245
   44246   44246       0   44248   44249   44250   44249   44250   44250       0
   44252   44253   44254   44253   44254   44254       0   44256   44257   44258
   44257   44258   44258       0   44260   44261   44262   44261   44262   44262
       0   44264   44265   44266   44265   44266   44266       0   44268   44269
   44270   44269   44270   44270       0   44272   44273   44274   44273   44274
   44274       0   44276   44277   44278   44277   44278   44278       0   44280
   44281   44282   44281   44282   44282       0   44284   44285   44286   44285
   44286   44286       0   44288   44289   44290   44289   44290   44290       0
   44292   44293   44294   44293   44294   44294       0   44296   44297   44298
   44297   44298   44298       0   44300   44301   44302   44301   44302   44302
       0   44304   44305   44306   44305   44306   44306       0   44308   44309
   44310   44309   44310   44310       0   44312   44313   44314   44313   44314
   44314       0   44316   44317   44318   44317   44318   44318       0   44320
   44321   44322   44321   44322   44322       0   44324   44325   44326   44325
   44326   44326       0   44328   44329   44330   44329   44330   44330       0
   44332   44333   44334   44333   44334   44334       0   44336   44337   44338
   44337   44338   44338       0   44340   44341   44342   44341   44342   44342
       0   44344   44345   44346   44345   44346   44346       0   44348   44349
   44350   44349   44350   44350       0   44352   44353   44354   44353   44354
   44354       0   44356   44357   44358   44357   44358   44358       0   44360
   44361   44362   44361   44362   44362       0   44364   44365   44366   44365
   44366   44366       0   44368   44369   44370   44369   44370   44370       0
   44372   44373   44374   44373   44374   44374       0   44376   44377   44378
   44377   44378   44378       0   44380   44381   44382   44381   44382   44382
       0   44384   44385   44386   44385   44386   44386       0   44388   44389
   44390   44389   44390   44390       0   44392   44393   44394   44393   44394
   44394       0   44396   44397   44398   44397   44398   44398       0   44400
   44401   44402   44401   44402   44402       0   44404   44405   44406   44405
   44406   44406       0   44408   44409   44410   44409   44410   44410       0
   44412   44413   44414   44413   44414   44414       0   44416   44417   44418
   44417   44418   44418       0   44420   44421   44422   44421   44422   44422
       0   44424   44425   44426   44425   44426   44426       0   44428   44429
   44430   44429   44430   44430       0   44432   44433   44434   44433   44434
   44434       0   44436   44437   44438   44437   44438   44438       0   44440
   44441   44442   44441   44442   44442       0   44444   44445   44446   44445
   44446   44446       0   44448   44449   44450   44449   44450   44450       0
   44452   44453   44454   44453   44454   44454       0   44456   44457   44458
   44457   44458   44458       0   44460   44461   44462   44461   44462   44462
       0   44464   44465   44466   44465   44466   44466       0   44468   44469
   44470   44469   44470   44470       0   44472   44473   44474   44473   44474
   44474       0   44476   44477   44478   44477   44478   44478       0   44480
   44481   44482   44481   44482   44482       0   44484   44485   44486   44485
   44486   44486       0   44488   44489   44490   44489   44490   44490       0
   44492   44493   44494   44493   44494   44494       0   44496   44497   44498
   44497   44498   44498       0   44500   44501   44502   44501   44502   44502
       0   44504   44505   44506   44505   44506   44506       0   44508   44509
   44510   44509   44510   44510       0   44512   44513   44514   44513   44514
   44514       0   44516   44517   44518   44517   44518   44518       0   44520
   44521   44522   44521   44522   44522       0   44524   44525   44526   44525
   44526   44526       0   44528   44529   44530   44529   44530   44530       0
   44532   44533   44534   44533   44534   44534       0   44536   44537   44538
   44537   44538   44538       0   44540   44541   44542   44541   44542   44542
       0   44544   44545   44546   44545   44546   44546       0   44548   44549
   44550   44549   44550   44550       0   44552   44553   44554   44553   44554
   44554       0   44556   44557   44558   44557   44558   44558       0   44560
   44561   44562   44561   44562   44562       0   44564   44565   44566   44565
   44566   44566       0   44568   44569   44570   44569   44570   44570       0
   44572   44573   44574   44573   44574   44574       0   44576   44577   44578
   44577   44578   44578       0   44580   44581   44582   44581   44582   44582
       0   44584   44585   44586   44585   44586   44586       0   44588   44589
   44590   44589   44590   44590       0   44592   44593   44594   44593   44594
   44594       0   44596   44597   44598   44597   44598   44598       0   44600
   44601   44602   44601   44602   44602       0   44604   44605   44606   44605
   44606   44606       0   44608   44609   44610   44609   44610   44610       0
   44612   44613   44614   44613   44614   44614       0   44616   44617   44618
   44617   44618   44618       0   44620   44621   44622   44621   44622   44622
       0   44624   44625   44626   44625   44626   44626       0   44628   44629
   44630   44629   44630   44630       0   44632   44633   44634   44633   44634
   44634       0   44636   44637   44638   44637   44638   44638       0   44640
   44641   44642   44641   44642   44642       0   44644   44645   44646   44645
   44646   44646       0   44648   44649   44650   44649   44650   44650       0
   44652   44653   44654   44653   44654   44654       0   44656   44657   44658
   44657   44658   44658       0   44660   44661   44662   44661   44662   44662
       0   44664   44665   44666   44665   44666   44666       0   44668   44669
   44670   44669   44670   44670       0   44672   44673   44674   44673   44674
   44674       0   44676   44677   44678   44677   44678   44678       0   44680
   44681   44682   44681   44682   44682       0   44684   44685   44686   44685
   44686   44686       0   44688   44689   44690   44689   44690   44690       0
   44692   44693   44694   44693   44694   44694       0   44696   44697   44698
   44697   44698   44698       0   44700   44701   44702   44701   44702   44702
       0   44704   44705   44706   44705   44706   44706       0   44708   44709
   44710   44709   44710   44710       0   44712   44713   44714   44713   44714
   44714       0   44716   44717   44718   44717   44718   44718       0   44720
   44721   44722   44721   44722   44722       0   44724   44725   44726   44725
   44726   44726       0   44728   44729   44730   44729   44730   44730       0
   44732   44733   44734   44733   44734   44734       0   44736   44737   44738
   44737   44738   44738       0   44740   44741   44742   44741   44742   44742
       0   44744   44745   44746   44745   44746   44746       0   44748   44749
   44750   44749   44750   44750       0   44752   44753   44754   44753   44754
   44754       0   44756   44757   44758   44757   44758   44758       0   44760
   44761   44762   44761   44762   44762       0   44764   44765   44766   44765
   44766   44766       0   44768   44769   44770   44769   44770   44770       0
   44772   44773   44774   44773   44774   44774       0   44776   44777   44778
   44777   44778   44778       0   44780   44781   44782   44781   44782   44782
       0   44784   44785   44786   44785   44786   44786       0   44788   44789
   44790   44789   44790   44790       0   44792   44793   44794   44793   44794
   44794       0   44796   44797   44798   44797   44798   44798       0   44800
   44801   44802   44801   44802   44802       0   44804   44805   44806   44805
   44806   44806       0   44808   44809   44810   44809   44810   44810       0
   44812   44813   44814   44813   44814   44814       0   44816   44817   44818
   44817   44818   44818       0   44820   44821   44822   44821   44822   44822
       0   44824   44825   44826   44825   44826   44826       0   44828   44829
   44830   44829   44830   44830       0   44832   44833   44834   44833   44834
   44834       0   44836   44837   44838   44837   44838   44838       0   44840
   44841   44842   44841   44842   44842       0   44844   44845   44846   44845
   44846   44846       0   44848   44849   44850   44849   44850   44850       0
   44852   44853   44854   44853   44854   44854       0   44856   44857   44858
   44857   44858   44858       0   44860   44861   44862   44861   44862   44862
       0   44864   44865   44866   44865   44866   44866       0   44868   44869
   44870   44869   44870   44870       0   44872   44873   44874   44873   44874
   44874       0   44876   44877   44878   44877   44878   44878       0   44880
   44881   44882   44881   44882   44882       0   44884   44885   44886   44885
   44886   44886       0   44888   44889   44890   44889   44890   44890       0
   44892   44893   44894   44893   44894   44894       0   44896   44897   44898
   44897   44898   44898       0   44900   44901   44902   44901   44902   44902
       0   44904   44905   44906   44905   44906   44906       0   44908   44909
   44910   44909   44910   44910       0   44912   44913   44914   44913   44914
   44914       0   44916   44917   44918   44917   44918   44918       0   44920
   44921   44922   44921   44922   44922       0   44924   44925   44926   44925
   44926   44926       0   44928   44929   44930   44929   44930   44930       0
   44932   44933   44934   44933   44934   44934       0   44936   44937   44938
   44937   44938   44938       0   44940   44941   44942   44941   44942   44942
       0   44944   44945   44946   44945   44946   44946       0   44948   44949
   44950   44949   44950   44950       0   44952   44953   44954   44953   44954
   44954       0   44956   44957   44958   44957   44958   44958       0   44960
   44961   44962   44961   44962   44962       0   44964   44965   44966   44965
   44966   44966       0   44968   44969   44970   44969   44970   44970       0
   44972   44973   44974   44973   44974   44974       0   44976   44977   44978
   44977   44978   44978       0   44980   44981   44982   44981   44982   44982
       0   44984   44985   44986   44985   44986   44986       0   44988   44989
   44990   44989   44990   44990       0   44992   44993   44994   44993   44994
   44994       0   44996   44997   44998   44997   44998   44998       0   45000
   45001   45002   45001   45002   45002       0   45004   45005   45006   45005
   45006   45006       0   45008   45009   45010   45009   45010   45010       0
   45012   45013   45014   45013   45014   45014       0   45016   45017   45018
   45017   45018   45018       0   45020   45021   45022   45021   45022   45022
       0   45024   45025   45026   45025   45026   45026       0   45028   45029
   45030   45029   45030   45030       0   45032   45033   45034   45033   45034
   45034       0   45036   45037   45038   45037   45038   45038       0   45040
   45041   45042   45041   45042   45042       0   45044   45045   45046   45045
   45046   45046       0   45048   45049   45050   45049   45050   45050       0
   45052   45053   45054   45053   45054   45054       0   45056   45057   45058
   45057   45058   45058       0   45060   45061   45062   45061   45062   45062
       0   45064   45065   45066   45065   45066   45066       0   45068   45069
   45070   45069   45070   45070       0   45072   45073   45074   45073   45074
   45074       0   45076   45077   45078   45077   45078   45078       0   45080
   45081   45082   45081   45082   45082       0   45084   45085   45086   45085
   45086   45086       0   45088   45089   45090   45089   45090   45090       0
   45092   45093   45094   45093   45094   45094       0   45096   45097   45098
   45097   45098   45098       0   45100   45101   45102   45101   45102   45102
       0   45104   45105   45106   45105   45106   45106       0   45108   45109
   45110   45109   45110   45110       0   45112   45113   45114   45113   45114
   45114       0   45116   45117   45118   45117   45118   45118       0   45120
   45121   45122   45121   45122   45122       0   45124   45125   45126   45125
   45126   45126       0   45128   45129   45130   45129   45130   45130       0
   45132   45133   45134   45133   45134   45134       0   45136   45137   45138
   45137   45138   45138       0   45140   45141   45142   45141   45142   45142
       0   45144   45145   45146   45145   45146   45146       0   45148   45149
   45150   45149   45150   45150       0   45152   45153   45154   45153   45154
   45154       0   45156   45157   45158   45157   45158   45158       0   45160
   45161   45162   45161   45162   45162       0   45164   45165   45166   45165
   45166   45166       0   45168   45169   45170   45169   45170   45170       0
   45172   45173   45174   45173   45174   45174       0   45176   45177   45178
   45177   45178   45178       0   45180   45181   45182   45181   45182   45182
       0   45184   45185   45186   45185   45186   45186       0   45188   45189
   45190   45189   45190   45190       0   45192   45193   45194   45193   45194
   45194       0   45196   45197   45198   45197   45198   45198       0   45200
   45201   45202   45201   45202   45202       0   45204   45205   45206   45205
   45206   45206       0   45208   45209   45210   45209   45210   45210       0
   45212   45213   45214   45213   45214   45214       0   45216   45217   45218
   45217   45218   45218       0   45220   45221   45222   45221   45222   45222
       0   45224   45225   45226   45225   45226   45226       0   45228   45229
   45230   45229   45230   45230       0   45232   45233   45234   45233   45234
   45234       0   45236   45237   45238   45237   45238   45238       0   45240
   45241   45242   45241   45242   45242       0   45244   45245   45246   45245
   45246   45246       0   45248   45249   45250   45249   45250   45250       0
   45252   45253   45254   45253   45254   45254       0   45256   45257   45258
   45257   45258   45258       0   45260   45261   45262   45261   45262   45262
       0   45264   45265   45266   45265   45266   45266       0   45268   45269
   45270   45269   45270   45270       0   45272   45273   45274   45273   45274
   45274       0   45276   45277   45278   45277   45278   45278       0   45280
   45281   45282   45281   45282   45282       0   45284   45285   45286   45285
   45286   45286       0   45288   45289   45290   45289   45290   45290       0
   45292   45293   45294   45293   45294   45294       0   45296   45297   45298
   45297   45298   45298       0   45300   45301   45302   45301   45302   45302
       0   45304   45305   45306   45305   45306   45306       0   45308   45309
   45310   45309   45310   45310       0   45312   45313   45314   45313   45314
   45314       0   45316   45317   45318   45317   45318   45318       0   45320
   45321   45322   45321   45322   45322       0   45324   45325   45326   45325
   45326   45326       0   45328   45329   45330   45329   45330   45330       0
   45332   45333   45334   45333   45334   45334       0   45336   45337   45338
   45337   45338   45338       0   45340   45341   45342   45341   45342   45342
       0   45344   45345   45346   45345   45346   45346       0   45348   45349
   45350   45349   45350   45350       0   45352   45353   45354   45353   45354
   45354       0   45356   45357   45358   45357   45358   45358       0   45360
   45361   45362   45361   45362   45362       0   45364   45365   45366   45365
   45366   45366       0   45368   45369   45370   45369   45370   45370       0
   45372   45373   45374   45373   45374   45374       0   45376   45377   45378
   45377   45378   45378       0   45380   45381   45382   45381   45382   45382
       0   45384   45385   45386   45385   45386   45386       0   45388   45389
   45390   45389   45390   45390       0   45392   45393   45394   45393   45394
   45394       0   45396   45397   45398   45397   45398   45398       0   45400
   45401   45402   45401   45402   45402       0   45404   45405   45406   45405
   45406   45406       0   45408   45409   45410   45409   45410   45410       0
   45412   45413   45414   45413   45414   45414       0   45416   45417   45418
   45417   45418   45418       0   45420   45421   45422   45421   45422   45422
       0   45424   45425   45426   45425   45426   45426       0   45428   45429
   45430   45429   45430   45430       0   45432   45433   45434   45433   45434
   45434       0   45436   45437   45438   45437   45438   45438       0   45440
   45441   45442   45441   45442   45442       0   45444   45445   45446   45445
   45446   45446       0   45448   45449   45450   45449   45450   45450       0
   45452   45453   45454   45453   45454   45454       0   45456   45457   45458
   45457   45458   45458       0   45460   45461   45462   45461   45462   45462
       0   45464   45465   45466   45465   45466   45466       0   45468   45469
   45470   45469   45470   45470       0   45472   45473   45474   45473   45474
   45474       0   45476   45477   45478   45477   45478   45478       0   45480
   45481   45482   45481   45482   45482       0   45484   45485   45486   45485
   45486   45486       0   45488   45489   45490   45489   45490   45490       0
   45492   45493   45494   45493   45494   45494       0   45496   45497   45498
   45497   45498   45498       0   45500   45501   45502   45501   45502   45502
       0   45504   45505   45506   45505   45506   45506       0   45508   45509
   45510   45509   45510   45510       0   45512   45513   45514   45513   45514
   45514       0   45516   45517   45518   45517   45518   45518       0   45520
   45521   45522   45521   45522   45522       0   45524   45525   45526   45525
   45526   45526       0   45528   45529   45530   45529   45530   45530       0
   45532   45533   45534   45533   45534   45534       0   45536   45537   45538
   45537   45538   45538       0   45540   45541   45542   45541   45542   45542
       0   45544   45545   45546   45545   45546   45546       0   45548   45549
   45550   45549   45550   45550       0   45552   45553   45554   45553   45554
   45554       0   45556   45557   45558   45557   45558   45558       0   45560
   45561   45562   45561   45562   45562       0   45564   45565   45566   45565
   45566   45566       0   45568   45569   45570   45569   45570   45570       0
   45572   45573   45574   45573   45574   45574       0   45576   45577   45578
   45577   45578   45578       0   45580   45581   45582   45581   45582   45582
       0   45584   45585   45586   45585   45586   45586       0   45588   45589
   45590   45589   45590   45590       0   45592   45593   45594   45593   45594
   45594       0   45596   45597   45598   45597   45598   45598       0   45600
   45601   45602   45601   45602   45602       0   45604   45605   45606   45605
   45606   45606       0   45608   45609   45610   45609   45610   45610       0
   45612   45613   45614   45613   45614   45614       0   45616   45617   45618
   45617   45618   45618       0   45620   45621   45622   45621   45622   45622
       0   45624   45625   45626   45625   45626   45626       0   45628   45629
   45630   45629   45630   45630       0   45632   45633   45634   45633   45634
   45634       0   45636   45637   45638   45637   45638   45638       0   45640
   45641   45642   45641   45642   45642       0   45644   45645   45646   45645
   45646   45646       0   45648   45649   45650   45649   45650   45650       0
   45652   45653   45654   45653   45654   45654       0   45656   45657   45658
   45657   45658   45658       0   45660   45661   45662   45661   45662   45662
       0   45664   45665   45666   45665   45666   45666       0   45668   45669
   45670   45669   45670   45670       0   45672   45673   45674   45673   45674
   45674       0   45676   45677   45678   45677   45678   45678       0   45680
   45681   45682   45681   45682   45682       0   45684   45685   45686   45685
   45686   45686       0   45688   45689   45690   45689   45690   45690       0
   45692   45693   45694   45693   45694   45694       0   45696   45697   45698
   45697   45698   45698       0   45700   45701   45702   45701   45702   45702
       0   45704   45705   45706   45705   45706   45706       0   45708   45709
   45710   45709   45710   45710       0   45712   45713   45714   45713   45714
   45714       0   45716   45717   45718   45717   45718   45718       0   45720
   45721   45722   45721   45722   45722       0   45724   45725   45726   45725
   45726   45726       0   45728   45729   45730   45729   45730   45730       0
   45732   45733   45734   45733   45734   45734       0   45736   45737   45738
   45737   45738   45738       0   45740   45741   45742   45741   45742   45742
       0   45744   45745   45746   45745   45746   45746       0   45748   45749
   45750   45749   45750   45750       0   45752   45753   45754   45753   45754
   45754       0   45756   45757   45758   45757   45758   45758       0   45760
   45761   45762   45761   45762   45762       0   45764   45765   45766   45765
   45766   45766       0   45768   45769   45770   45769   45770   45770       0
   45772   45773   45774   45773   45774   45774       0   45776   45777   45778
   45777   45778   45778       0   45780   45781   45782   45781   45782   45782
       0   45784   45785   45786   45785   45786   45786       0   45788   45789
   45790   45789   45790   45790       0   45792   45793   45794   45793   45794
   45794       0   45796   45797   45798   45797   45798   45798       0   45800
   45801   45802   45801   45802   45802       0   45804   45805   45806   45805
   45806   45806       0   45808   45809   45810   45809   45810   45810       0
   45812   45813   45814   45813   45814   45814       0   45816   45817   45818
   45817   45818   45818       0   45820   45821   45822   45821   45822   45822
       0   45824   45825   45826   45825   45826   45826       0   45828   45829
   45830   45829   45830   45830       0   45832   45833   45834   45833   45834
   45834       0   45836   45837   45838   45837   45838   45838       0   45840
   45841   45842   45841   45842   45842       0   45844   45845   45846   45845
   45846   45846       0   45848   45849   45850   45849   45850   45850       0
   45852   45853   45854   45853   45854   45854       0   45856   45857   45858
   45857   45858   45858       0   45860   45861   45862   45861   45862   45862
       0   45864   45865   45866   45865   45866   45866       0   45868   45869
   45870   45869   45870   45870       0   45872   45873   45874   45873   45874
   45874       0   45876   45877   45878   45877   45878   45878       0   45880
   45881   45882   45881   45882   45882       0   45884   45885   45886   45885
   45886   45886       0   45888   45889   45890   45889   45890   45890       0
   45892   45893   45894   45893   45894   45894       0   45896   45897   45898
   45897   45898   45898       0   45900   45901   45902   45901   45902   45902
       0   45904   45905   45906   45905   45906   45906       0   45908   45909
   45910   45909   45910   45910       0   45912   45913   45914   45913   45914
   45914       0   45916   45917   45918   45917   45918   45918       0   45920
   45921   45922   45921   45922   45922       0   45924   45925   45926   45925
   45926   45926       0   45928   45929   45930   45929   45930   45930       0
   45932   45933   45934   45933   45934   45934       0   45936   45937   45938
   45937   45938   45938       0   45940   45941   45942   45941   45942   45942
       0   45944   45945   45946   45945   45946   45946       0   45948   45949
   45950   45949   45950   45950       0   45952   45953   45954   45953   45954
   45954       0   45956   45957   45958   45957   45958   45958       0   45960
   45961   45962   45961   45962   45962       0   45964   45965   45966   45965
   45966   45966       0   45968   45969   45970   45969   45970   45970       0
   45972   45973   45974   45973   45974   45974       0   45976   45977   45978
   45977   45978   45978       0   45980   45981   45982   45981   45982   45982
       0   45984   45985   45986   45985   45986   45986       0   45988   45989
   45990   45989   45990   45990       0   45992   45993   45994   45993   45994
   45994       0   45996   45997   45998   45997   45998   45998       0   46000
   46001   46002   46001   46002   46002       0   46004   46005   46006   46005
   46006   46006       0   46008   46009   46010   46009   46010   46010       0
   46012   46013   46014   46013   46014   46014       0   46016   46017   46018
   46017   46018   46018       0   46020   46021   46022   46021   46022   46022
       0   46024   46025   46026   46025   46026   46026       0   46028   46029
   46030   46029   46030   46030       0   46032   46033   46034   46033   46034
   46034       0   46036   46037   46038   46037   46038   46038       0   46040
   46041   46042   46041   46042   46042       0   46044   46045   46046   46045
   46046   46046       0   46048   46049   46050   46049   46050   46050       0
   46052   46053   46054   46053   46054   46054       0   46056   46057   46058
   46057   46058   46058       0   46060   46061   46062   46061   46062   46062
       0   46064   46065   46066   46065   46066   46066       0   46068   46069
   46070   46069   46070   46070       0   46072   46073   46074   46073   46074
   46074       0   46076   46077   46078   46077   46078   46078       0   46080
   46081   46082   46081   46082   46082       0   46084   46085   46086   46085
   46086   46086       0   46088   46089   46090   46089   46090   46090       0
   46092   46093   46094   46093   46094   46094       0   46096   46097   46098
   46097   46098   46098       0   46100   46101   46102   46101   46102   46102
       0   46104   46105   46106   46105   46106   46106       0   46108   46109
   46110   46109   46110   46110       0   46112   46113   46114   46113   46114
   46114       0   46116   46117   46118   46117   46118   46118       0   46120
   46121   46122   46121   46122   46122       0   46124   46125   46126   46125
   46126   46126       0   46128   46129   46130   46129   46130   46130       0
   46132   46133   46134   46133   46134   46134       0   46136   46137   46138
   46137   46138   46138       0   46140   46141   46142   46141   46142   46142
       0   46144   46145   46146   46145   46146   46146       0   46148   46149
   46150   46149   46150   46150       0   46152   46153   46154   46153   46154
   46154       0   46156   46157   46158   46157   46158   46158       0   46160
   46161   46162   46161   46162   46162       0   46164   46165   46166   46165
   46166   46166       0   46168   46169   46170   46169   46170   46170       0
   46172   46173   46174   46173   46174   46174       0   46176   46177   46178
   46177   46178   46178       0   46180   46181   46182   46181   46182   46182
       0   46184   46185   46186   46185   46186   46186       0   46188   46189
   46190   46189   46190   46190       0   46192   46193   46194   46193   46194
   46194       0   46196   46197   46198   46197   46198   46198       0   46200
   46201   46202   46201   46202   46202       0   46204   46205   46206   46205
   46206   46206       0   46208   46209   46210   46209   46210   46210       0
   46212   46213   46214   46213   46214   46214       0   46216   46217   46218
   46217   46218   46218       0   46220   46221   46222   46221   46222   46222
       0   46224   46225   46226   46225   46226   46226       0   46228   46229
   46230   46229   46230   46230       0   46232   46233   46234   46233   46234
   46234       0   46236   46237   46238   46237   46238   46238       0   46240
   46241   46242   46241   46242   46242       0   46244   46245   46246   46245
   46246   46246       0   46248   46249   46250   46249   46250   46250       0
   46252   46253   46254   46253   46254   46254       0   46256   46257   46258
   46257   46258   46258       0   46260   46261   46262   46261   46262   46262
       0   46264   46265   46266   46265   46266   46266       0   46268   46269
   46270   46269   46270   46270       0   46272   46273   46274   46273   46274
   46274       0   46276   46277   46278   46277   46278   46278       0   46280
   46281   46282   46281   46282   46282       0   46284   46285   46286   46285
   46286   46286       0   46288   46289   46290   46289   46290   46290       0
   46292   46293   46294   46293   46294   46294       0   46296   46297   46298
   46297   46298   46298       0   46300   46301   46302   46301   46302   46302
       0   46304   46305   46306   46305   46306   46306       0   46308   46309
   46310   46309   46310   46310       0   46312   46313   46314   46313   46314
   46314       0   46316   46317   46318   46317   46318   46318       0   46320
   46321   46322   46321   46322   46322       0   46324   46325   46326   46325
   46326   46326       0   46328   46329   46330   46329   46330   46330       0
   46332   46333   46334   46333   46334   46334       0   46336   46337   46338
   46337   46338   46338       0   46340   46341   46342   46341   46342   46342
       0   46344   46345   46346   46345   46346   46346       0   46348   46349
   46350   46349   46350   46350       0   46352   46353   46354   46353   46354
   46354       0   46356   46357   46358   46357   46358   46358       0   46360
   46361   46362   46361   46362   46362       0   46364   46365   46366   46365
   46366   46366       0   46368   46369   46370   46369   46370   46370       0
   46372   46373   46374   46373   46374   46374       0   46376   46377   46378
   46377   46378   46378       0   46380   46381   46382   46381   46382   46382
       0   46384   46385   46386   46385   46386   46386       0   46388   46389
   46390   46389   46390   46390       0   46392   46393   46394   46393   46394
   46394       0   46396   46397   46398   46397   46398   46398       0   46400
   46401   46402   46401   46402   46402       0   46404   46405   46406   46405
   46406   46406       0   46408   46409   46410   46409   46410   46410       0
   46412   46413   46414   46413   46414   46414       0   46416   46417   46418
   46417   46418   46418       0   46420   46421   46422   46421   46422   46422
       0   46424   46425   46426   46425   46426   46426       0   46428   46429
   46430   46429   46430   46430       0   46432   46433   46434   46433   46434
   46434       0   46436   46437   46438   46437   46438   46438       0   46440
   46441   46442   46441   46442   46442       0   46444   46445   46446   46445
   46446   46446       0   46448   46449   46450   46449   46450   46450       0
   46452   46453   46454   46453   46454   46454       0   46456   46457   46458
   46457   46458   46458       0   46460   46461   46462   46461   46462   46462
       0   46464   46465   46466   46465   46466   46466       0   46468   46469
   46470   46469   46470   46470       0   46472   46473   46474   46473   46474
   46474       0   46476   46477   46478   46477   46478   46478       0   46480
   46481   46482   46481   46482   46482       0   46484   46485   46486   46485
   46486   46486       0   46488   46489   46490   46489   46490   46490       0
   46492   46493   46494   46493   46494   46494       0   46496   46497   46498
   46497   46498   46498       0   46500   46501   46502   46501   46502   46502
       0   46504   46505   46506   46505   46506   46506       0   46508   46509
   46510   46509   46510   46510       0   46512   46513   46514   46513   46514
   46514       0   46516   46517   46518   46517   46518   46518       0   46520
   46521   46522   46521   46522   46522       0   46524   46525   46526   46525
   46526   46526       0   46528   46529   46530   46529   46530   46530       0
   46532   46533   46534   46533   46534   46534       0   46536   46537   46538
   46537   46538   46538       0   46540   46541   46542   46541   46542   46542
       0   46544   46545   46546   46545   46546   46546       0   46548   46549
   46550   46549   46550   46550       0   46552   46553   46554   46553   46554
   46554       0   46556   46557   46558   46557   46558   46558       0   46560
   46561   46562   46561   46562   46562       0   46564   46565   46566   46565
   46566   46566       0   46568   46569   46570   46569   46570   46570       0
   46572   46573   46574   46573   46574   46574       0   46576   46577   46578
   46577   46578   46578       0   46580   46581   46582   46581   46582   46582
       0   46584   46585   46586   46585   46586   46586       0   46588   46589
   46590   46589   46590   46590       0   46592   46593   46594   46593   46594
   46594       0   46596   46597   46598   46597   46598   46598       0   46600
   46601   46602   46601   46602   46602       0   46604   46605   46606   46605
   46606   46606       0   46608   46609   46610   46609   46610   46610       0
   46612   46613   46614   46613   46614   46614       0   46616   46617   46618
   46617   46618   46618       0   46620   46621   46622   46621   46622   46622
       0   46624   46625   46626   46625   46626   46626       0   46628   46629
   46630   46629   46630   46630       0   46632   46633   46634   46633   46634
   46634       0   46636   46637   46638   46637   46638   46638       0   46640
   46641   46642   46641   46642   46642       0   46644   46645   46646   46645
   46646   46646       0   46648   46649   46650   46649   46650   46650       0
   46652   46653   46654   46653   46654   46654       0   46656   46657   46658
   46657   46658   46658       0   46660   46661   46662   46661   46662   46662
       0   46664   46665   46666   46665   46666   46666       0   46668   46669
   46670   46669   46670   46670       0   46672   46673   46674   46673   46674
   46674       0   46676   46677   46678   46677   46678   46678       0   46680
   46681   46682   46681   46682   46682       0   46684   46685   46686   46685
   46686   46686       0   46688   46689   46690   46689   46690   46690       0
   46692   46693   46694   46693   46694   46694       0   46696   46697   46698
   46697   46698   46698       0   46700   46701   46702   46701   46702   46702
       0   46704   46705   46706   46705   46706   46706       0   46708   46709
   46710   46709   46710   46710       0   46712   46713   46714   46713   46714
   46714       0   46716   46717   46718   46717   46718   46718       0   46720
   46721   46722   46721   46722   46722       0   46724   46725   46726   46725
   46726   46726       0   46728   46729   46730   46729   46730   46730       0
   46732   46733   46734   46733   46734   46734       0   46736   46737   46738
   46737   46738   46738       0   46740   46741   46742   46741   46742   46742
       0   46744   46745   46746   46745   46746   46746       0   46748   46749
   46750   46749   46750   46750       0   46752   46753   46754   46753   46754
   46754       0   46756   46757   46758   46757   46758   46758       0   46760
   46761   46762   46761   46762   46762       0   46764   46765   46766   46765
   46766   46766       0   46768   46769   46770   46769   46770   46770       0
   46772   46773   46774   46773   46774   46774       0   46776   46777   46778
   46777   46778   46778       0   46780   46781   46782   46781   46782   46782
       0   46784   46785   46786   46785   46786   46786       0   46788   46789
   46790   46789   46790   46790       0   46792   46793   46794   46793   46794
   46794       0   46796   46797   46798   46797   46798   46798       0   46800
   46801   46802   46801   46802   46802       0   46804   46805   46806   46805
   46806   46806       0   46808   46809   46810   46809   46810   46810       0
   46812   46813   46814   46813   46814   46814       0   46816   46817   46818
   46817   46818   46818       0   46820   46821   46822   46821   46822   46822
       0   46824   46825   46826   46825   46826   46826       0   46828   46829
   46830   46829   46830   46830       0   46832   46833   46834   46833   46834
   46834       0   46836   46837   46838   46837   46838   46838       0   46840
   46841   46842   46841   46842   46842       0   46844   46845   46846   46845
   46846   46846       0   46848   46849   46850   46849   46850   46850       0
   46852   46853   46854   46853   46854   46854       0   46856   46857   46858
   46857   46858   46858       0   46860   46861   46862   46861   46862   46862
       0   46864   46865   46866   46865   46866   46866       0   46868   46869
   46870   46869   46870   46870       0   46872   46873   46874   46873   46874
   46874       0   46876   46877   46878   46877   46878   46878       0   46880
   46881   46882   46881   46882   46882       0   46884   46885   46886   46885
   46886   46886       0   46888   46889   46890   46889   46890   46890       0
   46892   46893   46894   46893   46894   46894       0   46896   46897   46898
   46897   46898   46898       0   46900   46901   46902   46901   46902   46902
       0   46904   46905   46906   46905   46906   46906       0   46908   46909
   46910   46909   46910   46910       0   46912   46913   46914   46913   46914
   46914       0   46916   46917   46918   46917   46918   46918       0   46920
   46921   46922   46921   46922   46922       0   46924   46925   46926   46925
   46926   46926       0   46928   46929   46930   46929   46930   46930       0
   46932   46933   46934   46933   46934   46934       0   46936   46937   46938
   46937   46938   46938       0   46940   46941   46942   46941   46942   46942
       0   46944   46945   46946   46945   46946   46946       0   46948   46949
   46950   46949   46950   46950       0   46952   46953   46954   46953   46954
   46954       0   46956   46957   46958   46957   46958   46958       0   46960
   46961   46962   46961   46962   46962       0   46964   46965   46966   46965
   46966   46966       0   46968   46969   46970   46969   46970   46970       0
   46972   46973   46974   46973   46974   46974       0   46976   46977   46978
   46977   46978   46978       0   46980   46981   46982   46981   46982   46982
       0   46984   46985   46986   46985   46986   46986       0   46988   46989
   46990   46989   46990   46990       0   46992   46993   46994   46993   46994
   46994       0   46996   46997   46998   46997   46998   46998       0   47000
   47001   47002   47001   47002   47002       0   47004   47005   47006   47005
   47006   47006       0   47008   47009   47010   47009   47010   47010       0
   47012   47013   47014   47013   47014   47014       0   47016   47017   47018
   47017   47018   47018       0   47020   47021   47022   47021   47022   47022
       0   47024   47025   47026   47025   47026   47026       0   47028   47029
   47030   47029   47030   47030       0   47032   47033   47034   47033   47034
   47034       0   47036   47037   47038   47037   47038   47038       0   47040
   47041   47042   47041   47042   47042       0   47044   47045   47046   47045
   47046   47046       0   47048   47049   47050   47049   47050   47050       0
   47052   47053   47054   47053   47054   47054       0   47056   47057   47058
   47057   47058   47058       0   47060   47061   47062   47061   47062   47062
       0   47064   47065   47066   47065   47066   47066       0   47068   47069
   47070   47069   47070   47070       0   47072   47073   47074   47073   47074
   47074       0   47076   47077   47078   47077   47078   47078       0   47080
   47081   47082   47081   47082   47082       0   47084   47085   47086   47085
   47086   47086       0   47088   47089   47090   47089   47090   47090       0
   47092   47093   47094   47093   47094   47094       0   47096   47097   47098
   47097   47098   47098       0   47100   47101   47102   47101   47102   47102
       0   47104   47105   47106   47105   47106   47106       0   47108   47109
   47110   47109   47110   47110       0   47112   47113   47114   47113   47114
   47114       0   47116   47117   47118   47117   47118   47118       0   47120
   47121   47122   47121   47122   47122       0   47124   47125   47126   47125
   47126   47126       0   47128   47129   47130   47129   47130   47130       0
   47132   47133   47134   47133   47134   47134       0   47136   47137   47138
   47137   47138   47138       0   47140   47141   47142   47141   47142   47142
       0   47144   47145   47146   47145   47146   47146       0   47148   47149
   47150   47149   47150   47150       0   47152   47153   47154   47153   47154
   47154       0   47156   47157   47158   47157   47158   47158       0   47160
   47161   47162   47161   47162   47162       0   47164   47165   47166   47165
   47166   47166       0   47168   47169   47170   47169   47170   47170       0
   47172   47173   47174   47173   47174   47174       0   47176   47177   47178
   47177   47178   47178       0   47180   47181   47182   47181   47182   47182
       0   47184   47185   47186   47185   47186   47186       0   47188   47189
   47190   47189   47190   47190       0   47192   47193   47194   47193   47194
   47194       0   47196   47197   47198   47197   47198   47198       0   47200
   47201   47202   47201   47202   47202       0   47204   47205   47206   47205
   47206   47206       0   47208   47209   47210   47209   47210   47210       0
   47212   47213   47214   47213   47214   47214       0   47216   47217   47218
   47217   47218   47218       0   47220   47221   47222   47221   47222   47222
       0   47224   47225   47226   47225   47226   47226       0   47228   47229
   47230   47229   47230   47230       0   47232   47233   47234   47233   47234
   47234       0   47236   47237   47238   47237   47238   47238       0   47240
   47241   47242   47241   47242   47242       0   47244   47245   47246   47245
   47246   47246       0   47248   47249   47250   47249   47250   47250       0
   47252   47253   47254   47253   47254   47254       0   47256   47257   47258
   47257   47258   47258       0   47260   47261   47262   47261   47262   47262
       0   47264   47265   47266   47265   47266   47266       0   47268   47269
   47270   47269   47270   47270       0   47272   47273   47274   47273   47274
   47274       0   47276   47277   47278   47277   47278   47278       0   47280
   47281   47282   47281   47282   47282       0   47284   47285   47286   47285
   47286   47286       0   47288   47289   47290   47289   47290   47290       0
   47292   47293   47294   47293   47294   47294       0   47296   47297   47298
   47297   47298   47298       0   47300   47301   47302   47301   47302   47302
       0   47304   47305   47306   47305   47306   47306       0   47308   47309
   47310   47309   47310   47310       0   47312   47313   47314   47313   47314
   47314       0   47316   47317   47318   47317   47318   47318       0   47320
   47321   47322   47321   47322   47322       0   47324   47325   47326   47325
   47326   47326       0   47328   47329   47330   47329   47330   47330       0
   47332   47333   47334   47333   47334   47334       0   47336   47337   47338
   47337   47338   47338       0   47340   47341   47342   47341   47342   47342
       0   47344   47345   47346   47345   47346   47346       0   47348   47349
   47350   47349   47350   47350       0   47352   47353   47354   47353   47354
   47354       0   47356   47357   47358   47357   47358   47358       0   47360
   47361   47362   47361   47362   47362       0   47364   47365   47366   47365
   47366   47366       0   47368   47369   47370   47369   47370   47370       0
   47372   47373   47374   47373   47374   47374       0   47376   47377   47378
   47377   47378   47378       0   47380   47381   47382   47381   47382   47382
       0   47384   47385   47386   47385   47386   47386       0   47388   47389
   47390   47389   47390   47390       0   47392   47393   47394   47393   47394
   47394       0   47396   47397   47398   47397   47398   47398       0   47400
   47401   47402   47401   47402   47402       0   47404   47405   47406   47405
   47406   47406       0   47408   47409   47410   47409   47410   47410       0
   47412   47413   47414   47413   47414   47414       0   47416   47417   47418
   47417   47418   47418       0   47420   47421   47422   47421   47422   47422
       0   47424   47425   47426   47425   47426   47426       0   47428   47429
   47430   47429   47430   47430       0   47432   47433   47434   47433   47434
   47434       0   47436   47437   47438   47437   47438   47438       0   47440
   47441   47442   47441   47442   47442       0   47444   47445   47446   47445
   47446   47446       0   47448   47449   47450   47449   47450   47450       0
   47452   47453   47454   47453   47454   47454       0   47456   47457   47458
   47457   47458   47458       0   47460   47461   47462   47461   47462   47462
       0   47464   47465   47466   47465   47466   47466       0   47468   47469
   47470   47469   47470   47470       0   47472   47473   47474   47473   47474
   47474       0   47476   47477   47478   47477   47478   47478       0   47480
   47481   47482   47481   47482   47482       0   47484   47485   47486   47485
   47486   47486       0   47488   47489   47490   47489   47490   47490       0
   47492   47493   47494   47493   47494   47494       0   47496   47497   47498
   47497   47498   47498       0   47500   47501   47502   47501   47502   47502
       0   47504   47505   47506   47505   47506   47506       0   47508   47509
   47510   47509   47510   47510       0   47512   47513   47514   47513   47514
   47514       0   47516   47517   47518   47517   47518   47518       0   47520
   47521   47522   47521   47522   47522       0   47524   47525   47526   47525
   47526   47526       0   47528   47529   47530   47529   47530   47530       0
   47532   47533   47534   47533   47534   47534       0   47536   47537   47538
   47537   47538   47538       0   47540   47541   47542   47541   47542   47542
       0   47544   47545   47546   47545   47546   47546       0   47548   47549
   47550   47549   47550   47550       0   47552   47553   47554   47553   47554
   47554       0   47556   47557   47558   47557   47558   47558       0   47560
   47561   47562   47561   47562   47562       0   47564   47565   47566   47565
   47566   47566       0   47568   47569   47570   47569   47570   47570       0
   47572   47573   47574   47573   47574   47574       0   47576   47577   47578
   47577   47578   47578       0   47580   47581   47582   47581   47582   47582
       0   47584   47585   47586   47585   47586   47586       0   47588   47589
   47590   47589   47590   47590       0   47592   47593   47594   47593   47594
   47594       0   47596   47597   47598   47597   47598   47598       0   47600
   47601   47602   47601   47602   47602       0   47604   47605   47606   47605
   47606   47606       0   47608   47609   47610   47609   47610   47610       0
   47612   47613   47614   47613   47614   47614       0   47616   47617   47618
   47617   47618   47618       0   47620   47621   47622   47621   47622   47622
       0   47624   47625   47626   47625   47626   47626       0   47628   47629
   47630   47629   47630   47630       0   47632   47633   47634   47633   47634
   47634       0   47636   47637   47638   47637   47638   47638       0   47640
   47641   47642   47641   47642   47642       0   47644   47645   47646   47645
   47646   47646       0   47648   47649   47650   47649   47650   47650       0
   47652   47653   47654   47653   47654   47654       0   47656   47657   47658
   47657   47658   47658       0   47660   47661   47662   47661   47662   47662
       0   47664   47665   47666   47665   47666   47666       0   47668   47669
   47670   47669   47670   47670       0   47672   47673   47674   47673   47674
   47674       0   47676   47677   47678   47677   47678   47678       0   47680
   47681   47682   47681   47682   47682       0   47684   47685   47686   47685
   47686   47686       0   47688   47689   47690   47689   47690   47690       0
   47692   47693   47694   47693   47694   47694       0   47696   47697   47698
   47697   47698   47698       0   47700   47701   47702   47701   47702   47702
       0   47704   47705   47706   47705   47706   47706       0   47708   47709
   47710   47709   47710   47710       0   47712   47713   47714   47713   47714
   47714       0   47716   47717   47718   47717   47718   47718       0   47720
   47721   47722   47721   47722   47722       0   47724   47725   47726   47725
   47726   47726       0   47728   47729   47730   47729   47730   47730       0
   47732   47733   47734   47733   47734   47734       0   47736   47737   47738
   47737   47738   47738       0   47740   47741   47742   47741   47742   47742
       0   47744   47745   47746   47745   47746   47746       0   47748   47749
   47750   47749   47750   47750       0   47752   47753   47754   47753   47754
   47754       0   47756   47757   47758   47757   47758   47758       0   47760
   47761   47762   47761   47762   47762       0   47764   47765   47766   47765
   47766   47766       0   47768   47769   47770   47769   47770   47770       0
   47772   47773   47774   47773   47774   47774       0   47776   47777   47778
   47777   47778   47778       0   47780   47781   47782   47781   47782   47782
       0   47784   47785   47786   47785   47786   47786       0   47788   47789
   47790   47789   47790   47790       0   47792   47793   47794   47793   47794
   47794       0   47796   47797   47798   47797   47798   47798       0   47800
   47801   47802   47801   47802   47802       0   47804   47805   47806   47805
   47806   47806       0   47808   47809   47810   47809   47810   47810       0
   47812   47813   47814   47813   47814   47814       0   47816   47817   47818
   47817   47818   47818       0   47820   47821   47822   47821   47822   47822
       0   47824   47825   47826   47825   47826   47826       0   47828   47829
   47830   47829   47830   47830       0   47832   47833   47834   47833   47834
   47834       0   47836   47837   47838   47837   47838   47838       0   47840
   47841   47842   47841   47842   47842       0   47844   47845   47846   47845
   47846   47846       0   47848   47849   47850   47849   47850   47850       0
   47852   47853   47854   47853   47854   47854       0   47856   47857   47858
   47857   47858   47858       0   47860   47861   47862   47861   47862   47862
       0   47864   47865   47866   47865   47866   47866       0   47868   47869
   47870   47869   47870   47870       0   47872   47873   47874   47873   47874
   47874       0   47876   47877   47878   47877   47878   47878       0   47880
   47881   47882   47881   47882   47882       0   47884   47885   47886   47885
   47886   47886       0   47888   47889   47890   47889   47890   47890       0
   47892   47893   47894   47893   47894   47894       0   47896   47897   47898
   47897   47898   47898       0   47900   47901   47902   47901   47902   47902
       0   47904   47905   47906   47905   47906   47906       0   47908   47909
   47910   47909   47910   47910       0   47912   47913   47914   47913   47914
   47914       0   47916   47917   47918   47917   47918   47918       0   47920
   47921   47922   47921   47922   47922       0   47924   47925   47926   47925
   47926   47926       0   47928   47929   47930   47929   47930   47930       0
   47932   47933   47934   47933   47934   47934       0   47936   47937   47938
   47937   47938   47938       0   47940   47941   47942   47941   47942   47942
       0   47944   47945   47946   47945   47946   47946       0   47948   47949
   47950   47949   47950   47950       0   47952   47953   47954   47953   47954
   47954       0   47956   47957   47958   47957   47958   47958       0   47960
   47961   47962   47961   47962   47962       0   47964   47965   47966   47965
   47966   47966       0   47968   47969   47970   47969   47970   47970       0
   47972   47973   47974   47973   47974   47974       0   47976   47977   47978
   47977   47978   47978       0   47980   47981   47982   47981   47982   47982
       0   47984   47985   47986   47985   47986   47986       0   47988   47989
   47990   47989   47990   47990       0   47992   47993   47994   47993   47994
   47994       0   47996   47997   47998   47997   47998   47998       0   48000
   48001   48002   48001   48002   48002       0   48004   48005   48006   48005
   48006   48006       0   48008   48009   48010   48009   48010   48010       0
   48012   48013   48014   48013   48014   48014       0   48016   48017   48018
   48017   48018   48018       0   48020   48021   48022   48021   48022   48022
       0   48024   48025   48026   48025   48026   48026       0   48028   48029
   48030   48029   48030   48030       0   48032   48033   48034   48033   48034
   48034       0   48036   48037   48038   48037   48038   48038       0   48040
   48041   48042   48041   48042   48042       0   48044   48045   48046   48045
   48046   48046       0   48048   48049   48050   48049   48050   48050       0
   48052   48053   48054   48053   48054   48054       0   48056   48057   48058
   48057   48058   48058       0   48060   48061   48062   48061   48062   48062
       0   48064   48065   48066   48065   48066   48066       0   48068   48069
   48070   48069   48070   48070       0   48072   48073   48074   48073   48074
   48074       0   48076   48077   48078   48077   48078   48078       0   48080
   48081   48082   48081   48082   48082       0   48084   48085   48086   48085
   48086   48086       0   48088   48089   48090   48089   48090   48090       0
   48092   48093   48094   48093   48094   48094       0   48096   48097   48098
   48097   48098   48098       0   48100   48101   48102   48101   48102   48102
       0   48104   48105   48106   48105   48106   48106       0   48108   48109
   48110   48109   48110   48110       0   48112   48113   48114   48113   48114
   48114       0   48116   48117   48118   48117   48118   48118       0   48120
   48121   48122   48121   48122   48122       0   48124   48125   48126   48125
   48126   48126       0   48128   48129   48130   48129   48130   48130       0
   48132   48133   48134   48133   48134   48134       0   48136   48137   48138
   48137   48138   48138       0   48140   48141   48142   48141   48142   48142
       0   48144   48145   48146   48145   48146   48146       0   48148   48149
   48150   48149   48150   48150       0   48152   48153   48154   48153   48154
   48154       0   48156   48157   48158   48157   48158   48158       0   48160
   48161   48162   48161   48162   48162       0   48164   48165   48166   48165
   48166   48166       0   48168   48169   48170   48169   48170   48170       0
   48172   48173   48174   48173   48174   48174       0   48176   48177   48178
   48177   48178   48178       0   48180   48181   48182   48181   48182   48182
       0   48184   48185   48186   48185   48186   48186       0   48188   48189
   48190   48189   48190   48190       0   48192   48193   48194   48193   48194
   48194       0   48196   48197   48198   48197   48198   48198       0   48200
   48201   48202   48201   48202   48202       0   48204   48205   48206   48205
   48206   48206       0   48208   48209   48210   48209   48210   48210       0
   48212   48213   48214   48213   48214   48214       0   48216   48217   48218
   48217   48218   48218       0   48220   48221   48222   48221   48222   48222
       0   48224   48225   48226   48225   48226   48226       0   48228   48229
   48230   48229   48230   48230       0   48232   48233   48234   48233   48234
   48234       0   48236   48237   48238   48237   48238   48238       0   48240
   48241   48242   48241   48242   48242       0   48244   48245   48246   48245
   48246   48246       0   48248   48249   48250   48249   48250   48250       0
   48252   48253   48254   48253   48254   48254       0   48256   48257   48258
   48257   48258   48258       0   48260   48261   48262   48261   48262   48262
       0   48264   48265   48266   48265   48266   48266       0   48268   48269
   48270   48269   48270   48270       0   48272   48273   48274   48273   48274
   48274       0   48276   48277   48278   48277   48278   48278       0   48280
   48281   48282   48281   48282   48282       0   48284   48285   48286   48285
   48286   48286       0   48288   48289   48290   48289   48290   48290       0
   48292   48293   48294   48293   48294   48294       0   48296   48297   48298
   48297   48298   48298       0   48300   48301   48302   48301   48302   48302
       0   48304   48305   48306   48305   48306   48306       0   48308   48309
   48310   48309   48310   48310       0   48312   48313   48314   48313   48314
   48314       0   48316   48317   48318   48317   48318   48318       0   48320
   48321   48322   48321   48322   48322       0   48324   48325   48326   48325
   48326   48326       0   48328   48329   48330   48329   48330   48330       0
   48332   48333   48334   48333   48334   48334       0   48336   48337   48338
   48337   48338   48338       0   48340   48341   48342   48341   48342   48342
       0   48344   48345   48346   48345   48346   48346       0   48348   48349
   48350   48349   48350   48350       0   48352   48353   48354   48353   48354
   48354       0   48356   48357   48358   48357   48358   48358       0   48360
   48361   48362   48361   48362   48362       0   48364   48365   48366   48365
   48366   48366       0   48368   48369   48370   48369   48370   48370       0
   48372   48373   48374   48373   48374   48374       0   48376   48377   48378
   48377   48378   48378       0   48380   48381   48382   48381   48382   48382
       0   48384   48385   48386   48385   48386   48386       0   48388   48389
   48390   48389   48390   48390       0   48392   48393   48394   48393   48394
   48394       0   48396   48397   48398   48397   48398   48398       0   48400
   48401   48402   48401   48402   48402       0   48404   48405   48406   48405
   48406   48406       0   48408   48409   48410   48409   48410   48410       0
   48412   48413   48414   48413   48414   48414       0   48416   48417   48418
   48417   48418   48418       0   48420   48421   48422   48421   48422   48422
       0   48424   48425   48426   48425   48426   48426       0   48428   48429
   48430   48429   48430   48430       0   48432   48433   48434   48433   48434
   48434       0   48436   48437   48438   48437   48438   48438       0   48440
   48441   48442   48441   48442   48442       0   48444   48445   48446   48445
   48446   48446       0   48448   48449   48450   48449   48450   48450       0
   48452   48453   48454   48453   48454   48454       0   48456   48457   48458
   48457   48458   48458       0   48460   48461   48462   48461   48462   48462
       0   48464   48465   48466   48465   48466   48466       0   48468   48469
   48470   48469   48470   48470       0   48472   48473   48474   48473   48474
   48474       0   48476   48477   48478   48477   48478   48478       0   48480
   48481   48482   48481   48482   48482       0   48484   48485   48486   48485
   48486   48486       0   48488   48489   48490   48489   48490   48490       0
   48492   48493   48494   48493   48494   48494       0   48496   48497   48498
   48497   48498   48498       0   48500   48501   48502   48501   48502   48502
       0   48504   48505   48506   48505   48506   48506       0   48508   48509
   48510   48509   48510   48510       0   48512   48513   48514   48513   48514
   48514       0   48516   48517   48518   48517   48518   48518       0   48520
   48521   48522   48521   48522   48522       0   48524   48525   48526   48525
   48526   48526       0   48528   48529   48530   48529   48530   48530       0
   48532   48533   48534   48533   48534   48534       0   48536   48537   48538
   48537   48538   48538       0   48540   48541   48542   48541   48542   48542
       0   48544   48545   48546   48545   48546   48546       0   48548   48549
   48550   48549   48550   48550       0   48552   48553   48554   48553   48554
   48554       0   48556   48557   48558   48557   48558   48558       0   48560
   48561   48562   48561   48562   48562       0   48564   48565   48566   48565
   48566   48566       0   48568   48569   48570   48569   48570   48570       0
   48572   48573   48574   48573   48574   48574       0   48576   48577   48578
   48577   48578   48578       0   48580   48581   48582   48581   48582   48582
       0   48584   48585   48586   48585   48586   48586       0   48588   48589
   48590   48589   48590   48590       0   48592   48593   48594   48593   48594
   48594       0   48596   48597   48598   48597   48598   48598       0   48600
   48601   48602   48601   48602   48602       0   48604   48605   48606   48605
   48606   48606       0   48608   48609   48610   48609   48610   48610       0
   48612   48613   48614   48613   48614   48614       0   48616   48617   48618
   48617   48618   48618       0   48620   48621   48622   48621   48622   48622
       0   48624   48625   48626   48625   48626   48626       0   48628   48629
   48630   48629   48630   48630       0   48632   48633   48634   48633   48634
   48634       0   48636   48637   48638   48637   48638   48638       0   48640
   48641   48642   48641   48642   48642       0   48644   48645   48646   48645
   48646   48646       0   48648   48649   48650   48649   48650   48650       0
   48652   48653   48654   48653   48654   48654       0   48656   48657   48658
   48657   48658   48658       0   48660   48661   48662   48661   48662   48662
       0   48664   48665   48666   48665   48666   48666       0   48668   48669
   48670   48669   48670   48670       0   48672   48673   48674   48673   48674
   48674       0   48676   48677   48678   48677   48678   48678       0   48680
   48681   48682   48681   48682   48682       0   48684   48685   48686   48685
   48686   48686       0   48688   48689   48690   48689   48690   48690       0
   48692   48693   48694   48693   48694   48694       0   48696   48697   48698
   48697   48698   48698       0   48700   48701   48702   48701   48702   48702
       0   48704   48705   48706   48705   48706   48706       0   48708   48709
   48710   48709   48710   48710       0   48712   48713   48714   48713   48714
   48714       0   48716   48717   48718   48717   48718   48718       0   48720
   48721   48722   48721   48722   48722       0   48724   48725   48726   48725
   48726   48726       0   48728   48729   48730   48729   48730   48730       0
   48732   48733   48734   48733   48734   48734       0   48736   48737   48738
   48737   48738   48738       0   48740   48741   48742   48741   48742   48742
       0   48744   48745   48746   48745   48746   48746       0   48748   48749
   48750   48749   48750   48750       0   48752   48753   48754   48753   48754
   48754       0   48756   48757   48758   48757   48758   48758       0   48760
   48761   48762   48761   48762   48762       0   48764   48765   48766   48765
   48766   48766       0   48768   48769   48770   48769   48770   48770       0
   48772   48773   48774   48773   48774   48774       0   48776   48777   48778
   48777   48778   48778       0   48780   48781   48782   48781   48782   48782
       0   48784   48785   48786   48785   48786   48786       0   48788   48789
   48790   48789   48790   48790       0   48792   48793   48794   48793   48794
   48794       0   48796   48797   48798   48797   48798   48798       0   48800
   48801   48802   48801   48802   48802       0   48804   48805   48806   48805
   48806   48806       0   48808   48809   48810   48809   48810   48810       0
   48812   48813   48814   48813   48814   48814       0   48816   48817   48818
   48817   48818   48818       0   48820   48821   48822   48821   48822   48822
       0   48824   48825   48826   48825   48826   48826       0   48828   48829
   48830   48829   48830   48830       0   48832   48833   48834   48833   48834
   48834       0   48836   48837   48838   48837   48838   48838       0   48840
   48841   48842   48841   48842   48842       0   48844   48845   48846   48845
   48846   48846       0   48848   48849   48850   48849   48850   48850       0
   48852   48853   48854   48853   48854   48854       0   48856   48857   48858
   48857   48858   48858       0   48860   48861   48862   48861   48862   48862
       0   48864   48865   48866   48865   48866   48866       0   48868   48869
   48870   48869   48870   48870       0   48872   48873   48874   48873   48874
   48874       0   48876   48877   48878   48877   48878   48878       0   48880
   48881   48882   48881   48882   48882       0   48884   48885   48886   48885
   48886   48886       0   48888   48889   48890   48889   48890   48890       0
   48892   48893   48894   48893   48894   48894       0   48896   48897   48898
   48897   48898   48898       0   48900   48901   48902   48901   48902   48902
       0   48904   48905   48906   48905   48906   48906       0   48908   48909
   48910   48909   48910   48910       0   48912   48913   48914   48913   48914
   48914       0   48916   48917   48918   48917   48918   48918       0   48920
   48921   48922   48921   48922   48922       0   48924   48925   48926   48925
   48926   48926       0   48928   48929   48930   48929   48930   48930       0
   48932   48933   48934   48933   48934   48934       0   48936   48937   48938
   48937   48938   48938       0   48940   48941   48942   48941   48942   48942
       0   48944   48945   48946   48945   48946   48946       0   48948   48949
   48950   48949   48950   48950       0   48952   48953   48954   48953   48954
   48954       0   48956   48957   48958   48957   48958   48958       0   48960
   48961   48962   48961   48962   48962       0   48964   48965   48966   48965
   48966   48966       0   48968   48969   48970   48969   48970   48970       0
   48972   48973   48974   48973   48974   48974       0   48976   48977   48978
   48977   48978   48978       0   48980   48981   48982   48981   48982   48982
       0   48984   48985   48986   48985   48986   48986       0   48988   48989
   48990   48989   48990   48990       0   48992   48993   48994   48993   48994
   48994       0   48996   48997   48998   48997   48998   48998       0   49000
   49001   49002   49001   49002   49002       0   49004   49005   49006   49005
   49006   49006       0   49008   49009   49010   49009   49010   49010       0
   49012   49013   49014   49013   49014   49014       0   49016   49017   49018
   49017   49018   49018       0   49020   49021   49022   49021   49022   49022
       0   49024   49025   49026   49025   49026   49026       0   49028   49029
   49030   49029   49030   49030       0   49032   49033   49034   49033   49034
   49034       0   49036   49037   49038   49037   49038   49038       0   49040
   49041   49042   49041   49042   49042       0   49044   49045   49046   49045
   49046   49046       0   49048   49049   49050   49049   49050   49050       0
   49052   49053   49054   49053   49054   49054       0   49056   49057   49058
   49057   49058   49058       0   49060   49061   49062   49061   49062   49062
       0   49064   49065   49066   49065   49066   49066       0   49068   49069
   49070   49069   49070   49070       0   49072   49073   49074   49073   49074
   49074       0   49076   49077   49078   49077   49078   49078       0   49080
   49081   49082   49081   49082   49082       0   49084   49085   49086   49085
   49086   49086       0   49088   49089   49090   49089   49090   49090       0
   49092   49093   49094   49093   49094   49094       0   49096   49097   49098
   49097   49098   49098       0   49100   49101   49102   49101   49102   49102
       0   49104   49105   49106   49105   49106   49106       0   49108   49109
   49110   49109   49110   49110       0   49112   49113   49114   49113   49114
   49114       0   49116   49117   49118   49117   49118   49118       0   49120
   49121   49122   49121   49122   49122       0   49124   49125   49126   49125
   49126   49126       0   49128   49129   49130   49129   49130   49130       0
   49132   49133   49134   49133   49134   49134       0   49136   49137   49138
   49137   49138   49138       0   49140   49141   49142   49141   49142   49142
       0   49144   49145   49146   49145   49146   49146       0   49148   49149
   49150   49149   49150   49150       0   49152   49153   49154   49153   49154
   49154       0   49156   49157   49158   49157   49158   49158       0   49160
   49161   49162   49161   49162   49162       0   49164   49165   49166   49165
   49166   49166       0   49168   49169   49170   49169   49170   49170       0
   49172   49173   49174   49173   49174   49174       0   49176   49177   49178
   49177   49178   49178       0   49180   49181   49182   49181   49182   49182
       0   49184   49185   49186   49185   49186   49186       0   49188   49189
   49190   49189   49190   49190       0   49192   49193   49194   49193   49194
   49194       0   49196   49197   49198   49197   49198   49198       0   49200
   49201   49202   49201   49202   49202       0   49204   49205   49206   49205
   49206   49206       0   49208   49209   49210   49209   49210   49210       0
   49212   49213   49214   49213   49214   49214       0   49216   49217   49218
   49217   49218   49218       0   49220   49221   49222   49221   49222   49222
       0   49224   49225   49226   49225   49226   49226       0   49228   49229
   49230   49229   49230   49230       0   49232   49233   49234   49233   49234
   49234       0   49236   49237   49238   49237   49238   49238       0   49240
   49241   49242   49241   49242   49242       0   49244   49245   49246   49245
   49246   49246       0   49248   49249   49250   49249   49250   49250       0
   49252   49253   49254   49253   49254   49254       0   49256   49257   49258
   49257   49258   49258       0   49260   49261   49262   49261   49262   49262
       0   49264   49265   49266   49265   49266   49266       0   49268   49269
   49270   49269   49270   49270       0   49272   49273   49274   49273   49274
   49274       0   49276   49277   49278   49277   49278   49278       0   49280
   49281   49282   49281   49282   49282       0   49284   49285   49286   49285
   49286   49286       0   49288   49289   49290   49289   49290   49290       0
   49292   49293   49294   49293   49294   49294       0   49296   49297   49298
   49297   49298   49298       0   49300   49301   49302   49301   49302   49302
       0   49304   49305   49306   49305   49306   49306       0   49308   49309
   49310   49309   49310   49310       0   49312   49313   49314   49313   49314
   49314       0   49316   49317   49318   49317   49318   49318       0   49320
   49321   49322   49321   49322   49322       0   49324   49325   49326   49325
   49326   49326       0   49328   49329   49330   49329   49330   49330       0
   49332   49333   49334   49333   49334   49334       0   49336   49337   49338
   49337   49338   49338       0   49340   49341   49342   49341   49342   49342
       0   49344   49345   49346   49345   49346   49346       0   49348   49349
   49350   49349   49350   49350       0   49352   49353   49354   49353   49354
   49354       0   49356   49357   49358   49357   49358   49358       0   49360
   49361   49362   49361   49362   49362       0   49364   49365   49366   49365
   49366   49366       0   49368   49369   49370   49369   49370   49370       0
   49372   49373   49374   49373   49374   49374       0   49376   49377   49378
   49377   49378   49378       0   49380   49381   49382   49381   49382   49382
       0   49384   49385   49386   49385   49386   49386       0   49388   49389
   49390   49389   49390   49390       0   49392   49393   49394   49393   49394
   49394       0   49396   49397   49398   49397   49398   49398       0   49400
   49401   49402   49401   49402   49402       0   49404   49405   49406   49405
   49406   49406       0   49408   49409   49410   49409   49410   49410       0
   49412   49413   49414   49413   49414   49414       0   49416   49417   49418
   49417   49418   49418       0   49420   49421   49422   49421   49422   49422
       0   49424   49425   49426   49425   49426   49426       0   49428   49429
   49430   49429   49430   49430       0   49432   49433   49434   49433   49434
   49434       0   49436   49437   49438   49437   49438   49438       0   49440
   49441   49442   49441   49442   49442       0   49444   49445   49446   49445
   49446   49446       0   49448   49449   49450   49449   49450   49450       0
   49452   49453   49454   49453   49454   49454       0   49456   49457   49458
   49457   49458   49458       0   49460   49461   49462   49461   49462   49462
       0   49464   49465   49466   49465   49466   49466       0   49468   49469
   49470   49469   49470   49470       0   49472   49473   49474   49473   49474
   49474       0   49476   49477   49478   49477   49478   49478       0   49480
   49481   49482   49481   49482   49482       0   49484   49485   49486   49485
   49486   49486       0   49488   49489   49490   49489   49490   49490       0
   49492   49493   49494   49493   49494   49494       0   49496   49497   49498
   49497   49498   49498       0   49500   49501   49502   49501   49502   49502
       0   49504   49505   49506   49505   49506   49506       0   49508   49509
   49510   49509   49510   49510       0   49512   49513   49514   49513   49514
   49514       0   49516   49517   49518   49517   49518   49518       0   49520
   49521   49522   49521   49522   49522       0   49524   49525   49526   49525
   49526   49526       0   49528   49529   49530   49529   49530   49530       0
   49532   49533   49534   49533   49534   49534       0   49536   49537   49538
   49537   49538   49538       0   49540   49541   49542   49541   49542   49542
       0   49544   49545   49546   49545   49546   49546       0   49548   49549
   49550   49549   49550   49550       0   49552   49553   49554   49553   49554
   49554       0   49556   49557   49558   49557   49558   49558       0   49560
   49561   49562   49561   49562   49562       0   49564   49565   49566   49565
   49566   49566       0   49568   49569   49570   49569   49570   49570       0
   49572   49573   49574   49573   49574   49574       0   49576   49577   49578
   49577   49578   49578       0   49580   49581   49582   49581   49582   49582
       0   49584   49585   49586   49585   49586   49586       0   49588   49589
   49590   49589   49590   49590       0   49592   49593   49594   49593   49594
   49594       0   49596   49597   49598   49597   49598   49598       0   49600
   49601   49602   49601   49602   49602       0   49604   49605   49606   49605
   49606   49606       0   49608   49609   49610   49609   49610   49610       0
   49612   49613   49614   49613   49614   49614       0   49616   49617   49618
   49617   49618   49618       0   49620   49621   49622   49621   49622   49622
       0   49624   49625   49626   49625   49626   49626       0   49628   49629
   49630   49629   49630   49630       0   49632   49633   49634   49633   49634
   49634       0   49636   49637   49638   49637   49638   49638       0   49640
   49641   49642   49641   49642   49642       0   49644   49645   49646   49645
   49646   49646       0   49648   49649   49650   49649   49650   49650       0
   49652   49653   49654   49653   49654   49654       0   49656   49657   49658
   49657   49658   49658       0   49660   49661   49662   49661   49662   49662
       0   49664   49665   49666   49665   49666   49666       0   49668   49669
   49670   49669   49670   49670       0   49672   49673   49674   49673   49674
   49674       0   49676   49677   49678   49677   49678   49678       0   49680
   49681   49682   49681   49682   49682       0   49684   49685   49686   49685
   49686   49686       0   49688   49689   49690   49689   49690   49690       0
   49692   49693   49694   49693   49694   49694       0   49696   49697   49698
   49697   49698   49698       0   49700   49701   49702   49701   49702   49702
       0   49704   49705   49706   49705   49706   49706       0   49708   49709
   49710   49709   49710   49710       0   49712   49713   49714   49713   49714
   49714       0   49716   49717   49718   49717   49718   49718       0   49720
   49721   49722   49721   49722   49722       0   49724   49725   49726   49725
   49726   49726       0   49728   49729   49730   49729   49730   49730       0
   49732   49733   49734   49733   49734   49734       0   49736   49737   49738
   49737   49738   49738       0   49740   49741   49742   49741   49742   49742
       0   49744   49745   49746   49745   49746   49746       0   49748   49749
   49750   49749   49750   49750       0   49752   49753   49754   49753   49754
   49754       0   49756   49757   49758   49757   49758   49758       0   49760
   49761   49762   49761   49762   49762       0   49764   49765   49766   49765
   49766   49766       0   49768   49769   49770   49769   49770   49770       0
   49772   49773   49774   49773   49774   49774       0   49776   49777   49778
   49777   49778   49778       0   49780   49781   49782   49781   49782   49782
       0   49784   49785   49786   49785   49786   49786       0   49788   49789
   49790   49789   49790   49790       0   49792   49793   49794   49793   49794
   49794       0   49796   49797   49798   49797   49798   49798       0   49800
   49801   49802   49801   49802   49802       0   49804   49805   49806   49805
   49806   49806       0   49808   49809   49810   49809   49810   49810       0
   49812   49813   49814   49813   49814   49814       0   49816   49817   49818
   49817   49818   49818       0   49820   49821   49822   49821   49822   49822
       0   49824   49825   49826   49825   49826   49826       0   49828   49829
   49830   49829   49830   49830       0   49832   49833   49834   49833   49834
   49834       0   49836   49837   49838   49837   49838   49838       0   49840
   49841   49842   49841   49842   49842       0   49844   49845   49846   49845
   49846   49846       0   49848   49849   49850   49849   49850   49850       0
   49852   49853   49854   49853   49854   49854       0   49856   49857   49858
   49857   49858   49858       0   49860   49861   49862   49861   49862   49862
       0   49864   49865   49866   49865   49866   49866       0   49868   49869
   49870   49869   49870   49870       0   49872   49873   49874   49873   49874
   49874       0   49876   49877   49878   49877   49878   49878       0   49880
   49881   49882   49881   49882   49882       0   49884   49885   49886   49885
   49886   49886       0   49888   49889   49890   49889   49890   49890       0
   49892   49893   49894   49893   49894   49894       0   49896   49897   49898
   49897   49898   49898       0   49900   49901   49902   49901   49902   49902
       0   49904   49905   49906   49905   49906   49906       0   49908   49909
   49910   49909   49910   49910       0   49912   49913   49914   49913   49914
   49914       0   49916   49917   49918   49917   49918   49918       0   49920
   49921   49922   49921   49922   49922       0   49924   49925   49926   49925
   49926   49926       0   49928   49929   49930   49929   49930   49930       0
   49932   49933   49934   49933   49934   49934       0   49936   49937   49938
   49937   49938   49938       0   49940   49941   49942   49941   49942   49942
       0   49944   49945   49946   49945   49946   49946       0   49948   49949
   49950   49949   49950   49950       0   49952   49953   49954   49953   49954
   49954       0   49956   49957   49958   49957   49958   49958       0   49960
   49961   49962   49961   49962   49962       0   49964   49965   49966   49965
   49966   49966       0   49968   49969   49970   49969   49970   49970       0
   49972   49973   49974   49973   49974   49974       0   49976   49977   49978
   49977   49978   49978       0   49980   49981   49982   49981   49982   49982
       0   49984   49985   49986   49985   49986   49986       0   49988   49989
   49990   49989   49990   49990       0   49992   49993   49994   49993   49994
   49994       0   49996   49997   49998   49997   49998   49998       0   50000
   50001   50002   50001   50002   50002       0   50004   50005   50006   50005
   50006   50006       0   50008   50009   50010   50009   50010   50010       0
   50012   50013   50014   50013   50014   50014       0   50016   50017   50018
   50017   50018   50018       0   50020   50021   50022   50021   50022   50022
       0   50024   50025   50026   50025   50026   50026       0   50028   50029
   50030   50029   50030   50030       0   50032   50033   50034   50033   50034
   50034       0   50036   50037   50038   50037   50038   50038       0   50040
   50041   50042   50041   50042   50042       0   50044   50045   50046   50045
   50046   50046       0   50048   50049   50050   50049   50050   50050       0
   50052   50053   50054   50053   50054   50054       0   50056   50057   50058
   50057   50058   50058       0   50060   50061   50062   50061   50062   50062
       0   50064   50065   50066   50065   50066   50066       0   50068   50069
   50070   50069   50070   50070       0   50072   50073   50074   50073   50074
   50074       0   50076   50077   50078   50077   50078   50078       0   50080
   50081   50082   50081   50082   50082       0   50084   50085   50086   50085
   50086   50086       0   50088   50089   50090   50089   50090   50090       0
   50092   50093   50094   50093   50094   50094       0   50096   50097   50098
   50097   50098   50098       0   50100   50101   50102   50101   50102   50102
       0   50104   50105   50106   50105   50106   50106       0   50108   50109
   50110   50109   50110   50110       0   50112   50113   50114   50113   50114
   50114       0   50116   50117   50118   50117   50118   50118       0   50120
   50121   50122   50121   50122   50122       0   50124   50125   50126   50125
   50126   50126       0   50128   50129   50130   50129   50130   50130       0
   50132   50133   50134   50133   50134   50134       0   50136   50137   50138
   50137   50138   50138       0   50140   50141   50142   50141   50142   50142
       0   50144   50145   50146   50145   50146   50146       0   50148   50149
   50150   50149   50150   50150       0   50152   50153   50154   50153   50154
   50154       0   50156   50157   50158   50157   50158   50158       0   50160
   50161   50162   50161   50162   50162       0   50164   50165   50166   50165
   50166   50166       0   50168   50169   50170   50169   50170   50170       0
   50172   50173   50174   50173   50174   50174       0   50176   50177   50178
   50177   50178   50178       0   50180   50181   50182   50181   50182   50182
       0   50184   50185   50186   50185   50186   50186       0   50188   50189
   50190   50189   50190   50190       0   50192   50193   50194   50193   50194
   50194       0   50196   50197   50198   50197   50198   50198       0   50200
   50201   50202   50201   50202   50202       0   50204   50205   50206   50205
   50206   50206       0   50208   50209   50210   50209   50210   50210       0
   50212   50213   50214   50213   50214   50214       0   50216   50217   50218
   50217   50218   50218       0   50220   50221   50222   50221   50222   50222
       0   50224   50225   50226   50225   50226   50226       0   50228   50229
   50230   50229   50230   50230       0   50232   50233   50234   50233   50234
   50234       0   50236   50237   50238   50237   50238   50238       0   50240
   50241   50242   50241   50242   50242       0   50244   50245   50246   50245
   50246   50246       0   50248   50249   50250   50249   50250   50250       0
   50252   50253   50254   50253   50254   50254       0   50256   50257   50258
   50257   50258   50258       0   50260   50261   50262   50261   50262   50262
       0   50264   50265   50266   50265   50266   50266       0   50268   50269
   50270   50269   50270   50270       0   50272   50273   50274   50273   50274
   50274       0   50276   50277   50278   50277   50278   50278       0   50280
   50281   50282   50281   50282   50282       0   50284   50285   50286   50285
   50286   50286       0   50288   50289   50290   50289   50290   50290       0
   50292   50293   50294   50293   50294   50294       0   50296   50297   50298
   50297   50298   50298       0   50300   50301   50302   50301   50302   50302
       0   50304   50305   50306   50305   50306   50306       0   50308   50309
   50310   50309   50310   50310       0   50312   50313   50314   50313   50314
   50314       0   50316   50317   50318   50317   50318   50318       0   50320
   50321   50322   50321   50322   50322       0   50324   50325   50326   50325
   50326   50326       0   50328   50329   50330   50329   50330   50330       0
   50332   50333   50334   50333   50334   50334       0   50336   50337   50338
   50337   50338   50338       0   50340   50341   50342   50341   50342   50342
       0   50344   50345   50346   50345   50346   50346       0   50348   50349
   50350   50349   50350   50350       0   50352   50353   50354   50353   50354
   50354       0   50356   50357   50358   50357   50358   50358       0   50360
   50361   50362   50361   50362   50362       0   50364   50365   50366   50365
   50366   50366       0   50368   50369   50370   50369   50370   50370       0
   50372   50373   50374   50373   50374   50374       0   50376   50377   50378
   50377   50378   50378       0   50380   50381   50382   50381   50382   50382
       0   50384   50385   50386   50385   50386   50386       0   50388   50389
   50390   50389   50390   50390       0   50392   50393   50394   50393   50394
   50394       0   50396   50397   50398   50397   50398   50398       0   50400
   50401   50402   50401   50402   50402       0   50404   50405   50406   50405
   50406   50406       0   50408   50409   50410   50409   50410   50410       0
   50412   50413   50414   50413   50414   50414       0   50416   50417   50418
   50417   50418   50418       0   50420   50421   50422   50421   50422   50422
       0   50424   50425   50426   50425   50426   50426       0   50428   50429
   50430   50429   50430   50430       0   50432   50433   50434   50433   50434
   50434       0   50436   50437   50438   50437   50438   50438       0   50440
   50441   50442   50441   50442   50442       0   50444   50445   50446   50445
   50446   50446       0   50448   50449   50450   50449   50450   50450       0
   50452   50453   50454   50453   50454   50454       0   50456   50457   50458
   50457   50458   50458       0   50460   50461   50462   50461   50462   50462
       0   50464   50465   50466   50465   50466   50466       0   50468   50469
   50470   50469   50470   50470       0   50472   50473   50474   50473   50474
   50474       0   50476   50477   50478   50477   50478   50478       0   50480
   50481   50482   50481   50482   50482       0   50484   50485   50486   50485
   50486   50486       0   50488   50489   50490   50489   50490   50490       0
   50492   50493   50494   50493   50494   50494       0   50496   50497   50498
   50497   50498   50498       0   50500   50501   50502   50501   50502   50502
       0   50504   50505   50506   50505   50506   50506       0   50508   50509
   50510   50509   50510   50510       0   50512   50513   50514   50513   50514
   50514       0   50516   50517   50518   50517   50518   50518       0   50520
   50521   50522   50521   50522   50522       0   50524   50525   50526   50525
   50526   50526       0   50528   50529   50530   50529   50530   50530       0
   50532   50533   50534   50533   50534   50534       0   50536   50537   50538
   50537   50538   50538       0   50540   50541   50542   50541   50542   50542
       0   50544   50545   50546   50545   50546   50546       0   50548   50549
   50550   50549   50550   50550       0   50552   50553   50554   50553   50554
   50554       0   50556   50557   50558   50557   50558   50558       0   50560
   50561   50562   50561   50562   50562       0   50564   50565   50566   50565
   50566   50566       0   50568   50569   50570   50569   50570   50570       0
   50572   50573   50574   50573   50574   50574       0   50576   50577   50578
   50577   50578   50578       0   50580   50581   50582   50581   50582   50582
       0   50584   50585   50586   50585   50586   50586       0   50588   50589
   50590   50589   50590   50590       0   50592   50593   50594   50593   50594
   50594       0   50596   50597   50598   50597   50598   50598       0   50600
   50601   50602   50601   50602   50602       0   50604   50605   50606   50605
   50606   50606       0   50608   50609   50610   50609   50610   50610       0
   50612   50613   50614   50613   50614   50614       0   50616   50617   50618
   50617   50618   50618       0   50620   50621   50622   50621   50622   50622
       0   50624   50625   50626   50625   50626   50626       0   50628   50629
   50630   50629   50630   50630       0   50632   50633   50634   50633   50634
   50634       0   50636   50637   50638   50637   50638   50638       0   50640
   50641   50642   50641   50642   50642       0   50644   50645   50646   50645
   50646   50646       0   50648   50649   50650   50649   50650   50650       0
   50652   50653   50654   50653   50654   50654       0   50656   50657   50658
   50657   50658   50658       0   50660   50661   50662   50661   50662   50662
       0   50664   50665   50666   50665   50666   50666       0   50668   50669
   50670   50669   50670   50670       0   50672   50673   50674   50673   50674
   50674       0   50676   50677   50678   50677   50678   50678       0   50680
   50681   50682   50681   50682   50682       0   50684   50685   50686   50685
   50686   50686       0   50688   50689   50690   50689   50690   50690       0
   50692   50693   50694   50693   50694   50694       0   50696   50697   50698
   50697   50698   50698       0   50700   50701   50702   50701   50702   50702
       0   50704   50705   50706   50705   50706   50706       0   50708   50709
   50710   50709   50710   50710       0   50712   50713   50714   50713   50714
   50714       0   50716   50717   50718   50717   50718   50718       0   50720
   50721   50722   50721   50722   50722       0   50724   50725   50726   50725
   50726   50726       0   50728   50729   50730   50729   50730   50730       0
   50732   50733   50734   50733   50734   50734       0   50736   50737   50738
   50737   50738   50738       0   50740   50741   50742   50741   50742   50742
       0   50744   50745   50746   50745   50746   50746       0   50748   50749
   50750   50749   50750   50750       0   50752   50753   50754   50753   50754
   50754       0   50756   50757   50758   50757   50758   50758       0   50760
   50761   50762   50761   50762   50762       0   50764   50765   50766   50765
   50766   50766       0   50768   50769   50770   50769   50770   50770       0
   50772   50773   50774   50773   50774   50774       0   50776   50777   50778
   50777   50778   50778       0   50780   50781   50782   50781   50782   50782
       0   50784   50785   50786   50785   50786   50786       0   50788   50789
   50790   50789   50790   50790       0   50792   50793   50794   50793   50794
   50794       0   50796   50797   50798   50797   50798   50798       0   50800
   50801   50802   50801   50802   50802       0   50804   50805   50806   50805
   50806   50806       0   50808   50809   50810   50809   50810   50810       0
   50812   50813   50814   50813   50814   50814       0   50816   50817   50818
   50817   50818   50818       0   50820   50821   50822   50821   50822   50822
       0   50824   50825   50826   50825   50826   50826       0   50828   50829
   50830   50829   50830   50830       0   50832   50833   50834   50833   50834
   50834       0   50836   50837   50838   50837   50838   50838       0   50840
   50841   50842   50841   50842   50842       0   50844   50845   50846   50845
   50846   50846       0   50848   50849   50850   50849   50850   50850       0
   50852   50853   50854   50853   50854   50854       0   50856   50857   50858
   50857   50858   50858       0   50860   50861   50862   50861   50862   50862
       0   50864   50865   50866   50865   50866   50866       0   50868   50869
   50870   50869   50870   50870       0   50872   50873   50874   50873   50874
   50874       0   50876   50877   50878   50877   50878   50878       0   50880
   50881   50882   50881   50882   50882       0   50884   50885   50886   50885
   50886   50886       0   50888   50889   50890   50889   50890   50890       0
   50892   50893   50894   50893   50894   50894       0   50896   50897   50898
   50897   50898   50898       0   50900   50901   50902   50901   50902   50902
       0   50904   50905   50906   50905   50906   50906       0   50908   50909
   50910   50909   50910   50910       0   50912   50913   50914   50913   50914
   50914       0   50916   50917   50918   50917   50918   50918       0   50920
   50921   50922   50921   50922   50922       0   50924   50925   50926   50925
   50926   50926       0   50928   50929   50930   50929   50930   50930       0
   50932   50933   50934   50933   50934   50934       0   50936   50937   50938
   50937   50938   50938       0   50940   50941   50942   50941   50942   50942
       0   50944   50945   50946   50945   50946   50946       0   50948   50949
   50950   50949   50950   50950       0   50952   50953   50954   50953   50954
   50954       0   50956   50957   50958   50957   50958   50958       0   50960
   50961   50962   50961   50962   50962       0   50964   50965   50966   50965
   50966   50966       0   50968   50969   50970   50969   50970   50970       0
   50972   50973   50974   50973   50974   50974       0   50976   50977   50978
   50977   50978   50978       0   50980   50981   50982   50981   50982   50982
       0   50984   50985   50986   50985   50986   50986       0   50988   50989
   50990   50989   50990   50990       0   50992   50993   50994   50993   50994
   50994       0   50996   50997   50998   50997   50998   50998       0   51000
   51001   51002   51001   51002   51002       0   51004   51005   51006   51005
   51006   51006       0   51008   51009   51010   51009   51010   51010       0
   51012   51013   51014   51013   51014   51014       0   51016   51017   51018
   51017   51018   51018       0   51020   51021   51022   51021   51022   51022
       0   51024   51025   51026   51025   51026   51026       0   51028   51029
   51030   51029   51030   51030       0   51032   51033   51034   51033   51034
   51034       0   51036   51037   51038   51037   51038   51038       0   51040
   51041   51042   51041   51042   51042       0   51044   51045   51046   51045
   51046   51046       0   51048   51049   51050   51049   51050   51050       0
   51052   51053   51054   51053   51054   51054       0   51056   51057   51058
   51057   51058   51058       0   51060   51061   51062   51061   51062   51062
       0   51064   51065   51066   51065   51066   51066       0   51068   51069
   51070   51069   51070   51070       0   51072   51073   51074   51073   51074
   51074       0   51076   51077   51078   51077   51078   51078       0   51080
   51081   51082   51081   51082   51082       0   51084   51085   51086   51085
   51086   51086       0   51088   51089   51090   51089   51090   51090       0
   51092   51093   51094   51093   51094   51094       0   51096   51097   51098
   51097   51098   51098       0   51100   51101   51102   51101   51102   51102
       0   51104   51105   51106   51105   51106   51106       0   51108   51109
   51110   51109   51110   51110       0   51112   51113   51114   51113   51114
   51114       0   51116   51117   51118   51117   51118   51118       0   51120
   51121   51122   51121   51122   51122       0   51124   51125   51126   51125
   51126   51126       0   51128   51129   51130   51129   51130   51130       0
   51132   51133   51134   51133   51134   51134       0   51136   51137   51138
   51137   51138   51138       0   51140   51141   51142   51141   51142   51142
       0   51144   51145   51146   51145   51146   51146       0   51148   51149
   51150   51149   51150   51150       0   51152   51153   51154   51153   51154
   51154       0   51156   51157   51158   51157   51158   51158       0   51160
   51161   51162   51161   51162   51162       0   51164   51165   51166   51165
   51166   51166       0   51168   51169   51170   51169   51170   51170       0
   51172   51173   51174   51173   51174   51174       0   51176   51177   51178
   51177   51178   51178       0   51180   51181   51182   51181   51182   51182
       0   51184   51185   51186   51185   51186   51186       0   51188   51189
   51190   51189   51190   51190       0   51192   51193   51194   51193   51194
   51194       0   51196   51197   51198   51197   51198   51198       0   51200
   51201   51202   51201   51202   51202       0   51204   51205   51206   51205
   51206   51206       0   51208   51209   51210   51209   51210   51210       0
   51212   51213   51214   51213   51214   51214       0   51216   51217   51218
   51217   51218   51218       0   51220   51221   51222   51221   51222   51222
       0   51224   51225   51226   51225   51226   51226       0   51228   51229
   51230   51229   51230   51230       0   51232   51233   51234   51233   51234
   51234       0   51236   51237   51238   51237   51238   51238       0   51240
   51241   51242   51241   51242   51242       0   51244   51245   51246   51245
   51246   51246       0   51248   51249   51250   51249   51250   51250       0
   51252   51253   51254   51253   51254   51254       0   51256   51257   51258
   51257   51258   51258       0   51260   51261   51262   51261   51262   51262
       0   51264   51265   51266   51265   51266   51266       0   51268   51269
   51270   51269   51270   51270       0   51272   51273   51274   51273   51274
   51274       0   51276   51277   51278   51277   51278   51278       0   51280
   51281   51282   51281   51282   51282       0   51284   51285   51286   51285
   51286   51286       0   51288   51289   51290   51289   51290   51290       0
   51292   51293   51294   51293   51294   51294       0   51296   51297   51298
   51297   51298   51298       0   51300   51301   51302   51301   51302   51302
       0   51304   51305   51306   51305   51306   51306       0   51308   51309
   51310   51309   51310   51310       0   51312   51313   51314   51313   51314
   51314       0   51316   51317   51318   51317   51318   51318       0   51320
   51321   51322   51321   51322   51322       0   51324   51325   51326   51325
   51326   51326       0   51328   51329   51330   51329   51330   51330       0
   51332   51333   51334   51333   51334   51334       0   51336   51337   51338
   51337   51338   51338       0   51340   51341   51342   51341   51342   51342
       0   51344   51345   51346   51345   51346   51346       0   51348   51349
   51350   51349   51350   51350       0   51352   51353   51354   51353   51354
   51354       0   51356   51357   51358   51357   51358   51358       0   51360
   51361   51362   51361   51362   51362       0   51364   51365   51366   51365
   51366   51366       0   51368   51369   51370   51369   51370   51370       0
   51372   51373   51374   51373   51374   51374       0   51376   51377   51378
   51377   51378   51378       0   51380   51381   51382   51381   51382   51382
       0   51384   51385   51386   51385   51386   51386       0   51388   51389
   51390   51389   51390   51390       0   51392   51393   51394   51393   51394
   51394       0   51396   51397   51398   51397   51398   51398       0   51400
   51401   51402   51401   51402   51402       0   51404   51405   51406   51405
   51406   51406       0   51408   51409   51410   51409   51410   51410       0
   51412   51413   51414   51413   51414   51414       0   51416   51417   51418
   51417   51418   51418       0   51420   51421   51422   51421   51422   51422
       0   51424   51425   51426   51425   51426   51426       0   51428   51429
   51430   51429   51430   51430       0   51432   51433   51434   51433   51434
   51434       0   51436   51437   51438   51437   51438   51438       0   51440
   51441   51442   51441   51442   51442       0   51444   51445   51446   51445
   51446   51446       0   51448   51449   51450   51449   51450   51450       0
   51452   51453   51454   51453   51454   51454       0   51456   51457   51458
   51457   51458   51458       0   51460   51461   51462   51461   51462   51462
       0   51464   51465   51466   51465   51466   51466       0   51468   51469
   51470   51469   51470   51470       0   51472   51473   51474   51473   51474
   51474       0   51476   51477   51478   51477   51478   51478       0   51480
   51481   51482   51481   51482   51482       0   51484   51485   51486   51485
   51486   51486       0   51488   51489   51490   51489   51490   51490       0
   51492   51493   51494   51493   51494   51494       0   51496   51497   51498
   51497   51498   51498       0   51500   51501   51502   51501   51502   51502
       0   51504   51505   51506   51505   51506   51506       0   51508   51509
   51510   51509   51510   51510       0   51512   51513   51514   51513   51514
   51514       0   51516   51517   51518   51517   51518   51518       0   51520
   51521   51522   51521   51522   51522       0   51524   51525   51526   51525
   51526   51526       0   51528   51529   51530   51529   51530   51530       0
   51532   51533   51534   51533   51534   51534       0   51536   51537   51538
   51537   51538   51538       0   51540   51541   51542   51541   51542   51542
       0   51544   51545   51546   51545   51546   51546       0   51548   51549
   51550   51549   51550   51550       0   51552   51553   51554   51553   51554
   51554       0   51556   51557   51558   51557   51558   51558       0   51560
   51561   51562   51561   51562   51562       0   51564   51565   51566   51565
   51566   51566       0   51568   51569   51570   51569   51570   51570       0
   51572   51573   51574   51573   51574   51574       0   51576   51577   51578
   51577   51578   51578       0   51580   51581   51582   51581   51582   51582
       0   51584   51585   51586   51585   51586   51586       0   51588   51589
   51590   51589   51590   51590       0   51592   51593   51594   51593   51594
   51594       0   51596   51597   51598   51597   51598   51598       0   51600
   51601   51602   51601   51602   51602       0   51604   51605   51606   51605
   51606   51606       0   51608   51609   51610   51609   51610   51610       0
   51612   51613   51614   51613   51614   51614       0   51616   51617   51618
   51617   51618   51618       0   51620   51621   51622   51621   51622   51622
       0   51624   51625   51626   51625   51626   51626       0   51628   51629
   51630   51629   51630   51630       0   51632   51633   51634   51633   51634
   51634       0   51636   51637   51638   51637   51638   51638       0   51640
   51641   51642   51641   51642   51642       0   51644   51645   51646   51645
   51646   51646       0   51648   51649   51650   51649   51650   51650       0
   51652   51653   51654   51653   51654   51654       0   51656   51657   51658
   51657   51658   51658       0   51660   51661   51662   51661   51662   51662
       0   51664   51665   51666   51665   51666   51666       0   51668   51669
   51670   51669   51670   51670       0   51672   51673   51674   51673   51674
   51674       0   51676   51677   51678   51677   51678   51678       0   51680
   51681   51682   51681   51682   51682       0   51684   51685   51686   51685
   51686   51686       0   51688   51689   51690   51689   51690   51690       0
   51692   51693   51694   51693   51694   51694       0   51696   51697   51698
   51697   51698   51698       0   51700   51701   51702   51701   51702   51702
       0   51704   51705   51706   51705   51706   51706       0   51708   51709
   51710   51709   51710   51710       0   51712   51713   51714   51713   51714
   51714       0   51716   51717   51718   51717   51718   51718       0   51720
   51721   51722   51721   51722   51722       0   51724   51725   51726   51725
   51726   51726       0   51728   51729   51730   51729   51730   51730       0
   51732   51733   51734   51733   51734   51734       0   51736   51737   51738
   51737   51738   51738       0   51740   51741   51742   51741   51742   51742
       0   51744   51745   51746   51745   51746   51746       0   51748   51749
   51750   51749   51750   51750       0   51752   51753   51754   51753   51754
   51754       0   51756   51757   51758   51757   51758   51758       0   51760
   51761   51762   51761   51762   51762       0   51764   51765   51766   51765
   51766   51766       0   51768   51769   51770   51769   51770   51770       0
   51772   51773   51774   51773   51774   51774       0   51776   51777   51778
   51777   51778   51778       0   51780   51781   51782   51781   51782   51782
       0   51784   51785   51786   51785   51786   51786       0   51788   51789
   51790   51789   51790   51790       0   51792   51793   51794   51793   51794
   51794       0   51796   51797   51798   51797   51798   51798       0   51800
   51801   51802   51801   51802   51802       0   51804   51805   51806   51805
   51806   51806       0   51808   51809   51810   51809   51810   51810       0
   51812   51813   51814   51813   51814   51814       0   51816   51817   51818
   51817   51818   51818       0   51820   51821   51822   51821   51822   51822
       0   51824   51825   51826   51825   51826   51826       0   51828   51829
   51830   51829   51830   51830       0   51832   51833   51834   51833   51834
   51834       0   51836   51837   51838   51837   51838   51838       0   51840
   51841   51842   51841   51842   51842       0   51844   51845   51846   51845
   51846   51846       0   51848   51849   51850   51849   51850   51850       0
   51852   51853   51854   51853   51854   51854       0   51856   51857   51858
   51857   51858   51858       0   51860   51861   51862   51861   51862   51862
       0   51864   51865   51866   51865   51866   51866       0   51868   51869
   51870   51869   51870   51870       0   51872   51873   51874   51873   51874
   51874       0   51876   51877   51878   51877   51878   51878       0   51880
   51881   51882   51881   51882   51882       0   51884   51885   51886   51885
   51886   51886       0   51888   51889   51890   51889   51890   51890       0
   51892   51893   51894   51893   51894   51894       0   51896   51897   51898
   51897   51898   51898       0   51900   51901   51902   51901   51902   51902
       0   51904   51905   51906   51905   51906   51906       0   51908   51909
   51910   51909   51910   51910       0   51912   51913   51914   51913   51914
   51914       0   51916   51917   51918   51917   51918   51918       0   51920
   51921   51922   51921   51922   51922       0   51924   51925   51926   51925
   51926   51926       0   51928   51929   51930   51929   51930   51930       0
   51932   51933   51934   51933   51934   51934       0   51936   51937   51938
   51937   51938   51938       0   51940   51941   51942   51941   51942   51942
       0   51944   51945   51946   51945   51946   51946       0   51948   51949
   51950   51949   51950   51950       0   51952   51953   51954   51953   51954
   51954       0   51956   51957   51958   51957   51958   51958       0   51960
   51961   51962   51961   51962   51962       0   51964   51965   51966   51965
   51966   51966       0   51968   51969   51970   51969   51970   51970       0
   51972   51973   51974   51973   51974   51974       0   51976   51977   51978
   51977   51978   51978       0   51980   51981   51982   51981   51982   51982
       0   51984   51985   51986   51985   51986   51986       0   51988   51989
   51990   51989   51990   51990       0   51992   51993   51994   51993   51994
   51994       0   51996   51997   51998   51997   51998   51998       0   52000
   52001   52002   52001   52002   52002       0   52004   52005   52006   52005
   52006   52006       0   52008   52009   52010   52009   52010   52010       0
   52012   52013   52014   52013   52014   52014       0   52016   52017   52018
   52017   52018   52018       0   52020   52021   52022   52021   52022   52022
       0   52024   52025   52026   52025   52026   52026       0   52028   52029
   52030   52029   52030   52030       0   52032   52033   52034   52033   52034
   52034       0   52036   52037   52038   52037   52038   52038       0   52040
   52041   52042   52041   52042   52042       0   52044   52045   52046   52045
   52046   52046       0   52048   52049   52050   52049   52050   52050       0
   52052   52053   52054   52053   52054   52054       0   52056   52057   52058
   52057   52058   52058       0   52060   52061   52062   52061   52062   52062
       0   52064   52065   52066   52065   52066   52066       0   52068   52069
   52070   52069   52070   52070       0   52072   52073   52074   52073   52074
   52074       0   52076   52077   52078   52077   52078   52078       0   52080
   52081   52082   52081   52082   52082       0   52084   52085   52086   52085
   52086   52086       0   52088   52089   52090   52089   52090   52090       0
   52092   52093   52094   52093   52094   52094       0   52096   52097   52098
   52097   52098   52098       0   52100   52101   52102   52101   52102   52102
       0   52104   52105   52106   52105   52106   52106       0   52108   52109
   52110   52109   52110   52110       0   52112   52113   52114   52113   52114
   52114       0   52116   52117   52118   52117   52118   52118       0   52120
   52121   52122   52121   52122   52122       0   52124   52125   52126   52125
   52126   52126       0   52128   52129   52130   52129   52130   52130       0
   52132   52133   52134   52133   52134   52134       0   52136   52137   52138
   52137   52138   52138       0   52140   52141   52142   52141   52142   52142
       0   52144   52145   52146   52145   52146   52146       0   52148   52149
   52150   52149   52150   52150       0   52152   52153   52154   52153   52154
   52154       0   52156   52157   52158   52157   52158   52158       0   52160
   52161   52162   52161   52162   52162       0   52164   52165   52166   52165
   52166   52166       0   52168   52169   52170   52169   52170   52170       0
   52172   52173   52174   52173   52174   52174       0   52176   52177   52178
   52177   52178   52178       0   52180   52181   52182   52181   52182   52182
       0   52184   52185   52186   52185   52186   52186       0   52188   52189
   52190   52189   52190   52190       0   52192   52193   52194   52193   52194
   52194       0   52196   52197   52198   52197   52198   52198       0   52200
   52201   52202   52201   52202   52202       0   52204   52205   52206   52205
   52206   52206       0   52208   52209   52210   52209   52210   52210       0
   52212   52213   52214   52213   52214   52214       0   52216   52217   52218
   52217   52218   52218       0   52220   52221   52222   52221   52222   52222
       0   52224   52225   52226   52225   52226   52226       0   52228   52229
   52230   52229   52230   52230       0   52232   52233   52234   52233   52234
   52234       0   52236   52237   52238   52237   52238   52238       0   52240
   52241   52242   52241   52242   52242       0   52244   52245   52246   52245
   52246   52246       0   52248   52249   52250   52249   52250   52250       0
   52252   52253   52254   52253   52254   52254       0   52256   52257   52258
   52257   52258   52258       0   52260   52261   52262   52261   52262   52262
       0   52264   52265   52266   52265   52266   52266       0   52268   52269
   52270   52269   52270   52270       0   52272   52273   52274   52273   52274
   52274       0   52276   52277   52278   52277   52278   52278       0   52280
   52281   52282   52281   52282   52282       0   52284   52285   52286   52285
   52286   52286       0   52288   52289   52290   52289   52290   52290       0
   52292   52293   52294   52293   52294   52294       0   52296   52297   52298
   52297   52298   52298       0   52300   52301   52302   52301   52302   52302
       0   52304   52305   52306   52305   52306   52306       0   52308   52309
   52310   52309   52310   52310       0   52312   52313   52314   52313   52314
   52314       0   52316   52317   52318   52317   52318   52318       0   52320
   52321   52322   52321   52322   52322       0   52324   52325   52326   52325
   52326   52326       0   52328   52329   52330   52329   52330   52330       0
   52332   52333   52334   52333   52334   52334       0   52336   52337   52338
   52337   52338   52338       0   52340   52341   52342   52341   52342   52342
       0   52344   52345   52346   52345   52346   52346       0   52348   52349
   52350   52349   52350   52350       0   52352   52353   52354   52353   52354
   52354       0   52356   52357   52358   52357   52358   52358       0   52360
   52361   52362   52361   52362   52362       0   52364   52365   52366   52365
   52366   52366       0   52368   52369   52370   52369   52370   52370       0
   52372   52373   52374   52373   52374   52374       0   52376   52377   52378
   52377   52378   52378       0   52380   52381   52382   52381   52382   52382
       0   52384   52385   52386   52385   52386   52386       0   52388   52389
   52390   52389   52390   52390       0   52392   52393   52394   52393   52394
   52394       0   52396   52397   52398   52397   52398   52398       0   52400
   52401   52402   52401   52402   52402       0   52404   52405   52406   52405
   52406   52406       0   52408   52409   52410   52409   52410   52410       0
   52412   52413   52414   52413   52414   52414       0   52416   52417   52418
   52417   52418   52418       0   52420   52421   52422   52421   52422   52422
       0   52424   52425   52426   52425   52426   52426       0   52428   52429
   52430   52429   52430   52430       0   52432   52433   52434   52433   52434
   52434       0   52436   52437   52438   52437   52438   52438       0   52440
   52441   52442   52441   52442   52442       0   52444   52445   52446   52445
   52446   52446       0   52448   52449   52450   52449   52450   52450       0
   52452   52453   52454   52453   52454   52454       0   52456   52457   52458
   52457   52458   52458       0   52460   52461   52462   52461   52462   52462
       0   52464   52465   52466   52465   52466   52466       0   52468   52469
   52470   52469   52470   52470       0   52472   52473   52474   52473   52474
   52474       0   52476   52477   52478   52477   52478   52478       0   52480
   52481   52482   52481   52482   52482       0   52484   52485   52486   52485
   52486   52486       0   52488   52489   52490   52489   52490   52490       0
   52492   52493   52494   52493   52494   52494       0   52496   52497   52498
   52497   52498   52498       0   52500   52501   52502   52501   52502   52502
       0   52504   52505   52506   52505   52506   52506       0   52508   52509
   52510   52509   52510   52510       0   52512   52513   52514   52513   52514
   52514       0   52516   52517   52518   52517   52518   52518       0   52520
   52521   52522   52521   52522   52522       0   52524   52525   52526   52525
   52526   52526       0   52528   52529   52530   52529   52530   52530       0
   52532   52533   52534   52533   52534   52534       0   52536   52537   52538
   52537   52538   52538       0   52540   52541   52542   52541   52542   52542
       0   52544   52545   52546   52545   52546   52546       0   52548   52549
   52550   52549   52550   52550       0   52552   52553   52554   52553   52554
   52554       0   52556   52557   52558   52557   52558   52558       0   52560
   52561   52562   52561   52562   52562       0   52564   52565   52566   52565
   52566   52566       0   52568   52569   52570   52569   52570   52570       0
   52572   52573   52574   52573   52574   52574       0   52576   52577   52578
   52577   52578   52578       0   52580   52581   52582   52581   52582   52582
       0   52584   52585   52586   52585   52586   52586       0   52588   52589
   52590   52589   52590   52590       0   52592   52593   52594   52593   52594
   52594       0   52596   52597   52598   52597   52598   52598       0   52600
   52601   52602   52601   52602   52602       0   52604   52605   52606   52605
   52606   52606       0   52608   52609   52610   52609   52610   52610       0
   52612   52613   52614   52613   52614   52614       0   52616   52617   52618
   52617   52618   52618       0   52620   52621   52622   52621   52622   52622
       0   52624   52625   52626   52625   52626   52626       0   52628   52629
   52630   52629   52630   52630       0   52632   52633   52634   52633   52634
   52634       0   52636   52637   52638   52637   52638   52638       0   52640
   52641   52642   52641   52642   52642       0   52644   52645   52646   52645
   52646   52646       0   52648   52649   52650   52649   52650   52650       0
   52652   52653   52654   52653   52654   52654       0   52656   52657   52658
   52657   52658   52658       0   52660   52661   52662   52661   52662   52662
       0   52664   52665   52666   52665   52666   52666       0   52668   52669
   52670   52669   52670   52670       0   52672   52673   52674   52673   52674
   52674       0   52676   52677   52678   52677   52678   52678       0   52680
   52681   52682   52681   52682   52682       0   52684   52685   52686   52685
   52686   52686       0   52688   52689   52690   52689   52690   52690       0
   52692   52693   52694   52693   52694   52694       0   52696   52697   52698
   52697   52698   52698       0   52700   52701   52702   52701   52702   52702
       0   52704   52705   52706   52705   52706   52706       0   52708   52709
   52710   52709   52710   52710       0   52712   52713   52714   52713   52714
   52714       0   52716   52717   52718   52717   52718   52718       0   52720
   52721   52722   52721   52722   52722       0   52724   52725   52726   52725
   52726   52726       0   52728   52729   52730   52729   52730   52730       0
   52732   52733   52734   52733   52734   52734       0   52736   52737   52738
   52737   52738   52738       0   52740   52741   52742   52741   52742   52742
       0   52744   52745   52746   52745   52746   52746       0   52748   52749
   52750   52749   52750   52750       0   52752   52753   52754   52753   52754
   52754       0   52756   52757   52758   52757   52758   52758       0   52760
   52761   52762   52761   52762   52762       0   52764   52765   52766   52765
   52766   52766       0   52768   52769   52770   52769   52770   52770       0
   52772   52773   52774   52773   52774   52774       0   52776   52777   52778
   52777   52778   52778       0   52780   52781   52782   52781   52782   52782
       0   52784   52785   52786   52785   52786   52786       0   52788   52789
   52790   52789   52790   52790       0   52792   52793   52794   52793   52794
   52794       0   52796   52797   52798   52797   52798   52798       0   52800
   52801   52802   52801   52802   52802       0   52804   52805   52806   52805
   52806   52806       0   52808   52809   52810   52809   52810   52810       0
   52812   52813   52814   52813   52814   52814       0   52816   52817   52818
   52817   52818   52818       0   52820   52821   52822   52821   52822   52822
       0   52824   52825   52826   52825   52826   52826       0   52828   52829
   52830   52829   52830   52830       0   52832   52833   52834   52833   52834
   52834       0   52836   52837   52838   52837   52838   52838       0   52840
   52841   52842   52841   52842   52842       0   52844   52845   52846   52845
   52846   52846       0   52848   52849   52850   52849   52850   52850       0
   52852   52853   52854   52853   52854   52854       0   52856   52857   52858
   52857   52858   52858       0   52860   52861   52862   52861   52862   52862
       0   52864   52865   52866   52865   52866   52866       0
%FLAG HBOND_ACOEF                                                               
%FORMAT(5E16.8)                                                                 

%FLAG HBOND_BCOEF                                                               
%FORMAT(5E16.8)                                                                 

%FLAG HBCUT                                                                     
%FORMAT(5E16.8)                                                                 

%FLAG AMBER_ATOM_TYPE                                                           
%FORMAT(20a4)                                                                   
HO  OH  CI  H1  H1  CT  H1  OS  CT  H2  N*  CP  H5  NB  CB  C   O   NA  H   CA  
N2  H   H   NC  CB  CT  H1  CT  H1  OH  HO  OS  P   O2  O2  OS  CI  H1  H1  CT  
H1  OS  CT  H2  N*  CP  H5  NB  CB  C   O   NA  H   CA  N2  H   H   NC  CB  CT  
H1  CT  H1  OH  HO  OS  P   O2  O2  OS  CI  H1  H1  CT  H1  OS  CT  H2  N*  C5  
H5  NB  CB  CA  N2  H   H   NC  CQ  H5  NC  CB  CT  H1  CT  H1  OH  HO  OS  P   
O2  O2  OS  CI  H1  H1  CT  H1  OS  CT  H2  N*  CS  H4  CS  HA  C   O   NA  H   
C   O   CT  H1  CT  H1  OH  HO  OS  P   O2  O2  OS  CI  H1  H1  CT  H1  OS  CT  
H2  N*  C4  H4  C4  HA  CA  N2  H   H   NC  C   O   CT  H1  CT  H1  OH  HO  OS  
P   O2  O2  OS  CI  H1  H1  CT  H1  OS  CT  H2  N*  C5  H5  NB  CB  CA  N2  H   
H   NC  CQ  H5  NC  CB  CT  H1  CT  H1  OH  HO  OS  P   O2  O2  OS  CI  H1  H1  
CT  H1  OS  CT  H2  N*  CS  H4  CS  HA  C   O   NA  H   C   O   CT  H1  CT  H1  
OH  HO  OS  P   O2  O2  OS  CI  H1  H1  CT  H1  OS  CT  H2  N*  C5  H5  NB  CB  
CA  N2  H   H   NC  CQ  H5  NC  CB  CT  H1  CT  H1  OH  HO  OS  P   O2  O2  OS  
CI  H1  H1  CT  H1  OS  CT  H2  N*  CS  H4  CS  HA  C   O   NA  H   C   O   CT  
H1  CT  H1  OH  HO  OS  P   O2  O2  OS  CI  H1  H1  CT  H1  OS  CT  H2  N*  C5  
H5  NB  CB  CA  N2  H   H   NC  CQ  H5  NC  CB  CT  H1  CT  H1  OH  HO  OS  P   
O2  O2  OS  CI  H1  H1  CT  H1  OS  CT  H2  N*  C5  H5  NB  CB  CA  N2  H   H   
NC  CQ  H5  NC  CB  CT  H1  CT  H1  OH  HO  OS  P   O2  O2  OS  CI  H1  H1  CT  
H1  OS  CT  H2  N*  CS  H4  CS  HA  C   O   NA  H   C   O   CT  H1  CT  H1  OH  
HO  OS  P   O2  O2  OS  CI  H1  H1  CT  H1  OS  CT  H2  N*  C4  H4  C4  HA  CA  
N2  H   H   NC  C   O   CT  H1  CT  H1  OH  HO  OS  P   O2  O2  OS  CI  H1  H1  
CT  H1  OS  CT  H2  N*  CP  H5  NB  CB  C   O   NA  H   CA  N2  H   H   NC  CB  
CT  H1  CT  H1  OH  HO  OS  P   O2  O2  OS  CI  H1  H1  CT  H1  OS  CT  H2  N*  
C4  H4  C4  HA  CA  N2  H   H   NC  C   O   CT  H1  CT  H1  OH  HO  OS  P   O2  
O2  OS  CI  H1  H1  CT  H1  OS  CT  H2  N*  CP  H5  NB  CB  C   O   NA  H   CA  
N2  H   H   NC  CB  CT  H1  CT  H1  OH  HO  OS  P   O2  O2  OS  CI  H1  H1  CT  
H1  OS  CT  H2  N*  CS  H4  CS  HA  C   O   NA  H   C   O   CT  H1  CT  H1  OH  
HO  OS  P   O2  O2  OS  CI  H1  H1  CT  H1  OS  CT  H2  N*  CP  H5  NB  CB  C   
O   NA  H   CA  N2  H   H   NC  CB  CT  H1  CT  H1  OH  HO  OS  P   O2  O2  OS  
CI  H1  H1  CT  H1  OS  CT  H2  N*  CP  H5  NB  CB  C   O   NA  H   CA  N2  H   
H   NC  CB  CT  H1  CT  H1  OH  HO  OS  P   O2  O2  OS  CI  H1  H1  CT  H1  OS  
CT  H2  N*  C5  H5  NB  CB  CA  N2  H   H   NC  CQ  H5  NC  CB  CT  H1  CT  H1  
OH  HO  OS  P   O2  O2  OS  CI  H1  H1  CT  H1  OS  CT  H2  N*  CS  H4  CS  HA  
C   O   NA  H   C   O   CT  H1  CT  H1  OH  HO  OS  P   O2  O2  OS  CI  H1  H1  
CT  H1  OS  CT  H2  N*  C5  H5  NB  CB  CA  N2  H   H   NC  CQ  H5  NC  CB  CT  
H1  CT  H1  OH  HO  OS  P   O2  O2  OS  CI  H1  H1  CT  H1  OS  CT  H2  N*  CS  
H4  CS  HA  C   O   NA  H   C   O   CT  H1  CT  H1  OH  HO  OS  P   O2  O2  OS  
CI  H1  H1  CT  H1  OS  CT  H2  N*  CP  H5  NB  CB  C   O   NA  H   CA  N2  H   
H   NC  CB  CT  H1  CT  H1  OH  HO  OS  P   O2  O2  OS  CI  H1  H1  CT  H1  OS  
CT  H2  N*  CP  H5  NB  CB  C   O   NA  H   CA  N2  H   H   NC  CB  CT  H1  CT  
H1  OH  HO  OS  P   O2  O2  OS  CI  H1  H1  CT  H1  OS  CT  H2  N*  C4  H4  C4  
HA  CA  N2  H   H   NC  C   O   CT  H1  CT  H1  OH  HO  OS  P   O2  O2  OS  CI  
H1  H1  CT  H1  OS  CT  H2  N*  C5  H5  NB  CB  CA  N2  H   H   NC  CQ  H5  NC  
CB  CT  H1  CT  H1  OH  HO  OS  P   O2  O2  OS  CI  H1  H1  CT  H1  OS  CT  H2  
N*  C4  H4  C4  HA  CA  N2  H   H   NC  C   O   CT  H1  CT  H1  OH  HO  OS  P   
O2  O2  OS  CI  H1  H1  CT  H1  OS  CT  H2  N*  CP  H5  NB  CB  C   O   NA  H   
CA  N2  H   H   NC  CB  CT  H1  CT  H1  OH  HO  OS  P   O2  O2  OS  CI  H1  H1  
CT  H1  OS  CT  H2  N*  C4  H4  C4  HA  CA  N2  H   H   NC  C   O   CT  H1  CT  
H1  OH  HO  OS  P   O2  O2  OS  CI  H1  H1  CT  H1  OS  CT  H2  N*  C5  H5  NB  
CB  CA  N2  H   H   NC  CQ  H5  NC  CB  CT  H1  CT  H1  OH  HO  OS  P   O2  O2  
OS  CI  H1  H1  CT  H1  OS  CT  H2  N*  C5  H5  NB  CB  CA  N2  H   H   NC  CQ  
H5  NC  CB  CT  H1  CT  H1  OH  HO  OS  P   O2  O2  OS  CI  H1  H1  CT  H1  OS  
CT  H2  N*  CP  H5  NB  CB  C   O   NA  H   CA  N2  H   H   NC  CB  CT  H1  CT  
H1  OH  HO  OS  P   O2  O2  OS  CI  H1  H1  CT  H1  OS  CT  H2  N*  CS  H4  CS  
HA  C   O   NA  H   C   O   CT  H1  CT  H1  OH  HO  OS  P   O2  O2  OS  CI  H1  
H1  CT  H1  OS  CT  H2  N*  CS  H4  CS  HA  C   O   NA  H   C   O   CT  H1  CT  
H1  OH  HO  OS  P   O2  O2  OS  CI  H1  H1  CT  H1  OS  CT  H2  N*  CS  H4  CS  
HA  C   O   NA  H   C   O   CT  H1  CT  H1  OH  HO  OS  P   O2  O2  OS  CI  H1  
H1  CT  H1  OS  CT  H2  N*  C4  H4  C4  HA  CA  N2  H   H   NC  C   O   CT  H1  
CT  H1  OH  HO  OS  P   O2  O2  OS  CI  H1  H1  CT  H1  OS  CT  H2  N*  CS  H4  
CS  HA  C   O   NA  H   C   O   CT  H1  CT  H1  OH  HO  OS  P   O2  O2  OS  CI  
H1  H1  CT  H1  OS  CT  H2  N*  C5  H5  NB  CB  CA  N2  H   H   NC  CQ  H5  NC  
CB  CT  H1  CT  H1  OH  HO  OS  P   O2  O2  OS  CI  H1  H1  CT  H1  OS  CT  H2  
N*  C4  H4  C4  HA  CA  N2  H   H   NC  C   O   CT  H1  CT  H1  OH  HO  OS  P   
O2  O2  OS  CI  H1  H1  CT  H1  OS  CT  H2  N*  C4  H4  C4  HA  CA  N2  H   H   
NC  C   O   CT  H1  CT  H1  OH  HO  OS  P   O2  O2  OS  CI  H1  H1  CT  H1  OS  
CT  H2  N*  CP  H5  NB  CB  C   O   NA  H   CA  N2  H   H   NC  CB  CT  H1  CT  
H1  OH  HO  OS  P   O2  O2  OS  CI  H1  H1  CT  H1  OS  CT  H2  N*  CP  H5  NB  
CB  C   O   NA  H   CA  N2  H   H   NC  CB  CT  H1  CT  H1  OH  HO  OS  P   O2  
O2  OS  CI  H1  H1  CT  H1  OS  CT  H2  N*  CP  H5  NB  CB  C   O   NA  H   CA  
N2  H   H   NC  CB  CT  H1  CT  H1  OH  HO  OS  P   O2  O2  OS  CI  H1  H1  CT  
H1  OS  CT  H2  N*  C4  H4  C4  HA  CA  N2  H   H   NC  C   O   CT  H1  CT  H1  
OH  HO  OS  P   O2  O2  OS  CI  H1  H1  CT  H1  OS  CT  H2  N*  C5  H5  NB  CB  
CA  N2  H   H   NC  CQ  H5  NC  CB  CT  H1  CT  H1  OH  HO  OS  P   O2  O2  OS  
CI  H1  H1  CT  H1  OS  CT  H2  N*  C4  H4  C4  HA  CA  N2  H   H   NC  C   O   
CT  H1  CT  H1  OH  HO  OS  P   O2  O2  OS  CI  H1  H1  CT  H1  OS  CT  H2  N*  
C4  H4  C4  HA  CA  N2  H   H   NC  C   O   CT  H1  CT  H1  OH  HO  OS  P   O2  
O2  OS  CI  H1  H1  CT  H1  OS  CT  H2  N*  CP  H5  NB  CB  C   O   NA  H   CA  
N2  H   H   NC  CB  CT  H1  CT  H1  OH  HO  OS  P   O2  O2  OS  CI  H1  H1  CT  
H1  OS  CT  H2  N*  CS  H4  CS  HA  C   O   NA  H   C   O   CT  H1  CT  H1  OH  
HO  OS  P   O2  O2  OS  CI  H1  H1  CT  H1  OS  CT  H2  N*  C5  H5  NB  CB  CA  
N2  H   H   NC  CQ  H5  NC  CB  CT  H1  CT  H1  OH  HO  OS  P   O2  O2  OS  CI  
H1  H1  CT  H1  OS  CT  H2  N*  C5  H5  NB  CB  CA  N2  H   H   NC  CQ  H5  NC  
CB  CT  H1  CT  H1  OH  HO  OS  P   O2  O2  OS  CI  H1  H1  CT  H1  OS  CT  H2  
N*  C5  H5  NB  CB  CA  N2  H   H   NC  CQ  H5  NC  CB  CT  H1  CT  H1  OH  HO  
OS  P   O2  O2  OS  CI  H1  H1  CT  H1  OS  CT  H2  N*  CS  H4  CS  HA  C   O   
NA  H   C   O   CT  H1  CT  H1  OH  HO  OS  P   O2  O2  OS  CI  H1  H1  CT  H1  
OS  CT  H2  N*  CP  H5  NB  CB  C   O   NA  H   CA  N2  H   H   NC  CB  CT  H1  
CT  H1  OH  HO  OS  P   O2  O2  OS  CI  H1  H1  CT  H1  OS  CT  H2  N*  CS  H4  
CS  HA  C   O   NA  H   C   O   CT  H1  CT  H1  OH  HO  OS  P   O2  O2  OS  CI  
H1  H1  CT  H1  OS  CT  H2  N*  C4  H4  C4  HA  CA  N2  H   H   NC  C   O   CT  
H1  CT  H1  OH  HO  OS  P   O2  O2  OS  CI  H1  H1  CT  H1  OS  CT  H2  N*  C4  
H4  C4  HA  CA  N2  H   H   NC  C   O   CT  H1  CT  H1  OH  HO  OS  P   O2  O2  
OS  CI  H1  H1  CT  H1  OS  CT  H2  N*  CP  H5  NB  CB  C   O   NA  H   CA  N2  
H   H   NC  CB  CT  H1  CT  H1  OH  HO  OS  P   O2  O2  OS  CI  H1  H1  CT  H1  
OS  CT  H2  N*  C5  H5  NB  CB  CA  N2  H   H   NC  CQ  H5  NC  CB  CT  H1  CT  
H1  OH  HO  OS  P   O2  O2  OS  CI  H1  H1  CT  H1  OS  CT  H2  N*  C4  H4  C4  
HA  CA  N2  H   H   NC  C   O   CT  H1  CT  H1  OH  HO  OS  P   O2  O2  OS  CI  
H1  H1  CT  H1  OS  CT  H2  N*  CS  H4  CS  HA  C   O   NA  H   C   O   CT  H1  
CT  H1  OH  HO  OS  P   O2  O2  OS  CI  H1  H1  CT  H1  OS  CT  H2  N*  C5  H5  
NB  CB  CA  N2  H   H   NC  CQ  H5  NC  CB  CT  H1  CT  H1  OH  HO  OS  P   O2  
O2  OS  CI  H1  H1  CT  H1  OS  CT  H2  N*  CS  H4  CS  HA  C   O   NA  H   C   
O   CT  H1  CT  H1  OH  HO  OS  P   O2  O2  OS  CI  H1  H1  CT  H1  OS  CT  H2  
N*  CP  H5  NB  CB  C   O   NA  H   CA  N2  H   H   NC  CB  CT  H1  CT  H1  OH  
HO  OS  P   O2  O2  OS  CI  H1  H1  CT  H1  OS  CT  H2  N*  CP  H5  NB  CB  C   
O   NA  H   CA  N2  H   H   NC  CB  CT  H1  CT  H1  OH  HO  OS  P   O2  O2  OS  
CI  H1  H1  CT  H1  OS  CT  H2  N*  CS  H4  CS  HA  C   O   NA  H   C   O   CT  
H1  CT  H1  OH  HO  OS  P   O2  O2  OS  CI  H1  H1  CT  H1  OS  CT  H2  N*  C4  
H4  C4  HA  CA  N2  H   H   NC  C   O   CT  H1  CT  H1  OH  HO  OH  HO  Na+ Na+ 
Na+ Na+ Na+ Na+ Na+ Na+ Na+ Na+ Na+ Na+ Na+ Na+ Na+ Na+ Na+ Na+ Na+ Na+ Na+ Na+ 
Na+ Na+ Na+ Na+ Na+ Na+ Na+ Na+ Na+ Na+ Na+ Na+ Na+ Na+ Na+ Na+ Na+ Na+ Na+ Na+ 
Na+ Na+ Na+ Na+ Na+ Na+ Na+ Na+ Na+ Na+ Na+ Na+ Na+ Na+ Na+ Na+ Na+ Na+ Na+ Na+ 
Na+ Na+ Na+ Na+ Na+ Na+ Cl- Na+ Cl- Na+ Cl- Na+ Cl- Na+ Cl- Na+ Cl- Na+ Cl- Na+ 
Cl- Na+ Cl- Na+ Cl- Na+ Cl- Na+ Cl- Na+ Cl- Na+ Cl- Na+ Cl- Na+ Cl- Na+ Cl- Na+ 
Cl- Na+ Cl- Na+ Cl- Na+ Cl- Na+ Cl- Na+ Cl- Na+ Cl- Na+ Cl- Na+ Cl- Na+ Cl- Na+ 
Cl- Na+ Cl- Na+ Cl- Na+ Cl- Na+ Cl- o   c   ns  cc  c3  f   f   f   nd  cd  cc  
nc  cd  na  hn  h5  hn  OW  HW  HW  EP  OW  HW  HW  EP  OW  HW  HW  EP  OW  HW  
HW  EP  OW  HW  HW  EP  OW  HW  HW  EP  OW  HW  HW  EP  OW  HW  HW  EP  OW  HW  
HW  EP  OW  HW  HW  EP  OW  HW  HW  EP  OW  HW  HW  EP  OW  HW  HW  EP  OW  HW  
HW  EP  OW  HW  HW  EP  OW  HW  HW  EP  OW  HW  HW  EP  OW  HW  HW  EP  OW  HW  
HW  EP  OW  HW  HW  EP  OW  HW  HW  EP  OW  HW  HW  EP  OW  HW  HW  EP  OW  HW  
HW  EP  OW  HW  HW  EP  OW  HW  HW  EP  OW  HW  HW  EP  OW  HW  HW  EP  OW  HW  
HW  EP  OW  HW  HW  EP  OW  HW  HW  EP  OW  HW  HW  EP  OW  HW  HW  EP  OW  HW  
HW  EP  OW  HW  HW  EP  OW  HW  HW  EP  OW  HW  HW  EP  OW  HW  HW  EP  OW  HW  
HW  EP  OW  HW  HW  EP  OW  HW  HW  EP  OW  HW  HW  EP  OW  HW  HW  EP  OW  HW  
HW  EP  OW  HW  HW  EP  OW  HW  HW  EP  OW  HW  HW  EP  OW  HW  HW  EP  OW  HW  
HW  EP  OW  HW  HW  EP  OW  HW  HW  EP  OW  HW  HW  EP  OW  HW  HW  EP  OW  HW  
HW  EP  OW  HW  HW  EP  OW  HW  HW  EP  OW  HW  HW  EP  OW  HW  HW  EP  OW  HW  
HW  EP  OW  HW  HW  EP  OW  HW  HW  EP  OW  HW  HW  EP  OW  HW  HW  EP  OW  HW  
HW  EP  OW  HW  HW  EP  OW  HW  HW  EP  OW  HW  HW  EP  OW  HW  HW  EP  OW  HW  
HW  EP  OW  HW  HW  EP  OW  HW  HW  EP  OW  HW  HW  EP  OW  HW  HW  EP  OW  HW  
HW  EP  OW  HW  HW  EP  OW  HW  HW  EP  OW  HW  HW  EP  OW  HW  HW  EP  OW  HW  
HW  EP  OW  HW  HW  EP  OW  HW  HW  EP  OW  HW  HW  EP  OW  HW  HW  EP  OW  HW  
HW  EP  OW  HW  HW  EP  OW  HW  HW  EP  OW  HW  HW  EP  OW  HW  HW  EP  OW  HW  
HW  EP  OW  HW  HW  EP  OW  HW  HW  EP  OW  HW  HW  EP  OW  HW  HW  EP  OW  HW  
HW  EP  OW  HW  HW  EP  OW  HW  HW  EP  OW  HW  HW  EP  OW  HW  HW  EP  OW  HW  
HW  EP  OW  HW  HW  EP  OW  HW  HW  EP  OW  HW  HW  EP  OW  HW  HW  EP  OW  HW  
HW  EP  OW  HW  HW  EP  OW  HW  HW  EP  OW  HW  HW  EP  OW  HW  HW  EP  OW  HW  
HW  EP  OW  HW  HW  EP  OW  HW  HW  EP  OW  HW  HW  EP  OW  HW  HW  EP  OW  HW  
HW  EP  OW  HW  HW  EP  OW  HW  HW  EP  OW  HW  HW  EP  OW  HW  HW  EP  OW  HW  
HW  EP  OW  HW  HW  EP  OW  HW  HW  EP  OW  HW  HW  EP  OW  HW  HW  EP  OW  HW  
HW  EP  OW  HW  HW  EP  OW  HW  HW  EP  OW  HW  HW  EP  OW  HW  HW  EP  OW  HW  
HW  EP  OW  HW  HW  EP  OW  HW  HW  EP  OW  HW  HW  EP  OW  HW  HW  EP  OW  HW  
HW  EP  OW  HW  HW  EP  OW  HW  HW  EP  OW  HW  HW  EP  OW  HW  HW  EP  OW  HW  
HW  EP  OW  HW  HW  EP  OW  HW  HW  EP  OW  HW  HW  EP  OW  HW  HW  EP  OW  HW  
HW  EP  OW  HW  HW  EP  OW  HW  HW  EP  OW  HW  HW  EP  OW  HW  HW  EP  OW  HW  
HW  EP  OW  HW  HW  EP  OW  HW  HW  EP  OW  HW  HW  EP  OW  HW  HW  EP  OW  HW  
HW  EP  OW  HW  HW  EP  OW  HW  HW  EP  OW  HW  HW  EP  OW  HW  HW  EP  OW  HW  
HW  EP  OW  HW  HW  EP  OW  HW  HW  EP  OW  HW  HW  EP  OW  HW  HW  EP  OW  HW  
HW  EP  OW  HW  HW  EP  OW  HW  HW  EP  OW  HW  HW  EP  OW  HW  HW  EP  OW  HW  
HW  EP  OW  HW  HW  EP  OW  HW  HW  EP  OW  HW  HW  EP  OW  HW  HW  EP  OW  HW  
HW  EP  OW  HW  HW  EP  OW  HW  HW  EP  OW  HW  HW  EP  OW  HW  HW  EP  OW  HW  
HW  EP  OW  HW  HW  EP  OW  HW  HW  EP  OW  HW  HW  EP  OW  HW  HW  EP  OW  HW  
HW  EP  OW  HW  HW  EP  OW  HW  HW  EP  OW  HW  HW  EP  OW  HW  HW  EP  OW  HW  
HW  EP  OW  HW  HW  EP  OW  HW  HW  EP  OW  HW  HW  EP  OW  HW  HW  EP  OW  HW  
HW  EP  OW  HW  HW  EP  OW  HW  HW  EP  OW  HW  HW  EP  OW  HW  HW  EP  OW  HW  
HW  EP  OW  HW  HW  EP  OW  HW  HW  EP  OW  HW  HW  EP  OW  HW  HW  EP  OW  HW  
HW  EP  OW  HW  HW  EP  OW  HW  HW  EP  OW  HW  HW  EP  OW  HW  HW  EP  OW  HW  
HW  EP  OW  HW  HW  EP  OW  HW  HW  EP  OW  HW  HW  EP  OW  HW  HW  EP  OW  HW  
HW  EP  OW  HW  HW  EP  OW  HW  HW  EP  OW  HW  HW  EP  OW  HW  HW  EP  OW  HW  
HW  EP  OW  HW  HW  EP  OW  HW  HW  EP  OW  HW  HW  EP  OW  HW  HW  EP  OW  HW  
HW  EP  OW  HW  HW  EP  OW  HW  HW  EP  OW  HW  HW  EP  OW  HW  HW  EP  OW  HW  
HW  EP  OW  HW  HW  EP  OW  HW  HW  EP  OW  HW  HW  EP  OW  HW  HW  EP  OW  HW  
HW  EP  OW  HW  HW  EP  OW  HW  HW  EP  OW  HW  HW  EP  OW  HW  HW  EP  OW  HW  
HW  EP  OW  HW  HW  EP  OW  HW  HW  EP  OW  HW  HW  EP  OW  HW  HW  EP  OW  HW  
HW  EP  OW  HW  HW  EP  OW  HW  HW  EP  OW  HW  HW  EP  OW  HW  HW  EP  OW  HW  
HW  EP  OW  HW  HW  EP  OW  HW  HW  EP  OW  HW  HW  EP  OW  HW  HW  EP  OW  HW  
HW  EP  OW  HW  HW  EP  OW  HW  HW  EP  OW  HW  HW  EP  OW  HW  HW  EP  OW  HW  
HW  EP  OW  HW  HW  EP  OW  HW  HW  EP  OW  HW  HW  EP  OW  HW  HW  EP  OW  HW  
HW  EP  OW  HW  HW  EP  OW  HW  HW  EP  OW  HW  HW  EP  OW  HW  HW  EP  OW  HW  
HW  EP  OW  HW  HW  EP  OW  HW  HW  EP  OW  HW  HW  EP  OW  HW  HW  EP  OW  HW  
HW  EP  OW  HW  HW  EP  OW  HW  HW  EP  OW  HW  HW  EP  OW  HW  HW  EP  OW  HW  
HW  EP  OW  HW  HW  EP  OW  HW  HW  EP  OW  HW  HW  EP  OW  HW  HW  EP  OW  HW  
HW  EP  OW  HW  HW  EP  OW  HW  HW  EP  OW  HW  HW  EP  OW  HW  HW  EP  OW  HW  
HW  EP  OW  HW  HW  EP  OW  HW  HW  EP  OW  HW  HW  EP  OW  HW  HW  EP  OW  HW  
HW  EP  OW  HW  HW  EP  OW  HW  HW  EP  OW  HW  HW  EP  OW  HW  HW  EP  OW  HW  
HW  EP  OW  HW  HW  EP  OW  HW  HW  EP  OW  HW  HW  EP  OW  HW  HW  EP  OW  HW  
HW  EP  OW  HW  HW  EP  OW  HW  HW  EP  OW  HW  HW  EP  OW  HW  HW  EP  OW  HW  
HW  EP  OW  HW  HW  EP  OW  HW  HW  EP  OW  HW  HW  EP  OW  HW  HW  EP  OW  HW  
HW  EP  OW  HW  HW  EP  OW  HW  HW  EP  OW  HW  HW  EP  OW  HW  HW  EP  OW  HW  
HW  EP  OW  HW  HW  EP  OW  HW  HW  EP  OW  HW  HW  EP  OW  HW  HW  EP  OW  HW  
HW  EP  OW  HW  HW  EP  OW  HW  HW  EP  OW  HW  HW  EP  OW  HW  HW  EP  OW  HW  
HW  EP  OW  HW  HW  EP  OW  HW  HW  EP  OW  HW  HW  EP  OW  HW  HW  EP  OW  HW  
HW  EP  OW  HW  HW  EP  OW  HW  HW  EP  OW  HW  HW  EP  OW  HW  HW  EP  OW  HW  
HW  EP  OW  HW  HW  EP  OW  HW  HW  EP  OW  HW  HW  EP  OW  HW  HW  EP  OW  HW  
HW  EP  OW  HW  HW  EP  OW  HW  HW  EP  OW  HW  HW  EP  OW  HW  HW  EP  OW  HW  
HW  EP  OW  HW  HW  EP  OW  HW  HW  EP  OW  HW  HW  EP  OW  HW  HW  EP  OW  HW  
HW  EP  OW  HW  HW  EP  OW  HW  HW  EP  OW  HW  HW  EP  OW  HW  HW  EP  OW  HW  
HW  EP  OW  HW  HW  EP  OW  HW  HW  EP  OW  HW  HW  EP  OW  HW  HW  EP  OW  HW  
HW  EP  OW  HW  HW  EP  OW  HW  HW  EP  OW  HW  HW  EP  OW  HW  HW  EP  OW  HW  
HW  EP  OW  HW  HW  EP  OW  HW  HW  EP  OW  HW  HW  EP  OW  HW  HW  EP  OW  HW  
HW  EP  OW  HW  HW  EP  OW  HW  HW  EP  OW  HW  HW  EP  OW  HW  HW  EP  OW  HW  
HW  EP  OW  HW  HW  EP  OW  HW  HW  EP  OW  HW  HW  EP  OW  HW  HW  EP  OW  HW  
HW  EP  OW  HW  HW  EP  OW  HW  HW  EP  OW  HW  HW  EP  OW  HW  HW  EP  OW  HW  
HW  EP  OW  HW  HW  EP  OW  HW  HW  EP  OW  HW  HW  EP  OW  HW  HW  EP  OW  HW  
HW  EP  OW  HW  HW  EP  OW  HW  HW  EP  OW  HW  HW  EP  OW  HW  HW  EP  OW  HW  
HW  EP  OW  HW  HW  EP  OW  HW  HW  EP  OW  HW  HW  EP  OW  HW  HW  EP  OW  HW  
HW  EP  OW  HW  HW  EP  OW  HW  HW  EP  OW  HW  HW  EP  OW  HW  HW  EP  OW  HW  
HW  EP  OW  HW  HW  EP  OW  HW  HW  EP  OW  HW  HW  EP  OW  HW  HW  EP  OW  HW  
HW  EP  OW  HW  HW  EP  OW  HW  HW  EP  OW  HW  HW  EP  OW  HW  HW  EP  OW  HW  
HW  EP  OW  HW  HW  EP  OW  HW  HW  EP  OW  HW  HW  EP  OW  HW  HW  EP  OW  HW  
HW  EP  OW  HW  HW  EP  OW  HW  HW  EP  OW  HW  HW  EP  OW  HW  HW  EP  OW  HW  
HW  EP  OW  HW  HW  EP  OW  HW  HW  EP  OW  HW  HW  EP  OW  HW  HW  EP  OW  HW  
HW  EP  OW  HW  HW  EP  OW  HW  HW  EP  OW  HW  HW  EP  OW  HW  HW  EP  OW  HW  
HW  EP  OW  HW  HW  EP  OW  HW  HW  EP  OW  HW  HW  EP  OW  HW  HW  EP  OW  HW  
HW  EP  OW  HW  HW  EP  OW  HW  HW  EP  OW  HW  HW  EP  OW  HW  HW  EP  OW  HW  
HW  EP  OW  HW  HW  EP  OW  HW  HW  EP  OW  HW  HW  EP  OW  HW  HW  EP  OW  HW  
HW  EP  OW  HW  HW  EP  OW  HW  HW  EP  OW  HW  HW  EP  OW  HW  HW  EP  OW  HW  
HW  EP  OW  HW  HW  EP  OW  HW  HW  EP  OW  HW  HW  EP  OW  HW  HW  EP  OW  HW  
HW  EP  OW  HW  HW  EP  OW  HW  HW  EP  OW  HW  HW  EP  OW  HW  HW  EP  OW  HW  
HW  EP  OW  HW  HW  EP  OW  HW  HW  EP  OW  HW  HW  EP  OW  HW  HW  EP  OW  HW  
HW  EP  OW  HW  HW  EP  OW  HW  HW  EP  OW  HW  HW  EP  OW  HW  HW  EP  OW  HW  
HW  EP  OW  HW  HW  EP  OW  HW  HW  EP  OW  HW  HW  EP  OW  HW  HW  EP  OW  HW  
HW  EP  OW  HW  HW  EP  OW  HW  HW  EP  OW  HW  HW  EP  OW  HW  HW  EP  OW  HW  
HW  EP  OW  HW  HW  EP  OW  HW  HW  EP  OW  HW  HW  EP  OW  HW  HW  EP  OW  HW  
HW  EP  OW  HW  HW  EP  OW  HW  HW  EP  OW  HW  HW  EP  OW  HW  HW  EP  OW  HW  
HW  EP  OW  HW  HW  EP  OW  HW  HW  EP  OW  HW  HW  EP  OW  HW  HW  EP  OW  HW  
HW  EP  OW  HW  HW  EP  OW  HW  HW  EP  OW  HW  HW  EP  OW  HW  HW  EP  OW  HW  
HW  EP  OW  HW  HW  EP  OW  HW  HW  EP  OW  HW  HW  EP  OW  HW  HW  EP  OW  HW  
HW  EP  OW  HW  HW  EP  OW  HW  HW  EP  OW  HW  HW  EP  OW  HW  HW  EP  OW  HW  
HW  EP  OW  HW  HW  EP  OW  HW  HW  EP  OW  HW  HW  EP  OW  HW  HW  EP  OW  HW  
HW  EP  OW  HW  HW  EP  OW  HW  HW  EP  OW  HW  HW  EP  OW  HW  HW  EP  OW  HW  
HW  EP  OW  HW  HW  EP  OW  HW  HW  EP  OW  HW  HW  EP  OW  HW  HW  EP  OW  HW  
HW  EP  OW  HW  HW  EP  OW  HW  HW  EP  OW  HW  HW  EP  OW  HW  HW  EP  OW  HW  
HW  EP  OW  HW  HW  EP  OW  HW  HW  EP  OW  HW  HW  EP  OW  HW  HW  EP  OW  HW  
HW  EP  OW  HW  HW  EP  OW  HW  HW  EP  OW  HW  HW  EP  OW  HW  HW  EP  OW  HW  
HW  EP  OW  HW  HW  EP  OW  HW  HW  EP  OW  HW  HW  EP  OW  HW  HW  EP  OW  HW  
HW  EP  OW  HW  HW  EP  OW  HW  HW  EP  OW  HW  HW  EP  OW  HW  HW  EP  OW  HW  
HW  EP  OW  HW  HW  EP  OW  HW  HW  EP  OW  HW  HW  EP  OW  HW  HW  EP  OW  HW  
HW  EP  OW  HW  HW  EP  OW  HW  HW  EP  OW  HW  HW  EP  OW  HW  HW  EP  OW  HW  
HW  EP  OW  HW  HW  EP  OW  HW  HW  EP  OW  HW  HW  EP  OW  HW  HW  EP  OW  HW  
HW  EP  OW  HW  HW  EP  OW  HW  HW  EP  OW  HW  HW  EP  OW  HW  HW  EP  OW  HW  
HW  EP  OW  HW  HW  EP  OW  HW  HW  EP  OW  HW  HW  EP  OW  HW  HW  EP  OW  HW  
HW  EP  OW  HW  HW  EP  OW  HW  HW  EP  OW  HW  HW  EP  OW  HW  HW  EP  OW  HW  
HW  EP  OW  HW  HW  EP  OW  HW  HW  EP  OW  HW  HW  EP  OW  HW  HW  EP  OW  HW  
HW  EP  OW  HW  HW  EP  OW  HW  HW  EP  OW  HW  HW  EP  OW  HW  HW  EP  OW  HW  
HW  EP  OW  HW  HW  EP  OW  HW  HW  EP  OW  HW  HW  EP  OW  HW  HW  EP  OW  HW  
HW  EP  OW  HW  HW  EP  OW  HW  HW  EP  OW  HW  HW  EP  OW  HW  HW  EP  OW  HW  
HW  EP  OW  HW  HW  EP  OW  HW  HW  EP  OW  HW  HW  EP  OW  HW  HW  EP  OW  HW  
HW  EP  OW  HW  HW  EP  OW  HW  HW  EP  OW  HW  HW  EP  OW  HW  HW  EP  OW  HW  
HW  EP  OW  HW  HW  EP  OW  HW  HW  EP  OW  HW  HW  EP  OW  HW  HW  EP  OW  HW  
HW  EP  OW  HW  HW  EP  OW  HW  HW  EP  OW  HW  HW  EP  OW  HW  HW  EP  OW  HW  
HW  EP  OW  HW  HW  EP  OW  HW  HW  EP  OW  HW  HW  EP  OW  HW  HW  EP  OW  HW  
HW  EP  OW  HW  HW  EP  OW  HW  HW  EP  OW  HW  HW  EP  OW  HW  HW  EP  OW  HW  
HW  EP  OW  HW  HW  EP  OW  HW  HW  EP  OW  HW  HW  EP  OW  HW  HW  EP  OW  HW  
HW  EP  OW  HW  HW  EP  OW  HW  HW  EP  OW  HW  HW  EP  OW  HW  HW  EP  OW  HW  
HW  EP  OW  HW  HW  EP  OW  HW  HW  EP  OW  HW  HW  EP  OW  HW  HW  EP  OW  HW  
HW  EP  OW  HW  HW  EP  OW  HW  HW  EP  OW  HW  HW  EP  OW  HW  HW  EP  OW  HW  
HW  EP  OW  HW  HW  EP  OW  HW  HW  EP  OW  HW  HW  EP  OW  HW  HW  EP  OW  HW  
HW  EP  OW  HW  HW  EP  OW  HW  HW  EP  OW  HW  HW  EP  OW  HW  HW  EP  OW  HW  
HW  EP  OW  HW  HW  EP  OW  HW  HW  EP  OW  HW  HW  EP  OW  HW  HW  EP  OW  HW  
HW  EP  OW  HW  HW  EP  OW  HW  HW  EP  OW  HW  HW  EP  OW  HW  HW  EP  OW  HW  
HW  EP  OW  HW  HW  EP  OW  HW  HW  EP  OW  HW  HW  EP  OW  HW  HW  EP  OW  HW  
HW  EP  OW  HW  HW  EP  OW  HW  HW  EP  OW  HW  HW  EP  OW  HW  HW  EP  OW  HW  
HW  EP  OW  HW  HW  EP  OW  HW  HW  EP  OW  HW  HW  EP  OW  HW  HW  EP  OW  HW  
HW  EP  OW  HW  HW  EP  OW  HW  HW  EP  OW  HW  HW  EP  OW  HW  HW  EP  OW  HW  
HW  EP  OW  HW  HW  EP  OW  HW  HW  EP  OW  HW  HW  EP  OW  HW  HW  EP  OW  HW  
HW  EP  OW  HW  HW  EP  OW  HW  HW  EP  OW  HW  HW  EP  OW  HW  HW  EP  OW  HW  
HW  EP  OW  HW  HW  EP  OW  HW  HW  EP  OW  HW  HW  EP  OW  HW  HW  EP  OW  HW  
HW  EP  OW  HW  HW  EP  OW  HW  HW  EP  OW  HW  HW  EP  OW  HW  HW  EP  OW  HW  
HW  EP  OW  HW  HW  EP  OW  HW  HW  EP  OW  HW  HW  EP  OW  HW  HW  EP  OW  HW  
HW  EP  OW  HW  HW  EP  OW  HW  HW  EP  OW  HW  HW  EP  OW  HW  HW  EP  OW  HW  
HW  EP  OW  HW  HW  EP  OW  HW  HW  EP  OW  HW  HW  EP  OW  HW  HW  EP  OW  HW  
HW  EP  OW  HW  HW  EP  OW  HW  HW  EP  OW  HW  HW  EP  OW  HW  HW  EP  OW  HW  
HW  EP  OW  HW  HW  EP  OW  HW  HW  EP  OW  HW  HW  EP  OW  HW  HW  EP  OW  HW  
HW  EP  OW  HW  HW  EP  OW  HW  HW  EP  OW  HW  HW  EP  OW  HW  HW  EP  OW  HW  
HW  EP  OW  HW  HW  EP  OW  HW  HW  EP  OW  HW  HW  EP  OW  HW  HW  EP  OW  HW  
HW  EP  OW  HW  HW  EP  OW  HW  HW  EP  OW  HW  HW  EP  OW  HW  HW  EP  OW  HW  
HW  EP  OW  HW  HW  EP  OW  HW  HW  EP  OW  HW  HW  EP  OW  HW  HW  EP  OW  HW  
HW  EP  OW  HW  HW  EP  OW  HW  HW  EP  OW  HW  HW  EP  OW  HW  HW  EP  OW  HW  
HW  EP  OW  HW  HW  EP  OW  HW  HW  EP  OW  HW  HW  EP  OW  HW  HW  EP  OW  HW  
HW  EP  OW  HW  HW  EP  OW  HW  HW  EP  OW  HW  HW  EP  OW  HW  HW  EP  OW  HW  
HW  EP  OW  HW  HW  EP  OW  HW  HW  EP  OW  HW  HW  EP  OW  HW  HW  EP  OW  HW  
HW  EP  OW  HW  HW  EP  OW  HW  HW  EP  OW  HW  HW  EP  OW  HW  HW  EP  OW  HW  
HW  EP  OW  HW  HW  EP  OW  HW  HW  EP  OW  HW  HW  EP  OW  HW  HW  EP  OW  HW  
HW  EP  OW  HW  HW  EP  OW  HW  HW  EP  OW  HW  HW  EP  OW  HW  HW  EP  OW  HW  
HW  EP  OW  HW  HW  EP  OW  HW  HW  EP  OW  HW  HW  EP  OW  HW  HW  EP  OW  HW  
HW  EP  OW  HW  HW  EP  OW  HW  HW  EP  OW  HW  HW  EP  OW  HW  HW  EP  OW  HW  
HW  EP  OW  HW  HW  EP  OW  HW  HW  EP  OW  HW  HW  EP  OW  HW  HW  EP  OW  HW  
HW  EP  OW  HW  HW  EP  OW  HW  HW  EP  OW  HW  HW  EP  OW  HW  HW  EP  OW  HW  
HW  EP  OW  HW  HW  EP  OW  HW  HW  EP  OW  HW  HW  EP  OW  HW  HW  EP  OW  HW  
HW  EP  OW  HW  HW  EP  OW  HW  HW  EP  OW  HW  HW  EP  OW  HW  HW  EP  OW  HW  
HW  EP  OW  HW  HW  EP  OW  HW  HW  EP  OW  HW  HW  EP  OW  HW  HW  EP  OW  HW  
HW  EP  OW  HW  HW  EP  OW  HW  HW  EP  OW  HW  HW  EP  OW  HW  HW  EP  OW  HW  
HW  EP  OW  HW  HW  EP  OW  HW  HW  EP  OW  HW  HW  EP  OW  HW  HW  EP  OW  HW  
HW  EP  OW  HW  HW  EP  OW  HW  HW  EP  OW  HW  HW  EP  OW  HW  HW  EP  OW  HW  
HW  EP  OW  HW  HW  EP  OW  HW  HW  EP  OW  HW  HW  EP  OW  HW  HW  EP  OW  HW  
HW  EP  OW  HW  HW  EP  OW  HW  HW  EP  OW  HW  HW  EP  OW  HW  HW  EP  OW  HW  
HW  EP  OW  HW  HW  EP  OW  HW  HW  EP  OW  HW  HW  EP  OW  HW  HW  EP  OW  HW  
HW  EP  OW  HW  HW  EP  OW  HW  HW  EP  OW  HW  HW  EP  OW  HW  HW  EP  OW  HW  
HW  EP  OW  HW  HW  EP  OW  HW  HW  EP  OW  HW  HW  EP  OW  HW  HW  EP  OW  HW  
HW  EP  OW  HW  HW  EP  OW  HW  HW  EP  OW  HW  HW  EP  OW  HW  HW  EP  OW  HW  
HW  EP  OW  HW  HW  EP  OW  HW  HW  EP  OW  HW  HW  EP  OW  HW  HW  EP  OW  HW  
HW  EP  OW  HW  HW  EP  OW  HW  HW  EP  OW  HW  HW  EP  OW  HW  HW  EP  OW  HW  
HW  EP  OW  HW  HW  EP  OW  HW  HW  EP  OW  HW  HW  EP  OW  HW  HW  EP  OW  HW  
HW  EP  OW  HW  HW  EP  OW  HW  HW  EP  OW  HW  HW  EP  OW  HW  HW  EP  OW  HW  
HW  EP  OW  HW  HW  EP  OW  HW  HW  EP  OW  HW  HW  EP  OW  HW  HW  EP  OW  HW  
HW  EP  OW  HW  HW  EP  OW  HW  HW  EP  OW  HW  HW  EP  OW  HW  HW  EP  OW  HW  
HW  EP  OW  HW  HW  EP  OW  HW  HW  EP  OW  HW  HW  EP  OW  HW  HW  EP  OW  HW  
HW  EP  OW  HW  HW  EP  OW  HW  HW  EP  OW  HW  HW  EP  OW  HW  HW  EP  OW  HW  
HW  EP  OW  HW  HW  EP  OW  HW  HW  EP  OW  HW  HW  EP  OW  HW  HW  EP  OW  HW  
HW  EP  OW  HW  HW  EP  OW  HW  HW  EP  OW  HW  HW  EP  OW  HW  HW  EP  OW  HW  
HW  EP  OW  HW  HW  EP  OW  HW  HW  EP  OW  HW  HW  EP  OW  HW  HW  EP  OW  HW  
HW  EP  OW  HW  HW  EP  OW  HW  HW  EP  OW  HW  HW  EP  OW  HW  HW  EP  OW  HW  
HW  EP  OW  HW  HW  EP  OW  HW  HW  EP  OW  HW  HW  EP  OW  HW  HW  EP  OW  HW  
HW  EP  OW  HW  HW  EP  OW  HW  HW  EP  OW  HW  HW  EP  OW  HW  HW  EP  OW  HW  
HW  EP  OW  HW  HW  EP  OW  HW  HW  EP  OW  HW  HW  EP  OW  HW  HW  EP  OW  HW  
HW  EP  OW  HW  HW  EP  OW  HW  HW  EP  OW  HW  HW  EP  OW  HW  HW  EP  OW  HW  
HW  EP  OW  HW  HW  EP  OW  HW  HW  EP  OW  HW  HW  EP  OW  HW  HW  EP  OW  HW  
HW  EP  OW  HW  HW  EP  OW  HW  HW  EP  OW  HW  HW  EP  OW  HW  HW  EP  OW  HW  
HW  EP  OW  HW  HW  EP  OW  HW  HW  EP  OW  HW  HW  EP  OW  HW  HW  EP  OW  HW  
HW  EP  OW  HW  HW  EP  OW  HW  HW  EP  OW  HW  HW  EP  OW  HW  HW  EP  OW  HW  
HW  EP  OW  HW  HW  EP  OW  HW  HW  EP  OW  HW  HW  EP  OW  HW  HW  EP  OW  HW  
HW  EP  OW  HW  HW  EP  OW  HW  HW  EP  OW  HW  HW  EP  OW  HW  HW  EP  OW  HW  
HW  EP  OW  HW  HW  EP  OW  HW  HW  EP  OW  HW  HW  EP  OW  HW  HW  EP  OW  HW  
HW  EP  OW  HW  HW  EP  OW  HW  HW  EP  OW  HW  HW  EP  OW  HW  HW  EP  OW  HW  
HW  EP  OW  HW  HW  EP  OW  HW  HW  EP  OW  HW  HW  EP  OW  HW  HW  EP  OW  HW  
HW  EP  OW  HW  HW  EP  OW  HW  HW  EP  OW  HW  HW  EP  OW  HW  HW  EP  OW  HW  
HW  EP  OW  HW  HW  EP  OW  HW  HW  EP  OW  HW  HW  EP  OW  HW  HW  EP  OW  HW  
HW  EP  OW  HW  HW  EP  OW  HW  HW  EP  OW  HW  HW  EP  OW  HW  HW  EP  OW  HW  
HW  EP  OW  HW  HW  EP  OW  HW  HW  EP  OW  HW  HW  EP  OW  HW  HW  EP  OW  HW  
HW  EP  OW  HW  HW  EP  OW  HW  HW  EP  OW  HW  HW  EP  OW  HW  HW  EP  OW  HW  
HW  EP  OW  HW  HW  EP  OW  HW  HW  EP  OW  HW  HW  EP  OW  HW  HW  EP  OW  HW  
HW  EP  OW  HW  HW  EP  OW  HW  HW  EP  OW  HW  HW  EP  OW  HW  HW  EP  OW  HW  
HW  EP  OW  HW  HW  EP  OW  HW  HW  EP  OW  HW  HW  EP  OW  HW  HW  EP  OW  HW  
HW  EP  OW  HW  HW  EP  OW  HW  HW  EP  OW  HW  HW  EP  OW  HW  HW  EP  OW  HW  
HW  EP  OW  HW  HW  EP  OW  HW  HW  EP  OW  HW  HW  EP  OW  HW  HW  EP  OW  HW  
HW  EP  OW  HW  HW  EP  OW  HW  HW  EP  OW  HW  HW  EP  OW  HW  HW  EP  OW  HW  
HW  EP  OW  HW  HW  EP  OW  HW  HW  EP  OW  HW  HW  EP  OW  HW  HW  EP  OW  HW  
HW  EP  OW  HW  HW  EP  OW  HW  HW  EP  OW  HW  HW  EP  OW  HW  HW  EP  OW  HW  
HW  EP  OW  HW  HW  EP  OW  HW  HW  EP  OW  HW  HW  EP  OW  HW  HW  EP  OW  HW  
HW  EP  OW  HW  HW  EP  OW  HW  HW  EP  OW  HW  HW  EP  OW  HW  HW  EP  OW  HW  
HW  EP  OW  HW  HW  EP  OW  HW  HW  EP  OW  HW  HW  EP  OW  HW  HW  EP  OW  HW  
HW  EP  OW  HW  HW  EP  OW  HW  HW  EP  OW  HW  HW  EP  OW  HW  HW  EP  OW  HW  
HW  EP  OW  HW  HW  EP  OW  HW  HW  EP  OW  HW  HW  EP  OW  HW  HW  EP  OW  HW  
HW  EP  OW  HW  HW  EP  OW  HW  HW  EP  OW  HW  HW  EP  OW  HW  HW  EP  OW  HW  
HW  EP  OW  HW  HW  EP  OW  HW  HW  EP  OW  HW  HW  EP  OW  HW  HW  EP  OW  HW  
HW  EP  OW  HW  HW  EP  OW  HW  HW  EP  OW  HW  HW  EP  OW  HW  HW  EP  OW  HW  
HW  EP  OW  HW  HW  EP  OW  HW  HW  EP  OW  HW  HW  EP  OW  HW  HW  EP  OW  HW  
HW  EP  OW  HW  HW  EP  OW  HW  HW  EP  OW  HW  HW  EP  OW  HW  HW  EP  OW  HW  
HW  EP  OW  HW  HW  EP  OW  HW  HW  EP  OW  HW  HW  EP  OW  HW  HW  EP  OW  HW  
HW  EP  OW  HW  HW  EP  OW  HW  HW  EP  OW  HW  HW  EP  OW  HW  HW  EP  OW  HW  
HW  EP  OW  HW  HW  EP  OW  HW  HW  EP  OW  HW  HW  EP  OW  HW  HW  EP  OW  HW  
HW  EP  OW  HW  HW  EP  OW  HW  HW  EP  OW  HW  HW  EP  OW  HW  HW  EP  OW  HW  
HW  EP  OW  HW  HW  EP  OW  HW  HW  EP  OW  HW  HW  EP  OW  HW  HW  EP  OW  HW  
HW  EP  OW  HW  HW  EP  OW  HW  HW  EP  OW  HW  HW  EP  OW  HW  HW  EP  OW  HW  
HW  EP  OW  HW  HW  EP  OW  HW  HW  EP  OW  HW  HW  EP  OW  HW  HW  EP  OW  HW  
HW  EP  OW  HW  HW  EP  OW  HW  HW  EP  OW  HW  HW  EP  OW  HW  HW  EP  OW  HW  
HW  EP  OW  HW  HW  EP  OW  HW  HW  EP  OW  HW  HW  EP  OW  HW  HW  EP  OW  HW  
HW  EP  OW  HW  HW  EP  OW  HW  HW  EP  OW  HW  HW  EP  OW  HW  HW  EP  OW  HW  
HW  EP  OW  HW  HW  EP  OW  HW  HW  EP  OW  HW  HW  EP  OW  HW  HW  EP  OW  HW  
HW  EP  OW  HW  HW  EP  OW  HW  HW  EP  OW  HW  HW  EP  OW  HW  HW  EP  OW  HW  
HW  EP  OW  HW  HW  EP  OW  HW  HW  EP  OW  HW  HW  EP  OW  HW  HW  EP  OW  HW  
HW  EP  OW  HW  HW  EP  OW  HW  HW  EP  OW  HW  HW  EP  OW  HW  HW  EP  OW  HW  
HW  EP  OW  HW  HW  EP  OW  HW  HW  EP  OW  HW  HW  EP  OW  HW  HW  EP  OW  HW  
HW  EP  OW  HW  HW  EP  OW  HW  HW  EP  OW  HW  HW  EP  OW  HW  HW  EP  OW  HW  
HW  EP  OW  HW  HW  EP  OW  HW  HW  EP  OW  HW  HW  EP  OW  HW  HW  EP  OW  HW  
HW  EP  OW  HW  HW  EP  OW  HW  HW  EP  OW  HW  HW  EP  OW  HW  HW  EP  OW  HW  
HW  EP  OW  HW  HW  EP  OW  HW  HW  EP  OW  HW  HW  EP  OW  HW  HW  EP  OW  HW  
HW  EP  OW  HW  HW  EP  OW  HW  HW  EP  OW  HW  HW  EP  OW  HW  HW  EP  OW  HW  
HW  EP  OW  HW  HW  EP  OW  HW  HW  EP  OW  HW  HW  EP  OW  HW  HW  EP  OW  HW  
HW  EP  OW  HW  HW  EP  OW  HW  HW  EP  OW  HW  HW  EP  OW  HW  HW  EP  OW  HW  
HW  EP  OW  HW  HW  EP  OW  HW  HW  EP  OW  HW  HW  EP  OW  HW  HW  EP  OW  HW  
HW  EP  OW  HW  HW  EP  OW  HW  HW  EP  OW  HW  HW  EP  OW  HW  HW  EP  OW  HW  
HW  EP  OW  HW  HW  EP  OW  HW  HW  EP  OW  HW  HW  EP  OW  HW  HW  EP  OW  HW  
HW  EP  OW  HW  HW  EP  OW  HW  HW  EP  OW  HW  HW  EP  OW  HW  HW  EP  OW  HW  
HW  EP  OW  HW  HW  EP  OW  HW  HW  EP  OW  HW  HW  EP  OW  HW  HW  EP  OW  HW  
HW  EP  OW  HW  HW  EP  OW  HW  HW  EP  OW  HW  HW  EP  OW  HW  HW  EP  OW  HW  
HW  EP  OW  HW  HW  EP  OW  HW  HW  EP  OW  HW  HW  EP  OW  HW  HW  EP  OW  HW  
HW  EP  OW  HW  HW  EP  OW  HW  HW  EP  OW  HW  HW  EP  OW  HW  HW  EP  OW  HW  
HW  EP  OW  HW  HW  EP  OW  HW  HW  EP  OW  HW  HW  EP  OW  HW  HW  EP  OW  HW  
HW  EP  OW  HW  HW  EP  OW  HW  HW  EP  OW  HW  HW  EP  OW  HW  HW  EP  OW  HW  
HW  EP  OW  HW  HW  EP  OW  HW  HW  EP  OW  HW  HW  EP  OW  HW  HW  EP  OW  HW  
HW  EP  OW  HW  HW  EP  OW  HW  HW  EP  OW  HW  HW  EP  OW  HW  HW  EP  OW  HW  
HW  EP  OW  HW  HW  EP  OW  HW  HW  EP  OW  HW  HW  EP  OW  HW  HW  EP  OW  HW  
HW  EP  OW  HW  HW  EP  OW  HW  HW  EP  OW  HW  HW  EP  OW  HW  HW  EP  OW  HW  
HW  EP  OW  HW  HW  EP  OW  HW  HW  EP  OW  HW  HW  EP  OW  HW  HW  EP  OW  HW  
HW  EP  OW  HW  HW  EP  OW  HW  HW  EP  OW  HW  HW  EP  OW  HW  HW  EP  OW  HW  
HW  EP  OW  HW  HW  EP  OW  HW  HW  EP  OW  HW  HW  EP  OW  HW  HW  EP  OW  HW  
HW  EP  OW  HW  HW  EP  OW  HW  HW  EP  OW  HW  HW  EP  OW  HW  HW  EP  OW  HW  
HW  EP  OW  HW  HW  EP  OW  HW  HW  EP  OW  HW  HW  EP  OW  HW  HW  EP  OW  HW  
HW  EP  OW  HW  HW  EP  OW  HW  HW  EP  OW  HW  HW  EP  OW  HW  HW  EP  OW  HW  
HW  EP  OW  HW  HW  EP  OW  HW  HW  EP  OW  HW  HW  EP  OW  HW  HW  EP  OW  HW  
HW  EP  OW  HW  HW  EP  OW  HW  HW  EP  OW  HW  HW  EP  OW  HW  HW  EP  OW  HW  
HW  EP  OW  HW  HW  EP  OW  HW  HW  EP  OW  HW  HW  EP  OW  HW  HW  EP  OW  HW  
HW  EP  OW  HW  HW  EP  OW  HW  HW  EP  OW  HW  HW  EP  OW  HW  HW  EP  OW  HW  
HW  EP  OW  HW  HW  EP  OW  HW  HW  EP  OW  HW  HW  EP  OW  HW  HW  EP  OW  HW  
HW  EP  OW  HW  HW  EP  OW  HW  HW  EP  OW  HW  HW  EP  OW  HW  HW  EP  OW  HW  
HW  EP  OW  HW  HW  EP  OW  HW  HW  EP  OW  HW  HW  EP  OW  HW  HW  EP  OW  HW  
HW  EP  OW  HW  HW  EP  OW  HW  HW  EP  OW  HW  HW  EP  OW  HW  HW  EP  OW  HW  
HW  EP  OW  HW  HW  EP  OW  HW  HW  EP  OW  HW  HW  EP  OW  HW  HW  EP  OW  HW  
HW  EP  OW  HW  HW  EP  OW  HW  HW  EP  OW  HW  HW  EP  OW  HW  HW  EP  OW  HW  
HW  EP  OW  HW  HW  EP  OW  HW  HW  EP  OW  HW  HW  EP  OW  HW  HW  EP  OW  HW  
HW  EP  OW  HW  HW  EP  OW  HW  HW  EP  OW  HW  HW  EP  OW  HW  HW  EP  OW  HW  
HW  EP  OW  HW  HW  EP  OW  HW  HW  EP  OW  HW  HW  EP  OW  HW  HW  EP  OW  HW  
HW  EP  OW  HW  HW  EP  OW  HW  HW  EP  OW  HW  HW  EP  OW  HW  HW  EP  OW  HW  
HW  EP  OW  HW  HW  EP  OW  HW  HW  EP  OW  HW  HW  EP  OW  HW  HW  EP  OW  HW  
HW  EP  OW  HW  HW  EP  OW  HW  HW  EP  OW  HW  HW  EP  OW  HW  HW  EP  OW  HW  
HW  EP  OW  HW  HW  EP  OW  HW  HW  EP  OW  HW  HW  EP  OW  HW  HW  EP  OW  HW  
HW  EP  OW  HW  HW  EP  OW  HW  HW  EP  OW  HW  HW  EP  OW  HW  HW  EP  OW  HW  
HW  EP  OW  HW  HW  EP  OW  HW  HW  EP  OW  HW  HW  EP  OW  HW  HW  EP  OW  HW  
HW  EP  OW  HW  HW  EP  OW  HW  HW  EP  OW  HW  HW  EP  OW  HW  HW  EP  OW  HW  
HW  EP  OW  HW  HW  EP  OW  HW  HW  EP  OW  HW  HW  EP  OW  HW  HW  EP  OW  HW  
HW  EP  OW  HW  HW  EP  OW  HW  HW  EP  OW  HW  HW  EP  OW  HW  HW  EP  OW  HW  
HW  EP  OW  HW  HW  EP  OW  HW  HW  EP  OW  HW  HW  EP  OW  HW  HW  EP  OW  HW  
HW  EP  OW  HW  HW  EP  OW  HW  HW  EP  OW  HW  HW  EP  OW  HW  HW  EP  OW  HW  
HW  EP  OW  HW  HW  EP  OW  HW  HW  EP  OW  HW  HW  EP  OW  HW  HW  EP  OW  HW  
HW  EP  OW  HW  HW  EP  OW  HW  HW  EP  OW  HW  HW  EP  OW  HW  HW  EP  OW  HW  
HW  EP  OW  HW  HW  EP  OW  HW  HW  EP  OW  HW  HW  EP  OW  HW  HW  EP  OW  HW  
HW  EP  OW  HW  HW  EP  OW  HW  HW  EP  OW  HW  HW  EP  OW  HW  HW  EP  OW  HW  
HW  EP  OW  HW  HW  EP  OW  HW  HW  EP  OW  HW  HW  EP  OW  HW  HW  EP  OW  HW  
HW  EP  OW  HW  HW  EP  OW  HW  HW  EP  OW  HW  HW  EP  OW  HW  HW  EP  OW  HW  
HW  EP  OW  HW  HW  EP  OW  HW  HW  EP  OW  HW  HW  EP  OW  HW  HW  EP  OW  HW  
HW  EP  OW  HW  HW  EP  OW  HW  HW  EP  OW  HW  HW  EP  OW  HW  HW  EP  OW  HW  
HW  EP  OW  HW  HW  EP  OW  HW  HW  EP  OW  HW  HW  EP  OW  HW  HW  EP  OW  HW  
HW  EP  OW  HW  HW  EP  OW  HW  HW  EP  OW  HW  HW  EP  OW  HW  HW  EP  OW  HW  
HW  EP  OW  HW  HW  EP  OW  HW  HW  EP  OW  HW  HW  EP  OW  HW  HW  EP  OW  HW  
HW  EP  OW  HW  HW  EP  OW  HW  HW  EP  OW  HW  HW  EP  OW  HW  HW  EP  OW  HW  
HW  EP  OW  HW  HW  EP  OW  HW  HW  EP  OW  HW  HW  EP  OW  HW  HW  EP  OW  HW  
HW  EP  OW  HW  HW  EP  OW  HW  HW  EP  OW  HW  HW  EP  OW  HW  HW  EP  OW  HW  
HW  EP  OW  HW  HW  EP  OW  HW  HW  EP  OW  HW  HW  EP  OW  HW  HW  EP  OW  HW  
HW  EP  OW  HW  HW  EP  OW  HW  HW  EP  OW  HW  HW  EP  OW  HW  HW  EP  OW  HW  
HW  EP  OW  HW  HW  EP  OW  HW  HW  EP  OW  HW  HW  EP  OW  HW  HW  EP  OW  HW  
HW  EP  OW  HW  HW  EP  OW  HW  HW  EP  OW  HW  HW  EP  OW  HW  HW  EP  OW  HW  
HW  EP  OW  HW  HW  EP  OW  HW  HW  EP  OW  HW  HW  EP  OW  HW  HW  EP  OW  HW  
HW  EP  OW  HW  HW  EP  OW  HW  HW  EP  OW  HW  HW  EP  OW  HW  HW  EP  OW  HW  
HW  EP  OW  HW  HW  EP  OW  HW  HW  EP  OW  HW  HW  EP  OW  HW  HW  EP  OW  HW  
HW  EP  OW  HW  HW  EP  OW  HW  HW  EP  OW  HW  HW  EP  OW  HW  HW  EP  OW  HW  
HW  EP  OW  HW  HW  EP  OW  HW  HW  EP  OW  HW  HW  EP  OW  HW  HW  EP  OW  HW  
HW  EP  OW  HW  HW  EP  OW  HW  HW  EP  OW  HW  HW  EP  OW  HW  HW  EP  OW  HW  
HW  EP  OW  HW  HW  EP  OW  HW  HW  EP  OW  HW  HW  EP  OW  HW  HW  EP  OW  HW  
HW  EP  OW  HW  HW  EP  OW  HW  HW  EP  OW  HW  HW  EP  OW  HW  HW  EP  OW  HW  
HW  EP  OW  HW  HW  EP  OW  HW  HW  EP  OW  HW  HW  EP  OW  HW  HW  EP  OW  HW  
HW  EP  OW  HW  HW  EP  OW  HW  HW  EP  OW  HW  HW  EP  OW  HW  HW  EP  OW  HW  
HW  EP  OW  HW  HW  EP  OW  HW  HW  EP  OW  HW  HW  EP  OW  HW  HW  EP  OW  HW  
HW  EP  OW  HW  HW  EP  OW  HW  HW  EP  OW  HW  HW  EP  OW  HW  HW  EP  OW  HW  
HW  EP  OW  HW  HW  EP  OW  HW  HW  EP  OW  HW  HW  EP  OW  HW  HW  EP  OW  HW  
HW  EP  OW  HW  HW  EP  OW  HW  HW  EP  OW  HW  HW  EP  OW  HW  HW  EP  OW  HW  
HW  EP  OW  HW  HW  EP  OW  HW  HW  EP  OW  HW  HW  EP  OW  HW  HW  EP  OW  HW  
HW  EP  OW  HW  HW  EP  OW  HW  HW  EP  OW  HW  HW  EP  OW  HW  HW  EP  OW  HW  
HW  EP  OW  HW  HW  EP  OW  HW  HW  EP  OW  HW  HW  EP  OW  HW  HW  EP  OW  HW  
HW  EP  OW  HW  HW  EP  OW  HW  HW  EP  OW  HW  HW  EP  OW  HW  HW  EP  OW  HW  
HW  EP  OW  HW  HW  EP  OW  HW  HW  EP  OW  HW  HW  EP  OW  HW  HW  EP  OW  HW  
HW  EP  OW  HW  HW  EP  OW  HW  HW  EP  OW  HW  HW  EP  OW  HW  HW  EP  OW  HW  
HW  EP  OW  HW  HW  EP  OW  HW  HW  EP  OW  HW  HW  EP  OW  HW  HW  EP  OW  HW  
HW  EP  OW  HW  HW  EP  OW  HW  HW  EP  OW  HW  HW  EP  OW  HW  HW  EP  OW  HW  
HW  EP  OW  HW  HW  EP  OW  HW  HW  EP  OW  HW  HW  EP  OW  HW  HW  EP  OW  HW  
HW  EP  OW  HW  HW  EP  OW  HW  HW  EP  OW  HW  HW  EP  OW  HW  HW  EP  OW  HW  
HW  EP  OW  HW  HW  EP  OW  HW  HW  EP  OW  HW  HW  EP  OW  HW  HW  EP  OW  HW  
HW  EP  OW  HW  HW  EP  OW  HW  HW  EP  OW  HW  HW  EP  OW  HW  HW  EP  OW  HW  
HW  EP  OW  HW  HW  EP  OW  HW  HW  EP  OW  HW  HW  EP  OW  HW  HW  EP  OW  HW  
HW  EP  OW  HW  HW  EP  OW  HW  HW  EP  OW  HW  HW  EP  OW  HW  HW  EP  OW  HW  
HW  EP  OW  HW  HW  EP  OW  HW  HW  EP  OW  HW  HW  EP  OW  HW  HW  EP  OW  HW  
HW  EP  OW  HW  HW  EP  OW  HW  HW  EP  OW  HW  HW  EP  OW  HW  HW  EP  OW  HW  
HW  EP  OW  HW  HW  EP  OW  HW  HW  EP  OW  HW  HW  EP  OW  HW  HW  EP  OW  HW  
HW  EP  OW  HW  HW  EP  OW  HW  HW  EP  OW  HW  HW  EP  OW  HW  HW  EP  OW  HW  
HW  EP  OW  HW  HW  EP  OW  HW  HW  EP  OW  HW  HW  EP  OW  HW  HW  EP  OW  HW  
HW  EP  OW  HW  HW  EP  OW  HW  HW  EP  OW  HW  HW  EP  OW  HW  HW  EP  OW  HW  
HW  EP  OW  HW  HW  EP  OW  HW  HW  EP  OW  HW  HW  EP  OW  HW  HW  EP  OW  HW  
HW  EP  OW  HW  HW  EP  OW  HW  HW  EP  OW  HW  HW  EP  OW  HW  HW  EP  OW  HW  
HW  EP  OW  HW  HW  EP  OW  HW  HW  EP  OW  HW  HW  EP  OW  HW  HW  EP  OW  HW  
HW  EP  OW  HW  HW  EP  OW  HW  HW  EP  OW  HW  HW  EP  OW  HW  HW  EP  OW  HW  
HW  EP  OW  HW  HW  EP  OW  HW  HW  EP  OW  HW  HW  EP  OW  HW  HW  EP  OW  HW  
HW  EP  OW  HW  HW  EP  OW  HW  HW  EP  OW  HW  HW  EP  OW  HW  HW  EP  OW  HW  
HW  EP  OW  HW  HW  EP  OW  HW  HW  EP  OW  HW  HW  EP  OW  HW  HW  EP  OW  HW  
HW  EP  OW  HW  HW  EP  OW  HW  HW  EP  OW  HW  HW  EP  OW  HW  HW  EP  OW  HW  
HW  EP  OW  HW  HW  EP  OW  HW  HW  EP  OW  HW  HW  EP  OW  HW  HW  EP  OW  HW  
HW  EP  OW  HW  HW  EP  OW  HW  HW  EP  OW  HW  HW  EP  OW  HW  HW  EP  OW  HW  
HW  EP  OW  HW  HW  EP  OW  HW  HW  EP  OW  HW  HW  EP  OW  HW  HW  EP  OW  HW  
HW  EP  OW  HW  HW  EP  OW  HW  HW  EP  OW  HW  HW  EP  OW  HW  HW  EP  OW  HW  
HW  EP  OW  HW  HW  EP  OW  HW  HW  EP  OW  HW  HW  EP  OW  HW  HW  EP  OW  HW  
HW  EP  OW  HW  HW  EP  OW  HW  HW  EP  OW  HW  HW  EP  OW  HW  HW  EP  OW  HW  
HW  EP  OW  HW  HW  EP  OW  HW  HW  EP  OW  HW  HW  EP  OW  HW  HW  EP  OW  HW  
HW  EP  OW  HW  HW  EP  OW  HW  HW  EP  OW  HW  HW  EP  OW  HW  HW  EP  OW  HW  
HW  EP  OW  HW  HW  EP  OW  HW  HW  EP  OW  HW  HW  EP  OW  HW  HW  EP  OW  HW  
HW  EP  OW  HW  HW  EP  OW  HW  HW  EP  OW  HW  HW  EP  OW  HW  HW  EP  OW  HW  
HW  EP  OW  HW  HW  EP  OW  HW  HW  EP  OW  HW  HW  EP  OW  HW  HW  EP  OW  HW  
HW  EP  OW  HW  HW  EP  OW  HW  HW  EP  OW  HW  HW  EP  OW  HW  HW  EP  OW  HW  
HW  EP  OW  HW  HW  EP  OW  HW  HW  EP  OW  HW  HW  EP  OW  HW  HW  EP  OW  HW  
HW  EP  OW  HW  HW  EP  OW  HW  HW  EP  OW  HW  HW  EP  OW  HW  HW  EP  OW  HW  
HW  EP  OW  HW  HW  EP  OW  HW  HW  EP  OW  HW  HW  EP  OW  HW  HW  EP  OW  HW  
HW  EP  OW  HW  HW  EP  OW  HW  HW  EP  OW  HW  HW  EP  OW  HW  HW  EP  OW  HW  
HW  EP  OW  HW  HW  EP  OW  HW  HW  EP  OW  HW  HW  EP  OW  HW  HW  EP  OW  HW  
HW  EP  OW  HW  HW  EP  OW  HW  HW  EP  OW  HW  HW  EP  OW  HW  HW  EP  OW  HW  
HW  EP  OW  HW  HW  EP  OW  HW  HW  EP  OW  HW  HW  EP  OW  HW  HW  EP  OW  HW  
HW  EP  OW  HW  HW  EP  OW  HW  HW  EP  OW  HW  HW  EP  OW  HW  HW  EP  OW  HW  
HW  EP  OW  HW  HW  EP  OW  HW  HW  EP  OW  HW  HW  EP  OW  HW  HW  EP  OW  HW  
HW  EP  OW  HW  HW  EP  OW  HW  HW  EP  OW  HW  HW  EP  OW  HW  HW  EP  OW  HW  
HW  EP  OW  HW  HW  EP  OW  HW  HW  EP  OW  HW  HW  EP  OW  HW  HW  EP  OW  HW  
HW  EP  OW  HW  HW  EP  OW  HW  HW  EP  OW  HW  HW  EP  OW  HW  HW  EP  OW  HW  
HW  EP  OW  HW  HW  EP  OW  HW  HW  EP  OW  HW  HW  EP  OW  HW  HW  EP  OW  HW  
HW  EP  OW  HW  HW  EP  OW  HW  HW  EP  OW  HW  HW  EP  OW  HW  HW  EP  OW  HW  
HW  EP  OW  HW  HW  EP  OW  HW  HW  EP  OW  HW  HW  EP  OW  HW  HW  EP  OW  HW  
HW  EP  OW  HW  HW  EP  OW  HW  HW  EP  OW  HW  HW  EP  OW  HW  HW  EP  OW  HW  
HW  EP  OW  HW  HW  EP  OW  HW  HW  EP  OW  HW  HW  EP  OW  HW  HW  EP  OW  HW  
HW  EP  OW  HW  HW  EP  OW  HW  HW  EP  OW  HW  HW  EP  OW  HW  HW  EP  OW  HW  
HW  EP  OW  HW  HW  EP  OW  HW  HW  EP  OW  HW  HW  EP  OW  HW  HW  EP  OW  HW  
HW  EP  OW  HW  HW  EP  OW  HW  HW  EP  OW  HW  HW  EP  OW  HW  HW  EP  OW  HW  
HW  EP  OW  HW  HW  EP  OW  HW  HW  EP  OW  HW  HW  EP  OW  HW  HW  EP  OW  HW  
HW  EP  OW  HW  HW  EP  OW  HW  HW  EP  OW  HW  HW  EP  OW  HW  HW  EP  OW  HW  
HW  EP  OW  HW  HW  EP  OW  HW  HW  EP  OW  HW  HW  EP  OW  HW  HW  EP  OW  HW  
HW  EP  OW  HW  HW  EP  OW  HW  HW  EP  OW  HW  HW  EP  OW  HW  HW  EP  OW  HW  
HW  EP  OW  HW  HW  EP  OW  HW  HW  EP  OW  HW  HW  EP  OW  HW  HW  EP  OW  HW  
HW  EP  OW  HW  HW  EP  OW  HW  HW  EP  OW  HW  HW  EP  OW  HW  HW  EP  OW  HW  
HW  EP  OW  HW  HW  EP  OW  HW  HW  EP  OW  HW  HW  EP  OW  HW  HW  EP  OW  HW  
HW  EP  OW  HW  HW  EP  OW  HW  HW  EP  OW  HW  HW  EP  OW  HW  HW  EP  OW  HW  
HW  EP  OW  HW  HW  EP  OW  HW  HW  EP  OW  HW  HW  EP  OW  HW  HW  EP  OW  HW  
HW  EP  OW  HW  HW  EP  OW  HW  HW  EP  OW  HW  HW  EP  OW  HW  HW  EP  OW  HW  
HW  EP  OW  HW  HW  EP  OW  HW  HW  EP  OW  HW  HW  EP  OW  HW  HW  EP  OW  HW  
HW  EP  OW  HW  HW  EP  OW  HW  HW  EP  OW  HW  HW  EP  OW  HW  HW  EP  OW  HW  
HW  EP  OW  HW  HW  EP  OW  HW  HW  EP  OW  HW  HW  EP  OW  HW  HW  EP  OW  HW  
HW  EP  OW  HW  HW  EP  OW  HW  HW  EP  OW  HW  HW  EP  OW  HW  HW  EP  OW  HW  
HW  EP  OW  HW  HW  EP  OW  HW  HW  EP  OW  HW  HW  EP  OW  HW  HW  EP  OW  HW  
HW  EP  OW  HW  HW  EP  OW  HW  HW  EP  OW  HW  HW  EP  OW  HW  HW  EP  OW  HW  
HW  EP  OW  HW  HW  EP  OW  HW  HW  EP  OW  HW  HW  EP  OW  HW  HW  EP  OW  HW  
HW  EP  OW  HW  HW  EP  OW  HW  HW  EP  OW  HW  HW  EP  OW  HW  HW  EP  OW  HW  
HW  EP  OW  HW  HW  EP  OW  HW  HW  EP  OW  HW  HW  EP  OW  HW  HW  EP  OW  HW  
HW  EP  OW  HW  HW  EP  OW  HW  HW  EP  OW  HW  HW  EP  OW  HW  HW  EP  OW  HW  
HW  EP  OW  HW  HW  EP  OW  HW  HW  EP  OW  HW  HW  EP  OW  HW  HW  EP  OW  HW  
HW  EP  OW  HW  HW  EP  OW  HW  HW  EP  OW  HW  HW  EP  OW  HW  HW  EP  OW  HW  
HW  EP  OW  HW  HW  EP  OW  HW  HW  EP  OW  HW  HW  EP  OW  HW  HW  EP  OW  HW  
HW  EP  OW  HW  HW  EP  OW  HW  HW  EP  OW  HW  HW  EP  OW  HW  HW  EP  OW  HW  
HW  EP  OW  HW  HW  EP  OW  HW  HW  EP  OW  HW  HW  EP  OW  HW  HW  EP  OW  HW  
HW  EP  OW  HW  HW  EP  OW  HW  HW  EP  OW  HW  HW  EP  OW  HW  HW  EP  OW  HW  
HW  EP  OW  HW  HW  EP  OW  HW  HW  EP  OW  HW  HW  EP  OW  HW  HW  EP  OW  HW  
HW  EP  OW  HW  HW  EP  OW  HW  HW  EP  OW  HW  HW  EP  OW  HW  HW  EP  OW  HW  
HW  EP  OW  HW  HW  EP  OW  HW  HW  EP  OW  HW  HW  EP  OW  HW  HW  EP  OW  HW  
HW  EP  OW  HW  HW  EP  OW  HW  HW  EP  OW  HW  HW  EP  OW  HW  HW  EP  OW  HW  
HW  EP  OW  HW  HW  EP  OW  HW  HW  EP  OW  HW  HW  EP  OW  HW  HW  EP  OW  HW  
HW  EP  OW  HW  HW  EP  OW  HW  HW  EP  OW  HW  HW  EP  OW  HW  HW  EP  OW  HW  
HW  EP  OW  HW  HW  EP  OW  HW  HW  EP  OW  HW  HW  EP  OW  HW  HW  EP  OW  HW  
HW  EP  OW  HW  HW  EP  OW  HW  HW  EP  OW  HW  HW  EP  OW  HW  HW  EP  OW  HW  
HW  EP  OW  HW  HW  EP  OW  HW  HW  EP  OW  HW  HW  EP  OW  HW  HW  EP  OW  HW  
HW  EP  OW  HW  HW  EP  OW  HW  HW  EP  OW  HW  HW  EP  OW  HW  HW  EP  OW  HW  
HW  EP  OW  HW  HW  EP  OW  HW  HW  EP  OW  HW  HW  EP  OW  HW  HW  EP  OW  HW  
HW  EP  OW  HW  HW  EP  OW  HW  HW  EP  OW  HW  HW  EP  OW  HW  HW  EP  OW  HW  
HW  EP  OW  HW  HW  EP  OW  HW  HW  EP  OW  HW  HW  EP  OW  HW  HW  EP  OW  HW  
HW  EP  OW  HW  HW  EP  OW  HW  HW  EP  OW  HW  HW  EP  OW  HW  HW  EP  OW  HW  
HW  EP  OW  HW  HW  EP  OW  HW  HW  EP  OW  HW  HW  EP  OW  HW  HW  EP  OW  HW  
HW  EP  OW  HW  HW  EP  OW  HW  HW  EP  OW  HW  HW  EP  OW  HW  HW  EP  OW  HW  
HW  EP  OW  HW  HW  EP  OW  HW  HW  EP  OW  HW  HW  EP  OW  HW  HW  EP  OW  HW  
HW  EP  OW  HW  HW  EP  OW  HW  HW  EP  OW  HW  HW  EP  OW  HW  HW  EP  OW  HW  
HW  EP  OW  HW  HW  EP  OW  HW  HW  EP  OW  HW  HW  EP  OW  HW  HW  EP  OW  HW  
HW  EP  OW  HW  HW  EP  OW  HW  HW  EP  OW  HW  HW  EP  OW  HW  HW  EP  OW  HW  
HW  EP  OW  HW  HW  EP  OW  HW  HW  EP  OW  HW  HW  EP  OW  HW  HW  EP  OW  HW  
HW  EP  OW  HW  HW  EP  OW  HW  HW  EP  OW  HW  HW  EP  OW  HW  HW  EP  OW  HW  
HW  EP  OW  HW  HW  EP  OW  HW  HW  EP  OW  HW  HW  EP  OW  HW  HW  EP  OW  HW  
HW  EP  OW  HW  HW  EP  OW  HW  HW  EP  OW  HW  HW  EP  OW  HW  HW  EP  OW  HW  
HW  EP  OW  HW  HW  EP  OW  HW  HW  EP  OW  HW  HW  EP  OW  HW  HW  EP  OW  HW  
HW  EP  OW  HW  HW  EP  OW  HW  HW  EP  OW  HW  HW  EP  OW  HW  HW  EP  OW  HW  
HW  EP  OW  HW  HW  EP  OW  HW  HW  EP  OW  HW  HW  EP  OW  HW  HW  EP  OW  HW  
HW  EP  OW  HW  HW  EP  OW  HW  HW  EP  OW  HW  HW  EP  OW  HW  HW  EP  OW  HW  
HW  EP  OW  HW  HW  EP  OW  HW  HW  EP  OW  HW  HW  EP  OW  HW  HW  EP  OW  HW  
HW  EP  OW  HW  HW  EP  OW  HW  HW  EP  OW  HW  HW  EP  OW  HW  HW  EP  OW  HW  
HW  EP  OW  HW  HW  EP  OW  HW  HW  EP  OW  HW  HW  EP  OW  HW  HW  EP  OW  HW  
HW  EP  OW  HW  HW  EP  OW  HW  HW  EP  OW  HW  HW  EP  OW  HW  HW  EP  OW  HW  
HW  EP  OW  HW  HW  EP  OW  HW  HW  EP  OW  HW  HW  EP  OW  HW  HW  EP  OW  HW  
HW  EP  OW  HW  HW  EP  OW  HW  HW  EP  OW  HW  HW  EP  OW  HW  HW  EP  OW  HW  
HW  EP  OW  HW  HW  EP  OW  HW  HW  EP  OW  HW  HW  EP  OW  HW  HW  EP  OW  HW  
HW  EP  OW  HW  HW  EP  OW  HW  HW  EP  OW  HW  HW  EP  OW  HW  HW  EP  OW  HW  
HW  EP  OW  HW  HW  EP  OW  HW  HW  EP  OW  HW  HW  EP  OW  HW  HW  EP  OW  HW  
HW  EP  OW  HW  HW  EP  OW  HW  HW  EP  OW  HW  HW  EP  OW  HW  HW  EP  OW  HW  
HW  EP  OW  HW  HW  EP  OW  HW  HW  EP  OW  HW  HW  EP  OW  HW  HW  EP  OW  HW  
HW  EP  OW  HW  HW  EP  OW  HW  HW  EP  OW  HW  HW  EP  OW  HW  HW  EP  OW  HW  
HW  EP  OW  HW  HW  EP  OW  HW  HW  EP  OW  HW  HW  EP  OW  HW  HW  EP  OW  HW  
HW  EP  OW  HW  HW  EP  OW  HW  HW  EP  OW  HW  HW  EP  OW  HW  HW  EP  OW  HW  
HW  EP  OW  HW  HW  EP  OW  HW  HW  EP  OW  HW  HW  EP  OW  HW  HW  EP  OW  HW  
HW  EP  OW  HW  HW  EP  OW  HW  HW  EP  OW  HW  HW  EP  OW  HW  HW  EP  OW  HW  
HW  EP  OW  HW  HW  EP  OW  HW  HW  EP  OW  HW  HW  EP  OW  HW  HW  EP  OW  HW  
HW  EP  OW  HW  HW  EP  OW  HW  HW  EP  OW  HW  HW  EP  OW  HW  HW  EP  OW  HW  
HW  EP  OW  HW  HW  EP  OW  HW  HW  EP  OW  HW  HW  EP  OW  HW  HW  EP  OW  HW  
HW  EP  OW  HW  HW  EP  OW  HW  HW  EP  OW  HW  HW  EP  OW  HW  HW  EP  OW  HW  
HW  EP  OW  HW  HW  EP  OW  HW  HW  EP  OW  HW  HW  EP  OW  HW  HW  EP  OW  HW  
HW  EP  OW  HW  HW  EP  OW  HW  HW  EP  OW  HW  HW  EP  OW  HW  HW  EP  OW  HW  
HW  EP  OW  HW  HW  EP  OW  HW  HW  EP  OW  HW  HW  EP  OW  HW  HW  EP  OW  HW  
HW  EP  OW  HW  HW  EP  OW  HW  HW  EP  OW  HW  HW  EP  OW  HW  HW  EP  OW  HW  
HW  EP  OW  HW  HW  EP  OW  HW  HW  EP  OW  HW  HW  EP  OW  HW  HW  EP  OW  HW  
HW  EP  OW  HW  HW  EP  OW  HW  HW  EP  OW  HW  HW  EP  OW  HW  HW  EP  OW  HW  
HW  EP  OW  HW  HW  EP  OW  HW  HW  EP  OW  HW  HW  EP  OW  HW  HW  EP  OW  HW  
HW  EP  OW  HW  HW  EP  OW  HW  HW  EP  OW  HW  HW  EP  OW  HW  HW  EP  OW  HW  
HW  EP  OW  HW  HW  EP  OW  HW  HW  EP  OW  HW  HW  EP  OW  HW  HW  EP  OW  HW  
HW  EP  OW  HW  HW  EP  OW  HW  HW  EP  OW  HW  HW  EP  OW  HW  HW  EP  OW  HW  
HW  EP  OW  HW  HW  EP  OW  HW  HW  EP  OW  HW  HW  EP  OW  HW  HW  EP  OW  HW  
HW  EP  OW  HW  HW  EP  OW  HW  HW  EP  OW  HW  HW  EP  OW  HW  HW  EP  OW  HW  
HW  EP  OW  HW  HW  EP  OW  HW  HW  EP  OW  HW  HW  EP  OW  HW  HW  EP  OW  HW  
HW  EP  OW  HW  HW  EP  OW  HW  HW  EP  OW  HW  HW  EP  OW  HW  HW  EP  OW  HW  
HW  EP  OW  HW  HW  EP  OW  HW  HW  EP  OW  HW  HW  EP  OW  HW  HW  EP  OW  HW  
HW  EP  OW  HW  HW  EP  OW  HW  HW  EP  OW  HW  HW  EP  OW  HW  HW  EP  OW  HW  
HW  EP  OW  HW  HW  EP  OW  HW  HW  EP  OW  HW  HW  EP  OW  HW  HW  EP  OW  HW  
HW  EP  OW  HW  HW  EP  OW  HW  HW  EP  OW  HW  HW  EP  OW  HW  HW  EP  OW  HW  
HW  EP  OW  HW  HW  EP  OW  HW  HW  EP  OW  HW  HW  EP  OW  HW  HW  EP  OW  HW  
HW  EP  OW  HW  HW  EP  OW  HW  HW  EP  OW  HW  HW  EP  OW  HW  HW  EP  OW  HW  
HW  EP  OW  HW  HW  EP  OW  HW  HW  EP  OW  HW  HW  EP  OW  HW  HW  EP  OW  HW  
HW  EP  OW  HW  HW  EP  OW  HW  HW  EP  OW  HW  HW  EP  OW  HW  HW  EP  OW  HW  
HW  EP  OW  HW  HW  EP  OW  HW  HW  EP  OW  HW  HW  EP  OW  HW  HW  EP  OW  HW  
HW  EP  OW  HW  HW  EP  OW  HW  HW  EP  OW  HW  HW  EP  OW  HW  HW  EP  OW  HW  
HW  EP  OW  HW  HW  EP  OW  HW  HW  EP  OW  HW  HW  EP  OW  HW  HW  EP  OW  HW  
HW  EP  OW  HW  HW  EP  OW  HW  HW  EP  OW  HW  HW  EP  OW  HW  HW  EP  OW  HW  
HW  EP  OW  HW  HW  EP  OW  HW  HW  EP  OW  HW  HW  EP  OW  HW  HW  EP  OW  HW  
HW  EP  OW  HW  HW  EP  OW  HW  HW  EP  OW  HW  HW  EP  OW  HW  HW  EP  OW  HW  
HW  EP  OW  HW  HW  EP  OW  HW  HW  EP  OW  HW  HW  EP  OW  HW  HW  EP  OW  HW  
HW  EP  OW  HW  HW  EP  OW  HW  HW  EP  OW  HW  HW  EP  OW  HW  HW  EP  OW  HW  
HW  EP  OW  HW  HW  EP  OW  HW  HW  EP  OW  HW  HW  EP  OW  HW  HW  EP  OW  HW  
HW  EP  OW  HW  HW  EP  OW  HW  HW  EP  OW  HW  HW  EP  OW  HW  HW  EP  OW  HW  
HW  EP  OW  HW  HW  EP  OW  HW  HW  EP  OW  HW  HW  EP  OW  HW  HW  EP  OW  HW  
HW  EP  OW  HW  HW  EP  OW  HW  HW  EP  OW  HW  HW  EP  OW  HW  HW  EP  OW  HW  
HW  EP  OW  HW  HW  EP  OW  HW  HW  EP  OW  HW  HW  EP  OW  HW  HW  EP  OW  HW  
HW  EP  OW  HW  HW  EP  OW  HW  HW  EP  OW  HW  HW  EP  OW  HW  HW  EP  OW  HW  
HW  EP  OW  HW  HW  EP  OW  HW  HW  EP  OW  HW  HW  EP  OW  HW  HW  EP  OW  HW  
HW  EP  OW  HW  HW  EP  OW  HW  HW  EP  OW  HW  HW  EP  OW  HW  HW  EP  OW  HW  
HW  EP  OW  HW  HW  EP  OW  HW  HW  EP  OW  HW  HW  EP  OW  HW  HW  EP  OW  HW  
HW  EP  OW  HW  HW  EP  OW  HW  HW  EP  OW  HW  HW  EP  OW  HW  HW  EP  OW  HW  
HW  EP  OW  HW  HW  EP  OW  HW  HW  EP  OW  HW  HW  EP  OW  HW  HW  EP  OW  HW  
HW  EP  OW  HW  HW  EP  OW  HW  HW  EP  OW  HW  HW  EP  OW  HW  HW  EP  OW  HW  
HW  EP  OW  HW  HW  EP  OW  HW  HW  EP  OW  HW  HW  EP  OW  HW  HW  EP  OW  HW  
HW  EP  OW  HW  HW  EP  OW  HW  HW  EP  OW  HW  HW  EP  OW  HW  HW  EP  OW  HW  
HW  EP  OW  HW  HW  EP  OW  HW  HW  EP  OW  HW  HW  EP  OW  HW  HW  EP  OW  HW  
HW  EP  OW  HW  HW  EP  OW  HW  HW  EP  OW  HW  HW  EP  OW  HW  HW  EP  OW  HW  
HW  EP  OW  HW  HW  EP  OW  HW  HW  EP  OW  HW  HW  EP  OW  HW  HW  EP  OW  HW  
HW  EP  OW  HW  HW  EP  OW  HW  HW  EP  OW  HW  HW  EP  OW  HW  HW  EP  OW  HW  
HW  EP  OW  HW  HW  EP  OW  HW  HW  EP  OW  HW  HW  EP  OW  HW  HW  EP  OW  HW  
HW  EP  OW  HW  HW  EP  OW  HW  HW  EP  OW  HW  HW  EP  OW  HW  HW  EP  OW  HW  
HW  EP  OW  HW  HW  EP  OW  HW  HW  EP  OW  HW  HW  EP  OW  HW  HW  EP  OW  HW  
HW  EP  OW  HW  HW  EP  OW  HW  HW  EP  OW  HW  HW  EP  OW  HW  HW  EP  OW  HW  
HW  EP  OW  HW  HW  EP  OW  HW  HW  EP  OW  HW  HW  EP  OW  HW  HW  EP  OW  HW  
HW  EP  OW  HW  HW  EP  OW  HW  HW  EP  OW  HW  HW  EP  OW  HW  HW  EP  OW  HW  
HW  EP  OW  HW  HW  EP  OW  HW  HW  EP  OW  HW  HW  EP  OW  HW  HW  EP  OW  HW  
HW  EP  OW  HW  HW  EP  OW  HW  HW  EP  OW  HW  HW  EP  OW  HW  HW  EP  OW  HW  
HW  EP  OW  HW  HW  EP  OW  HW  HW  EP  OW  HW  HW  EP  OW  HW  HW  EP  OW  HW  
HW  EP  OW  HW  HW  EP  OW  HW  HW  EP  OW  HW  HW  EP  OW  HW  HW  EP  OW  HW  
HW  EP  OW  HW  HW  EP  OW  HW  HW  EP  OW  HW  HW  EP  OW  HW  HW  EP  OW  HW  
HW  EP  OW  HW  HW  EP  OW  HW  HW  EP  OW  HW  HW  EP  OW  HW  HW  EP  OW  HW  
HW  EP  OW  HW  HW  EP  OW  HW  HW  EP  OW  HW  HW  EP  OW  HW  HW  EP  OW  HW  
HW  EP  OW  HW  HW  EP  OW  HW  HW  EP  OW  HW  HW  EP  OW  HW  HW  EP  OW  HW  
HW  EP  OW  HW  HW  EP  OW  HW  HW  EP  OW  HW  HW  EP  OW  HW  HW  EP  OW  HW  
HW  EP  OW  HW  HW  EP  OW  HW  HW  EP  OW  HW  HW  EP  OW  HW  HW  EP  OW  HW  
HW  EP  OW  HW  HW  EP  OW  HW  HW  EP  OW  HW  HW  EP  OW  HW  HW  EP  OW  HW  
HW  EP  OW  HW  HW  EP  OW  HW  HW  EP  OW  HW  HW  EP  OW  HW  HW  EP  OW  HW  
HW  EP  OW  HW  HW  EP  OW  HW  HW  EP  OW  HW  HW  EP  OW  HW  HW  EP  OW  HW  
HW  EP  OW  HW  HW  EP  OW  HW  HW  EP  OW  HW  HW  EP  OW  HW  HW  EP  OW  HW  
HW  EP  OW  HW  HW  EP  OW  HW  HW  EP  OW  HW  HW  EP  OW  HW  HW  EP  OW  HW  
HW  EP  OW  HW  HW  EP  OW  HW  HW  EP  OW  HW  HW  EP  OW  HW  HW  EP  OW  HW  
HW  EP  OW  HW  HW  EP  OW  HW  HW  EP  OW  HW  HW  EP  OW  HW  HW  EP  OW  HW  
HW  EP  OW  HW  HW  EP  OW  HW  HW  EP  OW  HW  HW  EP  OW  HW  HW  EP  OW  HW  
HW  EP  OW  HW  HW  EP  OW  HW  HW  EP  OW  HW  HW  EP  OW  HW  HW  EP  OW  HW  
HW  EP  OW  HW  HW  EP  OW  HW  HW  EP  OW  HW  HW  EP  OW  HW  HW  EP  OW  HW  
HW  EP  OW  HW  HW  EP  OW  HW  HW  EP  OW  HW  HW  EP  OW  HW  HW  EP  OW  HW  
HW  EP  OW  HW  HW  EP  OW  HW  HW  EP  OW  HW  HW  EP  OW  HW  HW  EP  OW  HW  
HW  EP  OW  HW  HW  EP  OW  HW  HW  EP  OW  HW  HW  EP  OW  HW  HW  EP  OW  HW  
HW  EP  OW  HW  HW  EP  OW  HW  HW  EP  OW  HW  HW  EP  OW  HW  HW  EP  OW  HW  
HW  EP  OW  HW  HW  EP  OW  HW  HW  EP  OW  HW  HW  EP  OW  HW  HW  EP  OW  HW  
HW  EP  OW  HW  HW  EP  OW  HW  HW  EP  OW  HW  HW  EP  OW  HW  HW  EP  OW  HW  
HW  EP  OW  HW  HW  EP  OW  HW  HW  EP  OW  HW  HW  EP  OW  HW  HW  EP  OW  HW  
HW  EP  OW  HW  HW  EP  OW  HW  HW  EP  OW  HW  HW  EP  OW  HW  HW  EP  OW  HW  
HW  EP  OW  HW  HW  EP  OW  HW  HW  EP  OW  HW  HW  EP  OW  HW  HW  EP  OW  HW  
HW  EP  OW  HW  HW  EP  OW  HW  HW  EP  OW  HW  HW  EP  OW  HW  HW  EP  OW  HW  
HW  EP  OW  HW  HW  EP  OW  HW  HW  EP  OW  HW  HW  EP  OW  HW  HW  EP  OW  HW  
HW  EP  OW  HW  HW  EP  OW  HW  HW  EP  OW  HW  HW  EP  OW  HW  HW  EP  OW  HW  
HW  EP  OW  HW  HW  EP  OW  HW  HW  EP  OW  HW  HW  EP  OW  HW  HW  EP  OW  HW  
HW  EP  OW  HW  HW  EP  OW  HW  HW  EP  OW  HW  HW  EP  OW  HW  HW  EP  OW  HW  
HW  EP  OW  HW  HW  EP  OW  HW  HW  EP  OW  HW  HW  EP  OW  HW  HW  EP  OW  HW  
HW  EP  OW  HW  HW  EP  OW  HW  HW  EP  OW  HW  HW  EP  OW  HW  HW  EP  OW  HW  
HW  EP  OW  HW  HW  EP  OW  HW  HW  EP  OW  HW  HW  EP  OW  HW  HW  EP  OW  HW  
HW  EP  OW  HW  HW  EP  OW  HW  HW  EP  OW  HW  HW  EP  OW  HW  HW  EP  OW  HW  
HW  EP  OW  HW  HW  EP  OW  HW  HW  EP  OW  HW  HW  EP  OW  HW  HW  EP  OW  HW  
HW  EP  OW  HW  HW  EP  OW  HW  HW  EP  OW  HW  HW  EP  OW  HW  HW  EP  OW  HW  
HW  EP  OW  HW  HW  EP  OW  HW  HW  EP  OW  HW  HW  EP  OW  HW  HW  EP  OW  HW  
HW  EP  OW  HW  HW  EP  OW  HW  HW  EP  OW  HW  HW  EP  OW  HW  HW  EP  OW  HW  
HW  EP  OW  HW  HW  EP  OW  HW  HW  EP  OW  HW  HW  EP  OW  HW  HW  EP  OW  HW  
HW  EP  OW  HW  HW  EP  OW  HW  HW  EP  OW  HW  HW  EP  OW  HW  HW  EP  OW  HW  
HW  EP  OW  HW  HW  EP  OW  HW  HW  EP  OW  HW  HW  EP  OW  HW  HW  EP  OW  HW  
HW  EP  OW  HW  HW  EP  OW  HW  HW  EP  OW  HW  HW  EP  OW  HW  HW  EP  OW  HW  
HW  EP  OW  HW  HW  EP  OW  HW  HW  EP  OW  HW  HW  EP  OW  HW  HW  EP  OW  HW  
HW  EP  OW  HW  HW  EP  OW  HW  HW  EP  OW  HW  HW  EP  OW  HW  HW  EP  OW  HW  
HW  EP  OW  HW  HW  EP  OW  HW  HW  EP  OW  HW  HW  EP  OW  HW  HW  EP  OW  HW  
HW  EP  OW  HW  HW  EP  OW  HW  HW  EP  OW  HW  HW  EP  OW  HW  HW  EP  OW  HW  
HW  EP  OW  HW  HW  EP  OW  HW  HW  EP  OW  HW  HW  EP  OW  HW  HW  EP  OW  HW  
HW  EP  OW  HW  HW  EP  OW  HW  HW  EP  OW  HW  HW  EP  OW  HW  HW  EP  OW  HW  
HW  EP  OW  HW  HW  EP  OW  HW  HW  EP  OW  HW  HW  EP  OW  HW  HW  EP  OW  HW  
HW  EP  OW  HW  HW  EP  OW  HW  HW  EP  OW  HW  HW  EP  OW  HW  HW  EP  OW  HW  
HW  EP  OW  HW  HW  EP  OW  HW  HW  EP  OW  HW  HW  EP  OW  HW  HW  EP  OW  HW  
HW  EP  OW  HW  HW  EP  OW  HW  HW  EP  OW  HW  HW  EP  OW  HW  HW  EP  OW  HW  
HW  EP  OW  HW  HW  EP  OW  HW  HW  EP  OW  HW  HW  EP  OW  HW  HW  EP  OW  HW  
HW  EP  OW  HW  HW  EP  OW  HW  HW  EP  OW  HW  HW  EP  OW  HW  HW  EP  OW  HW  
HW  EP  OW  HW  HW  EP  OW  HW  HW  EP  OW  HW  HW  EP  OW  HW  HW  EP  OW  HW  
HW  EP  OW  HW  HW  EP  OW  HW  HW  EP  OW  HW  HW  EP  OW  HW  HW  EP  OW  HW  
HW  EP  OW  HW  HW  EP  OW  HW  HW  EP  OW  HW  HW  EP  OW  HW  HW  EP  OW  HW  
HW  EP  OW  HW  HW  EP  OW  HW  HW  EP  OW  HW  HW  EP  OW  HW  HW  EP  OW  HW  
HW  EP  OW  HW  HW  EP  OW  HW  HW  EP  OW  HW  HW  EP  OW  HW  HW  EP  OW  HW  
HW  EP  OW  HW  HW  EP  OW  HW  HW  EP  OW  HW  HW  EP  OW  HW  HW  EP  OW  HW  
HW  EP  OW  HW  HW  EP  OW  HW  HW  EP  OW  HW  HW  EP  OW  HW  HW  EP  OW  HW  
HW  EP  OW  HW  HW  EP  OW  HW  HW  EP  OW  HW  HW  EP  OW  HW  HW  EP  OW  HW  
HW  EP  OW  HW  HW  EP  OW  HW  HW  EP  OW  HW  HW  EP  OW  HW  HW  EP  OW  HW  
HW  EP  OW  HW  HW  EP  OW  HW  HW  EP  OW  HW  HW  EP  OW  HW  HW  EP  OW  HW  
HW  EP  OW  HW  HW  EP  OW  HW  HW  EP  OW  HW  HW  EP  OW  HW  HW  EP  OW  HW  
HW  EP  OW  HW  HW  EP  OW  HW  HW  EP  OW  HW  HW  EP  OW  HW  HW  EP  OW  HW  
HW  EP  OW  HW  HW  EP  OW  HW  HW  EP  OW  HW  HW  EP  OW  HW  HW  EP  OW  HW  
HW  EP  OW  HW  HW  EP  OW  HW  HW  EP  OW  HW  HW  EP  OW  HW  HW  EP  OW  HW  
HW  EP  OW  HW  HW  EP  OW  HW  HW  EP  OW  HW  HW  EP  OW  HW  HW  EP  OW  HW  
HW  EP  OW  HW  HW  EP  OW  HW  HW  EP  OW  HW  HW  EP  OW  HW  HW  EP  OW  HW  
HW  EP  OW  HW  HW  EP  OW  HW  HW  EP  OW  HW  HW  EP  OW  HW  HW  EP  OW  HW  
HW  EP  OW  HW  HW  EP  OW  HW  HW  EP  OW  HW  HW  EP  OW  HW  HW  EP  OW  HW  
HW  EP  OW  HW  HW  EP  OW  HW  HW  EP  OW  HW  HW  EP  OW  HW  HW  EP  OW  HW  
HW  EP  OW  HW  HW  EP  OW  HW  HW  EP  OW  HW  HW  EP  OW  HW  HW  EP  OW  HW  
HW  EP  OW  HW  HW  EP  OW  HW  HW  EP  OW  HW  HW  EP  OW  HW  HW  EP  OW  HW  
HW  EP  OW  HW  HW  EP  OW  HW  HW  EP  OW  HW  HW  EP  OW  HW  HW  EP  OW  HW  
HW  EP  OW  HW  HW  EP  OW  HW  HW  EP  OW  HW  HW  EP  OW  HW  HW  EP  OW  HW  
HW  EP  OW  HW  HW  EP  OW  HW  HW  EP  OW  HW  HW  EP  OW  HW  HW  EP  OW  HW  
HW  EP  OW  HW  HW  EP  OW  HW  HW  EP  OW  HW  HW  EP  OW  HW  HW  EP  OW  HW  
HW  EP  OW  HW  HW  EP  OW  HW  HW  EP  OW  HW  HW  EP  OW  HW  HW  EP  OW  HW  
HW  EP  OW  HW  HW  EP  OW  HW  HW  EP  OW  HW  HW  EP  OW  HW  HW  EP  OW  HW  
HW  EP  OW  HW  HW  EP  OW  HW  HW  EP  OW  HW  HW  EP  OW  HW  HW  EP  OW  HW  
HW  EP  OW  HW  HW  EP  OW  HW  HW  EP  OW  HW  HW  EP  OW  HW  HW  EP  OW  HW  
HW  EP  OW  HW  HW  EP  OW  HW  HW  EP  OW  HW  HW  EP  OW  HW  HW  EP  OW  HW  
HW  EP  OW  HW  HW  EP  OW  HW  HW  EP  OW  HW  HW  EP  OW  HW  HW  EP  OW  HW  
HW  EP  OW  HW  HW  EP  OW  HW  HW  EP  OW  HW  HW  EP  OW  HW  HW  EP  OW  HW  
HW  EP  OW  HW  HW  EP  OW  HW  HW  EP  OW  HW  HW  EP  OW  HW  HW  EP  OW  HW  
HW  EP  OW  HW  HW  EP  OW  HW  HW  EP  OW  HW  HW  EP  OW  HW  HW  EP  OW  HW  
HW  EP  OW  HW  HW  EP  OW  HW  HW  EP  OW  HW  HW  EP  OW  HW  HW  EP  OW  HW  
HW  EP  OW  HW  HW  EP  OW  HW  HW  EP  OW  HW  HW  EP  OW  HW  HW  EP  OW  HW  
HW  EP  OW  HW  HW  EP  OW  HW  HW  EP  OW  HW  HW  EP  OW  HW  HW  EP  OW  HW  
HW  EP  OW  HW  HW  EP  OW  HW  HW  EP  OW  HW  HW  EP  OW  HW  HW  EP  OW  HW  
HW  EP  OW  HW  HW  EP  OW  HW  HW  EP  OW  HW  HW  EP  OW  HW  HW  EP  OW  HW  
HW  EP  OW  HW  HW  EP  OW  HW  HW  EP  OW  HW  HW  EP  OW  HW  HW  EP  OW  HW  
HW  EP  OW  HW  HW  EP  OW  HW  HW  EP  OW  HW  HW  EP  OW  HW  HW  EP  OW  HW  
HW  EP  OW  HW  HW  EP  OW  HW  HW  EP  OW  HW  HW  EP  OW  HW  HW  EP  OW  HW  
HW  EP  OW  HW  HW  EP  OW  HW  HW  EP  OW  HW  HW  EP  OW  HW  HW  EP  OW  HW  
HW  EP  OW  HW  HW  EP  OW  HW  HW  EP  OW  HW  HW  EP  OW  HW  HW  EP  OW  HW  
HW  EP  OW  HW  HW  EP  OW  HW  HW  EP  OW  HW  HW  EP  OW  HW  HW  EP  OW  HW  
HW  EP  OW  HW  HW  EP  OW  HW  HW  EP  OW  HW  HW  EP  OW  HW  HW  EP  OW  HW  
HW  EP  OW  HW  HW  EP  OW  HW  HW  EP  OW  HW  HW  EP  OW  HW  HW  EP  OW  HW  
HW  EP  OW  HW  HW  EP  OW  HW  HW  EP  OW  HW  HW  EP  OW  HW  HW  EP  OW  HW  
HW  EP  OW  HW  HW  EP  OW  HW  HW  EP  OW  HW  HW  EP  OW  HW  HW  EP  OW  HW  
HW  EP  OW  HW  HW  EP  OW  HW  HW  EP  OW  HW  HW  EP  OW  HW  HW  EP  OW  HW  
HW  EP  OW  HW  HW  EP  OW  HW  HW  EP  OW  HW  HW  EP  OW  HW  HW  EP  OW  HW  
HW  EP  OW  HW  HW  EP  OW  HW  HW  EP  OW  HW  HW  EP  OW  HW  HW  EP  OW  HW  
HW  EP  OW  HW  HW  EP  OW  HW  HW  EP  OW  HW  HW  EP  OW  HW  HW  EP  OW  HW  
HW  EP  OW  HW  HW  EP  OW  HW  HW  EP  OW  HW  HW  EP  OW  HW  HW  EP  OW  HW  
HW  EP  OW  HW  HW  EP  OW  HW  HW  EP  OW  HW  HW  EP  OW  HW  HW  EP  OW  HW  
HW  EP  OW  HW  HW  EP  OW  HW  HW  EP  OW  HW  HW  EP  OW  HW  HW  EP  OW  HW  
HW  EP  OW  HW  HW  EP  OW  HW  HW  EP  OW  HW  HW  EP  OW  HW  HW  EP  OW  HW  
HW  EP  OW  HW  HW  EP  OW  HW  HW  EP  OW  HW  HW  EP  OW  HW  HW  EP  OW  HW  
HW  EP  OW  HW  HW  EP  OW  HW  HW  EP  OW  HW  HW  EP  OW  HW  HW  EP  OW  HW  
HW  EP  OW  HW  HW  EP  OW  HW  HW  EP  OW  HW  HW  EP  OW  HW  HW  EP  OW  HW  
HW  EP  OW  HW  HW  EP  OW  HW  HW  EP  OW  HW  HW  EP  OW  HW  HW  EP  OW  HW  
HW  EP  OW  HW  HW  EP  OW  HW  HW  EP  OW  HW  HW  EP  OW  HW  HW  EP  OW  HW  
HW  EP  OW  HW  HW  EP  OW  HW  HW  EP  OW  HW  HW  EP  OW  HW  HW  EP  OW  HW  
HW  EP  OW  HW  HW  EP  OW  HW  HW  EP  OW  HW  HW  EP  OW  HW  HW  EP  OW  HW  
HW  EP  OW  HW  HW  EP  OW  HW  HW  EP  OW  HW  HW  EP  OW  HW  HW  EP  OW  HW  
HW  EP  OW  HW  HW  EP  OW  HW  HW  EP  OW  HW  HW  EP  OW  HW  HW  EP  OW  HW  
HW  EP  OW  HW  HW  EP  OW  HW  HW  EP  OW  HW  HW  EP  OW  HW  HW  EP  OW  HW  
HW  EP  OW  HW  HW  EP  OW  HW  HW  EP  OW  HW  HW  EP  OW  HW  HW  EP  OW  HW  
HW  EP  OW  HW  HW  EP  OW  HW  HW  EP  OW  HW  HW  EP  OW  HW  HW  EP  OW  HW  
HW  EP  OW  HW  HW  EP  OW  HW  HW  EP  OW  HW  HW  EP  OW  HW  HW  EP  OW  HW  
HW  EP  OW  HW  HW  EP  OW  HW  HW  EP  OW  HW  HW  EP  OW  HW  HW  EP  OW  HW  
HW  EP  OW  HW  HW  EP  OW  HW  HW  EP  OW  HW  HW  EP  OW  HW  HW  EP  OW  HW  
HW  EP  OW  HW  HW  EP  OW  HW  HW  EP  OW  HW  HW  EP  OW  HW  HW  EP  OW  HW  
HW  EP  OW  HW  HW  EP  OW  HW  HW  EP  OW  HW  HW  EP  OW  HW  HW  EP  OW  HW  
HW  EP  OW  HW  HW  EP  OW  HW  HW  EP  OW  HW  HW  EP  OW  HW  HW  EP  OW  HW  
HW  EP  OW  HW  HW  EP  OW  HW  HW  EP  OW  HW  HW  EP  OW  HW  HW  EP  OW  HW  
HW  EP  OW  HW  HW  EP  OW  HW  HW  EP  OW  HW  HW  EP  OW  HW  HW  EP  OW  HW  
HW  EP  OW  HW  HW  EP  OW  HW  HW  EP  OW  HW  HW  EP  OW  HW  HW  EP  OW  HW  
HW  EP  OW  HW  HW  EP  OW  HW  HW  EP  OW  HW  HW  EP  OW  HW  HW  EP  OW  HW  
HW  EP  OW  HW  HW  EP  OW  HW  HW  EP  OW  HW  HW  EP  OW  HW  HW  EP  OW  HW  
HW  EP  OW  HW  HW  EP  OW  HW  HW  EP  OW  HW  HW  EP  OW  HW  HW  EP  OW  HW  
HW  EP  OW  HW  HW  EP  OW  HW  HW  EP  OW  HW  HW  EP  OW  HW  HW  EP  OW  HW  
HW  EP  OW  HW  HW  EP  OW  HW  HW  EP  OW  HW  HW  EP  OW  HW  HW  EP  OW  HW  
HW  EP  OW  HW  HW  EP  OW  HW  HW  EP  OW  HW  HW  EP  OW  HW  HW  EP  OW  HW  
HW  EP  OW  HW  HW  EP  OW  HW  HW  EP  OW  HW  HW  EP  OW  HW  HW  EP  OW  HW  
HW  EP  OW  HW  HW  EP  OW  HW  HW  EP  OW  HW  HW  EP  OW  HW  HW  EP  OW  HW  
HW  EP  OW  HW  HW  EP  OW  HW  HW  EP  OW  HW  HW  EP  OW  HW  HW  EP  OW  HW  
HW  EP  OW  HW  HW  EP  OW  HW  HW  EP  OW  HW  HW  EP  OW  HW  HW  EP  OW  HW  
HW  EP  OW  HW  HW  EP  OW  HW  HW  EP  OW  HW  HW  EP  OW  HW  HW  EP  OW  HW  
HW  EP  OW  HW  HW  EP  OW  HW  HW  EP  OW  HW  HW  EP  OW  HW  HW  EP  OW  HW  
HW  EP  OW  HW  HW  EP  OW  HW  HW  EP  OW  HW  HW  EP  OW  HW  HW  EP  OW  HW  
HW  EP  OW  HW  HW  EP  OW  HW  HW  EP  OW  HW  HW  EP  OW  HW  HW  EP  OW  HW  
HW  EP  OW  HW  HW  EP  OW  HW  HW  EP  OW  HW  HW  EP  OW  HW  HW  EP  OW  HW  
HW  EP  OW  HW  HW  EP  OW  HW  HW  EP  OW  HW  HW  EP  OW  HW  HW  EP  OW  HW  
HW  EP  OW  HW  HW  EP  OW  HW  HW  EP  OW  HW  HW  EP  OW  HW  HW  EP  OW  HW  
HW  EP  OW  HW  HW  EP  OW  HW  HW  EP  OW  HW  HW  EP  OW  HW  HW  EP  OW  HW  
HW  EP  OW  HW  HW  EP  OW  HW  HW  EP  OW  HW  HW  EP  OW  HW  HW  EP  OW  HW  
HW  EP  OW  HW  HW  EP  OW  HW  HW  EP  OW  HW  HW  EP  OW  HW  HW  EP  OW  HW  
HW  EP  OW  HW  HW  EP  OW  HW  HW  EP  OW  HW  HW  EP  OW  HW  HW  EP  OW  HW  
HW  EP  OW  HW  HW  EP  OW  HW  HW  EP  OW  HW  HW  EP  OW  HW  HW  EP  OW  HW  
HW  EP  OW  HW  HW  EP  OW  HW  HW  EP  OW  HW  HW  EP  OW  HW  HW  EP  OW  HW  
HW  EP  OW  HW  HW  EP  OW  HW  HW  EP  OW  HW  HW  EP  OW  HW  HW  EP  OW  HW  
HW  EP  OW  HW  HW  EP  OW  HW  HW  EP  OW  HW  HW  EP  OW  HW  HW  EP  OW  HW  
HW  EP  OW  HW  HW  EP  OW  HW  HW  EP  OW  HW  HW  EP  OW  HW  HW  EP  OW  HW  
HW  EP  OW  HW  HW  EP  OW  HW  HW  EP  OW  HW  HW  EP  OW  HW  HW  EP  OW  HW  
HW  EP  OW  HW  HW  EP  OW  HW  HW  EP  OW  HW  HW  EP  OW  HW  HW  EP  OW  HW  
HW  EP  OW  HW  HW  EP  OW  HW  HW  EP  OW  HW  HW  EP  OW  HW  HW  EP  OW  HW  
HW  EP  OW  HW  HW  EP  OW  HW  HW  EP  OW  HW  HW  EP  OW  HW  HW  EP  OW  HW  
HW  EP  OW  HW  HW  EP  OW  HW  HW  EP  OW  HW  HW  EP  OW  HW  HW  EP  OW  HW  
HW  EP  OW  HW  HW  EP  OW  HW  HW  EP  OW  HW  HW  EP  OW  HW  HW  EP  OW  HW  
HW  EP  OW  HW  HW  EP  OW  HW  HW  EP  OW  HW  HW  EP  OW  HW  HW  EP  OW  HW  
HW  EP  OW  HW  HW  EP  OW  HW  HW  EP  OW  HW  HW  EP  OW  HW  HW  EP  OW  HW  
HW  EP  OW  HW  HW  EP  OW  HW  HW  EP  OW  HW  HW  EP  OW  HW  HW  EP  OW  HW  
HW  EP  OW  HW  HW  EP  OW  HW  HW  EP  OW  HW  HW  EP  OW  HW  HW  EP  OW  HW  
HW  EP  OW  HW  HW  EP  OW  HW  HW  EP  OW  HW  HW  EP  OW  HW  HW  EP  OW  HW  
HW  EP  OW  HW  HW  EP  OW  HW  HW  EP  OW  HW  HW  EP  OW  HW  HW  EP  OW  HW  
HW  EP  OW  HW  HW  EP  OW  HW  HW  EP  OW  HW  HW  EP  OW  HW  HW  EP  OW  HW  
HW  EP  OW  HW  HW  EP  OW  HW  HW  EP  OW  HW  HW  EP  OW  HW  HW  EP  OW  HW  
HW  EP  OW  HW  HW  EP  OW  HW  HW  EP  OW  HW  HW  EP  OW  HW  HW  EP  OW  HW  
HW  EP  OW  HW  HW  EP  OW  HW  HW  EP  OW  HW  HW  EP  OW  HW  HW  EP  OW  HW  
HW  EP  OW  HW  HW  EP  OW  HW  HW  EP  OW  HW  HW  EP  OW  HW  HW  EP  OW  HW  
HW  EP  OW  HW  HW  EP  OW  HW  HW  EP  OW  HW  HW  EP  OW  HW  HW  EP  OW  HW  
HW  EP  OW  HW  HW  EP  OW  HW  HW  EP  OW  HW  HW  EP  OW  HW  HW  EP  OW  HW  
HW  EP  OW  HW  HW  EP  OW  HW  HW  EP  OW  HW  HW  EP  OW  HW  HW  EP  OW  HW  
HW  EP  OW  HW  HW  EP  OW  HW  HW  EP  OW  HW  HW  EP  OW  HW  HW  EP  OW  HW  
HW  EP  OW  HW  HW  EP  OW  HW  HW  EP  OW  HW  HW  EP  OW  HW  HW  EP  OW  HW  
HW  EP  OW  HW  HW  EP  OW  HW  HW  EP  OW  HW  HW  EP  OW  HW  HW  EP  OW  HW  
HW  EP  OW  HW  HW  EP  OW  HW  HW  EP  OW  HW  HW  EP  OW  HW  HW  EP  OW  HW  
HW  EP  OW  HW  HW  EP  OW  HW  HW  EP  OW  HW  HW  EP  OW  HW  HW  EP  OW  HW  
HW  EP  OW  HW  HW  EP  OW  HW  HW  EP  OW  HW  HW  EP  OW  HW  HW  EP  OW  HW  
HW  EP  OW  HW  HW  EP  OW  HW  HW  EP  OW  HW  HW  EP  OW  HW  HW  EP  OW  HW  
HW  EP  OW  HW  HW  EP  OW  HW  HW  EP  OW  HW  HW  EP  OW  HW  HW  EP  OW  HW  
HW  EP  OW  HW  HW  EP  OW  HW  HW  EP  OW  HW  HW  EP  OW  HW  HW  EP  OW  HW  
HW  EP  OW  HW  HW  EP  OW  HW  HW  EP  OW  HW  HW  EP  OW  HW  HW  EP  OW  HW  
HW  EP  OW  HW  HW  EP  OW  HW  HW  EP  OW  HW  HW  EP  OW  HW  HW  EP  OW  HW  
HW  EP  OW  HW  HW  EP  OW  HW  HW  EP  OW  HW  HW  EP  OW  HW  HW  EP  OW  HW  
HW  EP  OW  HW  HW  EP  OW  HW  HW  EP  OW  HW  HW  EP  OW  HW  HW  EP  OW  HW  
HW  EP  OW  HW  HW  EP  OW  HW  HW  EP  OW  HW  HW  EP  OW  HW  HW  EP  OW  HW  
HW  EP  OW  HW  HW  EP  OW  HW  HW  EP  OW  HW  HW  EP  OW  HW  HW  EP  OW  HW  
HW  EP  OW  HW  HW  EP  OW  HW  HW  EP  OW  HW  HW  EP  OW  HW  HW  EP  OW  HW  
HW  EP  OW  HW  HW  EP  OW  HW  HW  EP  OW  HW  HW  EP  OW  HW  HW  EP  OW  HW  
HW  EP  OW  HW  HW  EP  OW  HW  HW  EP  OW  HW  HW  EP  OW  HW  HW  EP  OW  HW  
HW  EP  OW  HW  HW  EP  OW  HW  HW  EP  OW  HW  HW  EP  OW  HW  HW  EP  OW  HW  
HW  EP  OW  HW  HW  EP  OW  HW  HW  EP  OW  HW  HW  EP  OW  HW  HW  EP  OW  HW  
HW  EP  OW  HW  HW  EP  OW  HW  HW  EP  OW  HW  HW  EP  OW  HW  HW  EP  OW  HW  
HW  EP  OW  HW  HW  EP  OW  HW  HW  EP  OW  HW  HW  EP  OW  HW  HW  EP  OW  HW  
HW  EP  OW  HW  HW  EP  OW  HW  HW  EP  OW  HW  HW  EP  OW  HW  HW  EP  OW  HW  
HW  EP  OW  HW  HW  EP  OW  HW  HW  EP  OW  HW  HW  EP  OW  HW  HW  EP  OW  HW  
HW  EP  OW  HW  HW  EP  OW  HW  HW  EP  OW  HW  HW  EP  OW  HW  HW  EP  OW  HW  
HW  EP  OW  HW  HW  EP  OW  HW  HW  EP  OW  HW  HW  EP  OW  HW  HW  EP  OW  HW  
HW  EP  OW  HW  HW  EP  OW  HW  HW  EP  OW  HW  HW  EP  OW  HW  HW  EP  OW  HW  
HW  EP  OW  HW  HW  EP  OW  HW  HW  EP  OW  HW  HW  EP  OW  HW  HW  EP  OW  HW  
HW  EP  OW  HW  HW  EP  OW  HW  HW  EP  OW  HW  HW  EP  OW  HW  HW  EP  OW  HW  
HW  EP  OW  HW  HW  EP  OW  HW  HW  EP  OW  HW  HW  EP  OW  HW  HW  EP  OW  HW  
HW  EP  OW  HW  HW  EP  OW  HW  HW  EP  OW  HW  HW  EP  OW  HW  HW  EP  OW  HW  
HW  EP  OW  HW  HW  EP  OW  HW  HW  EP  OW  HW  HW  EP  OW  HW  HW  EP  OW  HW  
HW  EP  OW  HW  HW  EP  OW  HW  HW  EP  OW  HW  HW  EP  OW  HW  HW  EP  OW  HW  
HW  EP  OW  HW  HW  EP  OW  HW  HW  EP  OW  HW  HW  EP  OW  HW  HW  EP  OW  HW  
HW  EP  OW  HW  HW  EP  OW  HW  HW  EP  OW  HW  HW  EP  OW  HW  HW  EP  OW  HW  
HW  EP  OW  HW  HW  EP  OW  HW  HW  EP  OW  HW  HW  EP  OW  HW  HW  EP  OW  HW  
HW  EP  OW  HW  HW  EP  OW  HW  HW  EP  OW  HW  HW  EP  OW  HW  HW  EP  OW  HW  
HW  EP  OW  HW  HW  EP  OW  HW  HW  EP  OW  HW  HW  EP  OW  HW  HW  EP  OW  HW  
HW  EP  OW  HW  HW  EP  OW  HW  HW  EP  OW  HW  HW  EP  OW  HW  HW  EP  OW  HW  
HW  EP  OW  HW  HW  EP  OW  HW  HW  EP  OW  HW  HW  EP  OW  HW  HW  EP  OW  HW  
HW  EP  OW  HW  HW  EP  OW  HW  HW  EP  OW  HW  HW  EP  OW  HW  HW  EP  OW  HW  
HW  EP  OW  HW  HW  EP  OW  HW  HW  EP  OW  HW  HW  EP  OW  HW  HW  EP  OW  HW  
HW  EP  OW  HW  HW  EP  OW  HW  HW  EP  OW  HW  HW  EP  OW  HW  HW  EP  OW  HW  
HW  EP  OW  HW  HW  EP  OW  HW  HW  EP  OW  HW  HW  EP  OW  HW  HW  EP  OW  HW  
HW  EP  OW  HW  HW  EP  OW  HW  HW  EP  OW  HW  HW  EP  OW  HW  HW  EP  OW  HW  
HW  EP  OW  HW  HW  EP  OW  HW  HW  EP  OW  HW  HW  EP  OW  HW  HW  EP  OW  HW  
HW  EP  OW  HW  HW  EP  OW  HW  HW  EP  OW  HW  HW  EP  OW  HW  HW  EP  OW  HW  
HW  EP  OW  HW  HW  EP  OW  HW  HW  EP  OW  HW  HW  EP  OW  HW  HW  EP  OW  HW  
HW  EP  OW  HW  HW  EP  OW  HW  HW  EP  OW  HW  HW  EP  OW  HW  HW  EP  OW  HW  
HW  EP  OW  HW  HW  EP  OW  HW  HW  EP  OW  HW  HW  EP  OW  HW  HW  EP  OW  HW  
HW  EP  OW  HW  HW  EP  OW  HW  HW  EP  OW  HW  HW  EP  OW  HW  HW  EP  OW  HW  
HW  EP  OW  HW  HW  EP  OW  HW  HW  EP  OW  HW  HW  EP  OW  HW  HW  EP  OW  HW  
HW  EP  OW  HW  HW  EP  OW  HW  HW  EP  OW  HW  HW  EP  OW  HW  HW  EP  OW  HW  
HW  EP  OW  HW  HW  EP  OW  HW  HW  EP  OW  HW  HW  EP  OW  HW  HW  EP  OW  HW  
HW  EP  OW  HW  HW  EP  OW  HW  HW  EP  OW  HW  HW  EP  OW  HW  HW  EP  OW  HW  
HW  EP  OW  HW  HW  EP  OW  HW  HW  EP  OW  HW  HW  EP  OW  HW  HW  EP  OW  HW  
HW  EP  OW  HW  HW  EP  OW  HW  HW  EP  OW  HW  HW  EP  OW  HW  HW  EP  OW  HW  
HW  EP  OW  HW  HW  EP  OW  HW  HW  EP  OW  HW  HW  EP  OW  HW  HW  EP  OW  HW  
HW  EP  OW  HW  HW  EP  OW  HW  HW  EP  OW  HW  HW  EP  OW  HW  HW  EP  OW  HW  
HW  EP  OW  HW  HW  EP  OW  HW  HW  EP  OW  HW  HW  EP  OW  HW  HW  EP  OW  HW  
HW  EP  OW  HW  HW  EP  OW  HW  HW  EP  OW  HW  HW  EP  OW  HW  HW  EP  OW  HW  
HW  EP  OW  HW  HW  EP  OW  HW  HW  EP  OW  HW  HW  EP  OW  HW  HW  EP  OW  HW  
HW  EP  OW  HW  HW  EP  OW  HW  HW  EP  OW  HW  HW  EP  OW  HW  HW  EP  OW  HW  
HW  EP  OW  HW  HW  EP  OW  HW  HW  EP  OW  HW  HW  EP  OW  HW  HW  EP  OW  HW  
HW  EP  OW  HW  HW  EP  OW  HW  HW  EP  OW  HW  HW  EP  OW  HW  HW  EP  OW  HW  
HW  EP  OW  HW  HW  EP  OW  HW  HW  EP  OW  HW  HW  EP  OW  HW  HW  EP  OW  HW  
HW  EP  OW  HW  HW  EP  OW  HW  HW  EP  OW  HW  HW  EP  OW  HW  HW  EP  OW  HW  
HW  EP  OW  HW  HW  EP  OW  HW  HW  EP  OW  HW  HW  EP  OW  HW  HW  EP  OW  HW  
HW  EP  OW  HW  HW  EP  OW  HW  HW  EP  OW  HW  HW  EP  OW  HW  HW  EP  OW  HW  
HW  EP  OW  HW  HW  EP  OW  HW  HW  EP  OW  HW  HW  EP  OW  HW  HW  EP  OW  HW  
HW  EP  OW  HW  HW  EP  OW  HW  HW  EP  OW  HW  HW  EP  OW  HW  HW  EP  OW  HW  
HW  EP  OW  HW  HW  EP  OW  HW  HW  EP  OW  HW  HW  EP  OW  HW  HW  EP  OW  HW  
HW  EP  OW  HW  HW  EP  OW  HW  HW  EP  OW  HW  HW  EP  OW  HW  HW  EP  OW  HW  
HW  EP  OW  HW  HW  EP  OW  HW  HW  EP  OW  HW  HW  EP  OW  HW  HW  EP  OW  HW  
HW  EP  OW  HW  HW  EP  OW  HW  HW  EP  OW  HW  HW  EP  OW  HW  HW  EP  OW  HW  
HW  EP  OW  HW  HW  EP  OW  HW  HW  EP  OW  HW  HW  EP  OW  HW  HW  EP  OW  HW  
HW  EP  OW  HW  HW  EP  OW  HW  HW  EP  OW  HW  HW  EP  OW  HW  HW  EP  OW  HW  
HW  EP  OW  HW  HW  EP  OW  HW  HW  EP  OW  HW  HW  EP  OW  HW  HW  EP  OW  HW  
HW  EP  OW  HW  HW  EP  OW  HW  HW  EP  OW  HW  HW  EP  OW  HW  HW  EP  OW  HW  
HW  EP  OW  HW  HW  EP  OW  HW  HW  EP  OW  HW  HW  EP  OW  HW  HW  EP  OW  HW  
HW  EP  OW  HW  HW  EP  OW  HW  HW  EP  OW  HW  HW  EP  OW  HW  HW  EP  OW  HW  
HW  EP  OW  HW  HW  EP  OW  HW  HW  EP  OW  HW  HW  EP  OW  HW  HW  EP  OW  HW  
HW  EP  OW  HW  HW  EP  OW  HW  HW  EP  OW  HW  HW  EP  OW  HW  HW  EP  OW  HW  
HW  EP  OW  HW  HW  EP  OW  HW  HW  EP  OW  HW  HW  EP  OW  HW  HW  EP  OW  HW  
HW  EP  OW  HW  HW  EP  OW  HW  HW  EP  OW  HW  HW  EP  OW  HW  HW  EP  OW  HW  
HW  EP  OW  HW  HW  EP  OW  HW  HW  EP  OW  HW  HW  EP  OW  HW  HW  EP  OW  HW  
HW  EP  OW  HW  HW  EP  OW  HW  HW  EP  OW  HW  HW  EP  OW  HW  HW  EP  OW  HW  
HW  EP  OW  HW  HW  EP  OW  HW  HW  EP  OW  HW  HW  EP  OW  HW  HW  EP  OW  HW  
HW  EP  OW  HW  HW  EP  OW  HW  HW  EP  OW  HW  HW  EP  OW  HW  HW  EP  OW  HW  
HW  EP  OW  HW  HW  EP  OW  HW  HW  EP  OW  HW  HW  EP  OW  HW  HW  EP  OW  HW  
HW  EP  OW  HW  HW  EP  OW  HW  HW  EP  OW  HW  HW  EP  OW  HW  HW  EP  OW  HW  
HW  EP  OW  HW  HW  EP  OW  HW  HW  EP  OW  HW  HW  EP  OW  HW  HW  EP  OW  HW  
HW  EP  OW  HW  HW  EP  OW  HW  HW  EP  OW  HW  HW  EP  OW  HW  HW  EP  OW  HW  
HW  EP  OW  HW  HW  EP  OW  HW  HW  EP  OW  HW  HW  EP  OW  HW  HW  EP  OW  HW  
HW  EP  OW  HW  HW  EP  OW  HW  HW  EP  OW  HW  HW  EP  OW  HW  HW  EP  OW  HW  
HW  EP  OW  HW  HW  EP  OW  HW  HW  EP  OW  HW  HW  EP  OW  HW  HW  EP  OW  HW  
HW  EP  OW  HW  HW  EP  OW  HW  HW  EP  OW  HW  HW  EP  OW  HW  HW  EP  OW  HW  
HW  EP  OW  HW  HW  EP  OW  HW  HW  EP  OW  HW  HW  EP  OW  HW  HW  EP  OW  HW  
HW  EP  OW  HW  HW  EP  OW  HW  HW  EP  OW  HW  HW  EP  OW  HW  HW  EP  OW  HW  
HW  EP  OW  HW  HW  EP  OW  HW  HW  EP  OW  HW  HW  EP  OW  HW  HW  EP  OW  HW  
HW  EP  OW  HW  HW  EP  OW  HW  HW  EP  OW  HW  HW  EP  OW  HW  HW  EP  OW  HW  
HW  EP  OW  HW  HW  EP  OW  HW  HW  EP  OW  HW  HW  EP  OW  HW  HW  EP  OW  HW  
HW  EP  OW  HW  HW  EP  OW  HW  HW  EP  OW  HW  HW  EP  OW  HW  HW  EP  OW  HW  
HW  EP  OW  HW  HW  EP  OW  HW  HW  EP  OW  HW  HW  EP  OW  HW  HW  EP  OW  HW  
HW  EP  OW  HW  HW  EP  OW  HW  HW  EP  OW  HW  HW  EP  OW  HW  HW  EP  OW  HW  
HW  EP  OW  HW  HW  EP  OW  HW  HW  EP  OW  HW  HW  EP  OW  HW  HW  EP  OW  HW  
HW  EP  OW  HW  HW  EP  OW  HW  HW  EP  OW  HW  HW  EP  OW  HW  HW  EP  OW  HW  
HW  EP  OW  HW  HW  EP  OW  HW  HW  EP  OW  HW  HW  EP  OW  HW  HW  EP  OW  HW  
HW  EP  OW  HW  HW  EP  OW  HW  HW  EP  OW  HW  HW  EP  OW  HW  HW  EP  OW  HW  
HW  EP  OW  HW  HW  EP  OW  HW  HW  EP  OW  HW  HW  EP  OW  HW  HW  EP  OW  HW  
HW  EP  OW  HW  HW  EP  OW  HW  HW  EP  OW  HW  HW  EP  OW  HW  HW  EP  OW  HW  
HW  EP  OW  HW  HW  EP  OW  HW  HW  EP  OW  HW  HW  EP  OW  HW  HW  EP  OW  HW  
HW  EP  OW  HW  HW  EP  OW  HW  HW  EP  OW  HW  HW  EP  OW  HW  HW  EP  OW  HW  
HW  EP  OW  HW  HW  EP  OW  HW  HW  EP  OW  HW  HW  EP  OW  HW  HW  EP  OW  HW  
HW  EP  OW  HW  HW  EP  OW  HW  HW  EP  OW  HW  HW  EP  OW  HW  HW  EP  OW  HW  
HW  EP  OW  HW  HW  EP  OW  HW  HW  EP  OW  HW  HW  EP  OW  HW  HW  EP  OW  HW  
HW  EP  OW  HW  HW  EP  OW  HW  HW  EP  OW  HW  HW  EP  OW  HW  HW  EP  OW  HW  
HW  EP  OW  HW  HW  EP  OW  HW  HW  EP  OW  HW  HW  EP  OW  HW  HW  EP  OW  HW  
HW  EP  OW  HW  HW  EP  OW  HW  HW  EP  OW  HW  HW  EP  OW  HW  HW  EP  OW  HW  
HW  EP  OW  HW  HW  EP  OW  HW  HW  EP  OW  HW  HW  EP  OW  HW  HW  EP  OW  HW  
HW  EP  OW  HW  HW  EP  OW  HW  HW  EP  OW  HW  HW  EP  OW  HW  HW  EP  OW  HW  
HW  EP  OW  HW  HW  EP  OW  HW  HW  EP  OW  HW  HW  EP  OW  HW  HW  EP  OW  HW  
HW  EP  OW  HW  HW  EP  OW  HW  HW  EP  OW  HW  HW  EP  OW  HW  HW  EP  OW  HW  
HW  EP  OW  HW  HW  EP  OW  HW  HW  EP  OW  HW  HW  EP  OW  HW  HW  EP  OW  HW  
HW  EP  OW  HW  HW  EP  OW  HW  HW  EP  OW  HW  HW  EP  OW  HW  HW  EP  OW  HW  
HW  EP  OW  HW  HW  EP  OW  HW  HW  EP  OW  HW  HW  EP  OW  HW  HW  EP  OW  HW  
HW  EP  OW  HW  HW  EP  OW  HW  HW  EP  OW  HW  HW  EP  OW  HW  HW  EP  OW  HW  
HW  EP  OW  HW  HW  EP  OW  HW  HW  EP  OW  HW  HW  EP  OW  HW  HW  EP  OW  HW  
HW  EP  OW  HW  HW  EP  OW  HW  HW  EP  OW  HW  HW  EP  OW  HW  HW  EP  OW  HW  
HW  EP  OW  HW  HW  EP  OW  HW  HW  EP  OW  HW  HW  EP  OW  HW  HW  EP  OW  HW  
HW  EP  OW  HW  HW  EP  OW  HW  HW  EP  OW  HW  HW  EP  OW  HW  HW  EP  OW  HW  
HW  EP  OW  HW  HW  EP  OW  HW  HW  EP  OW  HW  HW  EP  OW  HW  HW  EP  OW  HW  
HW  EP  OW  HW  HW  EP  OW  HW  HW  EP  OW  HW  HW  EP  OW  HW  HW  EP  OW  HW  
HW  EP  OW  HW  HW  EP  OW  HW  HW  EP  OW  HW  HW  EP  OW  HW  HW  EP  OW  HW  
HW  EP  OW  HW  HW  EP  OW  HW  HW  EP  OW  HW  HW  EP  OW  HW  HW  EP  OW  HW  
HW  EP  OW  HW  HW  EP  OW  HW  HW  EP  OW  HW  HW  EP  OW  HW  HW  EP  OW  HW  
HW  EP  OW  HW  HW  EP  OW  HW  HW  EP  OW  HW  HW  EP  OW  HW  HW  EP  OW  HW  
HW  EP  OW  HW  HW  EP  OW  HW  HW  EP  OW  HW  HW  EP  OW  HW  HW  EP  OW  HW  
HW  EP  OW  HW  HW  EP  OW  HW  HW  EP  OW  HW  HW  EP  OW  HW  HW  EP  OW  HW  
HW  EP  OW  HW  HW  EP  OW  HW  HW  EP  OW  HW  HW  EP  OW  HW  HW  EP  OW  HW  
HW  EP  OW  HW  HW  EP  OW  HW  HW  EP  OW  HW  HW  EP  OW  HW  HW  EP  OW  HW  
HW  EP  OW  HW  HW  EP  OW  HW  HW  EP  OW  HW  HW  EP  OW  HW  HW  EP  OW  HW  
HW  EP  OW  HW  HW  EP  OW  HW  HW  EP  OW  HW  HW  EP  OW  HW  HW  EP  OW  HW  
HW  EP  OW  HW  HW  EP  OW  HW  HW  EP  OW  HW  HW  EP  OW  HW  HW  EP  OW  HW  
HW  EP  OW  HW  HW  EP  OW  HW  HW  EP  OW  HW  HW  EP  OW  HW  HW  EP  OW  HW  
HW  EP  OW  HW  HW  EP  OW  HW  HW  EP  OW  HW  HW  EP  OW  HW  HW  EP  OW  HW  
HW  EP  OW  HW  HW  EP  OW  HW  HW  EP  OW  HW  HW  EP  OW  HW  HW  EP  OW  HW  
HW  EP  OW  HW  HW  EP  OW  HW  HW  EP  OW  HW  HW  EP  OW  HW  HW  EP  OW  HW  
HW  EP  OW  HW  HW  EP  OW  HW  HW  EP  OW  HW  HW  EP  OW  HW  HW  EP  OW  HW  
HW  EP  OW  HW  HW  EP  OW  HW  HW  EP  OW  HW  HW  EP  OW  HW  HW  EP  OW  HW  
HW  EP  OW  HW  HW  EP  OW  HW  HW  EP  OW  HW  HW  EP  OW  HW  HW  EP  OW  HW  
HW  EP  OW  HW  HW  EP  OW  HW  HW  EP  OW  HW  HW  EP  OW  HW  HW  EP  OW  HW  
HW  EP  OW  HW  HW  EP  OW  HW  HW  EP  OW  HW  HW  EP  OW  HW  HW  EP  OW  HW  
HW  EP  OW  HW  HW  EP  OW  HW  HW  EP  OW  HW  HW  EP  OW  HW  HW  EP  OW  HW  
HW  EP  OW  HW  HW  EP  OW  HW  HW  EP  OW  HW  HW  EP  OW  HW  HW  EP  OW  HW  
HW  EP  OW  HW  HW  EP  OW  HW  HW  EP  OW  HW  HW  EP  OW  HW  HW  EP  OW  HW  
HW  EP  OW  HW  HW  EP  OW  HW  HW  EP  OW  HW  HW  EP  OW  HW  HW  EP  OW  HW  
HW  EP  OW  HW  HW  EP  OW  HW  HW  EP  OW  HW  HW  EP  OW  HW  HW  EP  OW  HW  
HW  EP  OW  HW  HW  EP  OW  HW  HW  EP  OW  HW  HW  EP  OW  HW  HW  EP  OW  HW  
HW  EP  OW  HW  HW  EP  OW  HW  HW  EP  OW  HW  HW  EP  OW  HW  HW  EP  OW  HW  
HW  EP  OW  HW  HW  EP  OW  HW  HW  EP  OW  HW  HW  EP  OW  HW  HW  EP  OW  HW  
HW  EP  OW  HW  HW  EP  OW  HW  HW  EP  OW  HW  HW  EP  OW  HW  HW  EP  OW  HW  
HW  EP  OW  HW  HW  EP  OW  HW  HW  EP  OW  HW  HW  EP  OW  HW  HW  EP  OW  HW  
HW  EP  OW  HW  HW  EP  OW  HW  HW  EP  OW  HW  HW  EP  OW  HW  HW  EP  OW  HW  
HW  EP  OW  HW  HW  EP  OW  HW  HW  EP  OW  HW  HW  EP  OW  HW  HW  EP  OW  HW  
HW  EP  OW  HW  HW  EP  OW  HW  HW  EP  OW  HW  HW  EP  OW  HW  HW  EP  OW  HW  
HW  EP  OW  HW  HW  EP  OW  HW  HW  EP  OW  HW  HW  EP  OW  HW  HW  EP  OW  HW  
HW  EP  OW  HW  HW  EP  OW  HW  HW  EP  OW  HW  HW  EP  OW  HW  HW  EP  OW  HW  
HW  EP  OW  HW  HW  EP  OW  HW  HW  EP  OW  HW  HW  EP  OW  HW  HW  EP  OW  HW  
HW  EP  OW  HW  HW  EP  OW  HW  HW  EP  OW  HW  HW  EP  OW  HW  HW  EP  OW  HW  
HW  EP  OW  HW  HW  EP  OW  HW  HW  EP  OW  HW  HW  EP  OW  HW  HW  EP  OW  HW  
HW  EP  OW  HW  HW  EP  OW  HW  HW  EP  OW  HW  HW  EP  OW  HW  HW  EP  OW  HW  
HW  EP  OW  HW  HW  EP  OW  HW  HW  EP  OW  HW  HW  EP  OW  HW  HW  EP  OW  HW  
HW  EP  OW  HW  HW  EP  OW  HW  HW  EP  OW  HW  HW  EP  OW  HW  HW  EP  OW  HW  
HW  EP  OW  HW  HW  EP  OW  HW  HW  EP  OW  HW  HW  EP  OW  HW  HW  EP  OW  HW  
HW  EP  OW  HW  HW  EP  OW  HW  HW  EP  OW  HW  HW  EP  OW  HW  HW  EP  OW  HW  
HW  EP  OW  HW  HW  EP  OW  HW  HW  EP  OW  HW  HW  EP  OW  HW  HW  EP  OW  HW  
HW  EP  OW  HW  HW  EP  OW  HW  HW  EP  OW  HW  HW  EP  OW  HW  HW  EP  OW  HW  
HW  EP  OW  HW  HW  EP  OW  HW  HW  EP  OW  HW  HW  EP  OW  HW  HW  EP  OW  HW  
HW  EP  OW  HW  HW  EP  OW  HW  HW  EP  OW  HW  HW  EP  OW  HW  HW  EP  OW  HW  
HW  EP  OW  HW  HW  EP  OW  HW  HW  EP  OW  HW  HW  EP  OW  HW  HW  EP  OW  HW  
HW  EP  OW  HW  HW  EP  OW  HW  HW  EP  OW  HW  HW  EP  OW  HW  HW  EP  OW  HW  
HW  EP  OW  HW  HW  EP  OW  HW  HW  EP  OW  HW  HW  EP  OW  HW  HW  EP  OW  HW  
HW  EP  OW  HW  HW  EP  OW  HW  HW  EP  OW  HW  HW  EP  OW  HW  HW  EP  OW  HW  
HW  EP  OW  HW  HW  EP  OW  HW  HW  EP  OW  HW  HW  EP  OW  HW  HW  EP  OW  HW  
HW  EP  OW  HW  HW  EP  OW  HW  HW  EP  OW  HW  HW  EP  OW  HW  HW  EP  OW  HW  
HW  EP  OW  HW  HW  EP  OW  HW  HW  EP  OW  HW  HW  EP  OW  HW  HW  EP  OW  HW  
HW  EP  OW  HW  HW  EP  OW  HW  HW  EP  OW  HW  HW  EP  OW  HW  HW  EP  OW  HW  
HW  EP  OW  HW  HW  EP  OW  HW  HW  EP  OW  HW  HW  EP  OW  HW  HW  EP  OW  HW  
HW  EP  OW  HW  HW  EP  OW  HW  HW  EP  OW  HW  HW  EP  OW  HW  HW  EP  OW  HW  
HW  EP  OW  HW  HW  EP  OW  HW  HW  EP  OW  HW  HW  EP  OW  HW  HW  EP  OW  HW  
HW  EP  OW  HW  HW  EP  OW  HW  HW  EP  OW  HW  HW  EP  OW  HW  HW  EP  OW  HW  
HW  EP  OW  HW  HW  EP  OW  HW  HW  EP  OW  HW  HW  EP  OW  HW  HW  EP  OW  HW  
HW  EP  OW  HW  HW  EP  OW  HW  HW  EP  OW  HW  HW  EP  OW  HW  HW  EP  OW  HW  
HW  EP  OW  HW  HW  EP  OW  HW  HW  EP  OW  HW  HW  EP  OW  HW  HW  EP  OW  HW  
HW  EP  OW  HW  HW  EP  OW  HW  HW  EP  OW  HW  HW  EP  OW  HW  HW  EP  OW  HW  
HW  EP  OW  HW  HW  EP  OW  HW  HW  EP  OW  HW  HW  EP  OW  HW  HW  EP  OW  HW  
HW  EP  OW  HW  HW  EP  OW  HW  HW  EP  OW  HW  HW  EP  OW  HW  HW  EP  OW  HW  
HW  EP  OW  HW  HW  EP  OW  HW  HW  EP  OW  HW  HW  EP  OW  HW  HW  EP  OW  HW  
HW  EP  OW  HW  HW  EP  OW  HW  HW  EP  OW  HW  HW  EP  OW  HW  HW  EP  OW  HW  
HW  EP  OW  HW  HW  EP  OW  HW  HW  EP  OW  HW  HW  EP  OW  HW  HW  EP  OW  HW  
HW  EP  OW  HW  HW  EP  OW  HW  HW  EP  OW  HW  HW  EP  OW  HW  HW  EP  OW  HW  
HW  EP  OW  HW  HW  EP  OW  HW  HW  EP  OW  HW  HW  EP  OW  HW  HW  EP  OW  HW  
HW  EP  OW  HW  HW  EP  OW  HW  HW  EP  OW  HW  HW  EP  OW  HW  HW  EP  OW  HW  
HW  EP  OW  HW  HW  EP  OW  HW  HW  EP  OW  HW  HW  EP  OW  HW  HW  EP  OW  HW  
HW  EP  OW  HW  HW  EP  OW  HW  HW  EP  OW  HW  HW  EP  OW  HW  HW  EP  OW  HW  
HW  EP  OW  HW  HW  EP  OW  HW  HW  EP  OW  HW  HW  EP  OW  HW  HW  EP  OW  HW  
HW  EP  OW  HW  HW  EP  OW  HW  HW  EP  OW  HW  HW  EP  OW  HW  HW  EP  OW  HW  
HW  EP  OW  HW  HW  EP  OW  HW  HW  EP  OW  HW  HW  EP  OW  HW  HW  EP  OW  HW  
HW  EP  OW  HW  HW  EP  OW  HW  HW  EP  OW  HW  HW  EP  OW  HW  HW  EP  OW  HW  
HW  EP  OW  HW  HW  EP  OW  HW  HW  EP  OW  HW  HW  EP  OW  HW  HW  EP  OW  HW  
HW  EP  OW  HW  HW  EP  OW  HW  HW  EP  OW  HW  HW  EP  OW  HW  HW  EP  OW  HW  
HW  EP  OW  HW  HW  EP  OW  HW  HW  EP  OW  HW  HW  EP  OW  HW  HW  EP  OW  HW  
HW  EP  OW  HW  HW  EP  OW  HW  HW  EP  OW  HW  HW  EP  OW  HW  HW  EP  OW  HW  
HW  EP  OW  HW  HW  EP  OW  HW  HW  EP  OW  HW  HW  EP  OW  HW  HW  EP  OW  HW  
HW  EP  OW  HW  HW  EP  OW  HW  HW  EP  OW  HW  HW  EP  OW  HW  HW  EP  OW  HW  
HW  EP  OW  HW  HW  EP  OW  HW  HW  EP  OW  HW  HW  EP  OW  HW  HW  EP  OW  HW  
HW  EP  OW  HW  HW  EP  OW  HW  HW  EP  OW  HW  HW  EP  OW  HW  HW  EP  OW  HW  
HW  EP  OW  HW  HW  EP  OW  HW  HW  EP  OW  HW  HW  EP  OW  HW  HW  EP  OW  HW  
HW  EP  OW  HW  HW  EP  OW  HW  HW  EP  OW  HW  HW  EP  OW  HW  HW  EP  OW  HW  
HW  EP  OW  HW  HW  EP  OW  HW  HW  EP  OW  HW  HW  EP  OW  HW  HW  EP  OW  HW  
HW  EP  OW  HW  HW  EP  OW  HW  HW  EP  OW  HW  HW  EP  OW  HW  HW  EP  OW  HW  
HW  EP  OW  HW  HW  EP  OW  HW  HW  EP  OW  HW  HW  EP  OW  HW  HW  EP  OW  HW  
HW  EP  OW  HW  HW  EP  OW  HW  HW  EP  OW  HW  HW  EP  OW  HW  HW  EP  OW  HW  
HW  EP  OW  HW  HW  EP  OW  HW  HW  EP  OW  HW  HW  EP  OW  HW  HW  EP  OW  HW  
HW  EP  OW  HW  HW  EP  OW  HW  HW  EP  OW  HW  HW  EP  OW  HW  HW  EP  OW  HW  
HW  EP  OW  HW  HW  EP  OW  HW  HW  EP  OW  HW  HW  EP  OW  HW  HW  EP  OW  HW  
HW  EP  OW  HW  HW  EP  OW  HW  HW  EP  OW  HW  HW  EP  OW  HW  HW  EP  OW  HW  
HW  EP  OW  HW  HW  EP  OW  HW  HW  EP  OW  HW  HW  EP  OW  HW  HW  EP  OW  HW  
HW  EP  OW  HW  HW  EP  OW  HW  HW  EP  OW  HW  HW  EP  OW  HW  HW  EP  OW  HW  
HW  EP  OW  HW  HW  EP  OW  HW  HW  EP  OW  HW  HW  EP  OW  HW  HW  EP  OW  HW  
HW  EP  OW  HW  HW  EP  OW  HW  HW  EP  OW  HW  HW  EP  OW  HW  HW  EP  OW  HW  
HW  EP  OW  HW  HW  EP  OW  HW  HW  EP  OW  HW  HW  EP  OW  HW  HW  EP  OW  HW  
HW  EP  OW  HW  HW  EP  OW  HW  HW  EP  OW  HW  HW  EP  OW  HW  HW  EP  OW  HW  
HW  EP  OW  HW  HW  EP  OW  HW  HW  EP  OW  HW  HW  EP  OW  HW  HW  EP  OW  HW  
HW  EP  OW  HW  HW  EP  OW  HW  HW  EP  OW  HW  HW  EP  OW  HW  HW  EP  OW  HW  
HW  EP  OW  HW  HW  EP  OW  HW  HW  EP  OW  HW  HW  EP  OW  HW  HW  EP  OW  HW  
HW  EP  OW  HW  HW  EP  OW  HW  HW  EP  OW  HW  HW  EP  OW  HW  HW  EP  OW  HW  
HW  EP  OW  HW  HW  EP  OW  HW  HW  EP  OW  HW  HW  EP  OW  HW  HW  EP  OW  HW  
HW  EP  OW  HW  HW  EP  OW  HW  HW  EP  OW  HW  HW  EP  OW  HW  HW  EP  OW  HW  
HW  EP  OW  HW  HW  EP  OW  HW  HW  EP  OW  HW  HW  EP  OW  HW  HW  EP  OW  HW  
HW  EP  OW  HW  HW  EP  OW  HW  HW  EP  OW  HW  HW  EP  OW  HW  HW  EP  OW  HW  
HW  EP  OW  HW  HW  EP  OW  HW  HW  EP  OW  HW  HW  EP  OW  HW  HW  EP  OW  HW  
HW  EP  OW  HW  HW  EP  OW  HW  HW  EP  OW  HW  HW  EP  OW  HW  HW  EP  OW  HW  
HW  EP  OW  HW  HW  EP  OW  HW  HW  EP  OW  HW  HW  EP  OW  HW  HW  EP  OW  HW  
HW  EP  OW  HW  HW  EP  OW  HW  HW  EP  OW  HW  HW  EP  OW  HW  HW  EP  OW  HW  
HW  EP  OW  HW  HW  EP  OW  HW  HW  EP  OW  HW  HW  EP  OW  HW  HW  EP  OW  HW  
HW  EP  OW  HW  HW  EP  OW  HW  HW  EP  OW  HW  HW  EP  OW  HW  HW  EP  OW  HW  
HW  EP  OW  HW  HW  EP  OW  HW  HW  EP  OW  HW  HW  EP  OW  HW  HW  EP  OW  HW  
HW  EP  OW  HW  HW  EP  OW  HW  HW  EP  OW  HW  HW  EP  OW  HW  HW  EP  OW  HW  
HW  EP  OW  HW  HW  EP  OW  HW  HW  EP  OW  HW  HW  EP  OW  HW  HW  EP  OW  HW  
HW  EP  OW  HW  HW  EP  OW  HW  HW  EP  OW  HW  HW  EP  OW  HW  HW  EP  OW  HW  
HW  EP  OW  HW  HW  EP  OW  HW  HW  EP  OW  HW  HW  EP  OW  HW  HW  EP  OW  HW  
HW  EP  OW  HW  HW  EP  OW  HW  HW  EP  OW  HW  HW  EP  OW  HW  HW  EP  OW  HW  
HW  EP  OW  HW  HW  EP  OW  HW  HW  EP  OW  HW  HW  EP  OW  HW  HW  EP  OW  HW  
HW  EP  OW  HW  HW  EP  OW  HW  HW  EP  OW  HW  HW  EP  OW  HW  HW  EP  OW  HW  
HW  EP  OW  HW  HW  EP  OW  HW  HW  EP  OW  HW  HW  EP  OW  HW  HW  EP  OW  HW  
HW  EP  OW  HW  HW  EP  OW  HW  HW  EP  OW  HW  HW  EP  OW  HW  HW  EP  OW  HW  
HW  EP  OW  HW  HW  EP  OW  HW  HW  EP  OW  HW  HW  EP  OW  HW  HW  EP  OW  HW  
HW  EP  OW  HW  HW  EP  OW  HW  HW  EP  OW  HW  HW  EP  OW  HW  HW  EP  OW  HW  
HW  EP  OW  HW  HW  EP  OW  HW  HW  EP  OW  HW  HW  EP  OW  HW  HW  EP  OW  HW  
HW  EP  OW  HW  HW  EP  OW  HW  HW  EP  OW  HW  HW  EP  OW  HW  HW  EP  OW  HW  
HW  EP  OW  HW  HW  EP  OW  HW  HW  EP  OW  HW  HW  EP  OW  HW  HW  EP  OW  HW  
HW  EP  OW  HW  HW  EP  OW  HW  HW  EP  OW  HW  HW  EP  OW  HW  HW  EP  OW  HW  
HW  EP  OW  HW  HW  EP  OW  HW  HW  EP  OW  HW  HW  EP  OW  HW  HW  EP  OW  HW  
HW  EP  OW  HW  HW  EP  OW  HW  HW  EP  OW  HW  HW  EP  OW  HW  HW  EP  OW  HW  
HW  EP  OW  HW  HW  EP  OW  HW  HW  EP  OW  HW  HW  EP  OW  HW  HW  EP  OW  HW  
HW  EP  OW  HW  HW  EP  OW  HW  HW  EP  OW  HW  HW  EP  OW  HW  HW  EP  OW  HW  
HW  EP  OW  HW  HW  EP  OW  HW  HW  EP  OW  HW  HW  EP  OW  HW  HW  EP  OW  HW  
HW  EP  OW  HW  HW  EP  OW  HW  HW  EP  OW  HW  HW  EP  OW  HW  HW  EP  OW  HW  
HW  EP  OW  HW  HW  EP  OW  HW  HW  EP  OW  HW  HW  EP  OW  HW  HW  EP  OW  HW  
HW  EP  OW  HW  HW  EP  OW  HW  HW  EP  OW  HW  HW  EP  OW  HW  HW  EP  OW  HW  
HW  EP  OW  HW  HW  EP  OW  HW  HW  EP  OW  HW  HW  EP  OW  HW  HW  EP  OW  HW  
HW  EP  OW  HW  HW  EP  OW  HW  HW  EP  OW  HW  HW  EP  OW  HW  HW  EP  OW  HW  
HW  EP  OW  HW  HW  EP  OW  HW  HW  EP  OW  HW  HW  EP  OW  HW  HW  EP  OW  HW  
HW  EP  OW  HW  HW  EP  OW  HW  HW  EP  OW  HW  HW  EP  OW  HW  HW  EP  OW  HW  
HW  EP  OW  HW  HW  EP  OW  HW  HW  EP  OW  HW  HW  EP  OW  HW  HW  EP  OW  HW  
HW  EP  OW  HW  HW  EP  OW  HW  HW  EP  OW  HW  HW  EP  OW  HW  HW  EP  OW  HW  
HW  EP  OW  HW  HW  EP  OW  HW  HW  EP  OW  HW  HW  EP  OW  HW  HW  EP  OW  HW  
HW  EP  OW  HW  HW  EP  OW  HW  HW  EP  OW  HW  HW  EP  OW  HW  HW  EP  OW  HW  
HW  EP  OW  HW  HW  EP  OW  HW  HW  EP  OW  HW  HW  EP  OW  HW  HW  EP  OW  HW  
HW  EP  OW  HW  HW  EP  OW  HW  HW  EP  OW  HW  HW  EP  OW  HW  HW  EP  OW  HW  
HW  EP  OW  HW  HW  EP  OW  HW  HW  EP  OW  HW  HW  EP  OW  HW  HW  EP  OW  HW  
HW  EP  OW  HW  HW  EP  OW  HW  HW  EP  OW  HW  HW  EP  OW  HW  HW  EP  OW  HW  
HW  EP  OW  HW  HW  EP  OW  HW  HW  EP  OW  HW  HW  EP  OW  HW  HW  EP  OW  HW  
HW  EP  OW  HW  HW  EP  OW  HW  HW  EP  OW  HW  HW  EP  OW  HW  HW  EP  OW  HW  
HW  EP  OW  HW  HW  EP  OW  HW  HW  EP  OW  HW  HW  EP  OW  HW  HW  EP  OW  HW  
HW  EP  OW  HW  HW  EP  OW  HW  HW  EP  OW  HW  HW  EP  OW  HW  HW  EP  OW  HW  
HW  EP  OW  HW  HW  EP  OW  HW  HW  EP  OW  HW  HW  EP  OW  HW  HW  EP  OW  HW  
HW  EP  OW  HW  HW  EP  OW  HW  HW  EP  OW  HW  HW  EP  OW  HW  HW  EP  OW  HW  
HW  EP  OW  HW  HW  EP  OW  HW  HW  EP  OW  HW  HW  EP  OW  HW  HW  EP  OW  HW  
HW  EP  OW  HW  HW  EP  OW  HW  HW  EP  OW  HW  HW  EP  OW  HW  HW  EP  OW  HW  
HW  EP  OW  HW  HW  EP  OW  HW  HW  EP  OW  HW  HW  EP  OW  HW  HW  EP  OW  HW  
HW  EP  OW  HW  HW  EP  OW  HW  HW  EP  OW  HW  HW  EP  OW  HW  HW  EP  OW  HW  
HW  EP  OW  HW  HW  EP  OW  HW  HW  EP  OW  HW  HW  EP  OW  HW  HW  EP  OW  HW  
HW  EP  OW  HW  HW  EP  OW  HW  HW  EP  OW  HW  HW  EP  OW  HW  HW  EP  OW  HW  
HW  EP  OW  HW  HW  EP  OW  HW  HW  EP  OW  HW  HW  EP  OW  HW  HW  EP  OW  HW  
HW  EP  OW  HW  HW  EP  OW  HW  HW  EP  OW  HW  HW  EP  OW  HW  HW  EP  OW  HW  
HW  EP  OW  HW  HW  EP  OW  HW  HW  EP  OW  HW  HW  EP  OW  HW  HW  EP  OW  HW  
HW  EP  OW  HW  HW  EP  OW  HW  HW  EP  OW  HW  HW  EP  OW  HW  HW  EP  OW  HW  
HW  EP  OW  HW  HW  EP  OW  HW  HW  EP  OW  HW  HW  EP  OW  HW  HW  EP  OW  HW  
HW  EP  OW  HW  HW  EP  OW  HW  HW  EP  OW  HW  HW  EP  OW  HW  HW  EP  OW  HW  
HW  EP  OW  HW  HW  EP  OW  HW  HW  EP  OW  HW  HW  EP  OW  HW  HW  EP  OW  HW  
HW  EP  OW  HW  HW  EP  OW  HW  HW  EP  OW  HW  HW  EP  OW  HW  HW  EP  OW  HW  
HW  EP  OW  HW  HW  EP  OW  HW  HW  EP  OW  HW  HW  EP  OW  HW  HW  EP  OW  HW  
HW  EP  OW  HW  HW  EP  OW  HW  HW  EP  OW  HW  HW  EP  OW  HW  HW  EP  OW  HW  
HW  EP  OW  HW  HW  EP  OW  HW  HW  EP  OW  HW  HW  EP  OW  HW  HW  EP  OW  HW  
HW  EP  OW  HW  HW  EP  OW  HW  HW  EP  OW  HW  HW  EP  OW  HW  HW  EP  OW  HW  
HW  EP  OW  HW  HW  EP  OW  HW  HW  EP  OW  HW  HW  EP  OW  HW  HW  EP  OW  HW  
HW  EP  OW  HW  HW  EP  OW  HW  HW  EP  OW  HW  HW  EP  OW  HW  HW  EP  OW  HW  
HW  EP  OW  HW  HW  EP  OW  HW  HW  EP  OW  HW  HW  EP  OW  HW  HW  EP  OW  HW  
HW  EP  OW  HW  HW  EP  OW  HW  HW  EP  OW  HW  HW  EP  OW  HW  HW  EP  OW  HW  
HW  EP  OW  HW  HW  EP  OW  HW  HW  EP  OW  HW  HW  EP  OW  HW  HW  EP  OW  HW  
HW  EP  OW  HW  HW  EP  OW  HW  HW  EP  OW  HW  HW  EP  OW  HW  HW  EP  OW  HW  
HW  EP  OW  HW  HW  EP  OW  HW  HW  EP  OW  HW  HW  EP  OW  HW  HW  EP  OW  HW  
HW  EP  OW  HW  HW  EP  OW  HW  HW  EP  OW  HW  HW  EP  OW  HW  HW  EP  OW  HW  
HW  EP  OW  HW  HW  EP  OW  HW  HW  EP  OW  HW  HW  EP  OW  HW  HW  EP  OW  HW  
HW  EP  OW  HW  HW  EP  OW  HW  HW  EP  OW  HW  HW  EP  OW  HW  HW  EP  OW  HW  
HW  EP  OW  HW  HW  EP  OW  HW  HW  EP  OW  HW  HW  EP  OW  HW  HW  EP  OW  HW  
HW  EP  OW  HW  HW  EP  OW  HW  HW  EP  OW  HW  HW  EP  OW  HW  HW  EP  OW  HW  
HW  EP  OW  HW  HW  EP  OW  HW  HW  EP  OW  HW  HW  EP  OW  HW  HW  EP  OW  HW  
HW  EP  OW  HW  HW  EP  OW  HW  HW  EP  OW  HW  HW  EP  OW  HW  HW  EP  OW  HW  
HW  EP  OW  HW  HW  EP  OW  HW  HW  EP  OW  HW  HW  EP  OW  HW  HW  EP  OW  HW  
HW  EP  OW  HW  HW  EP  OW  HW  HW  EP  OW  HW  HW  EP  OW  HW  HW  EP  OW  HW  
HW  EP  OW  HW  HW  EP  OW  HW  HW  EP  OW  HW  HW  EP  OW  HW  HW  EP  OW  HW  
HW  EP  OW  HW  HW  EP  OW  HW  HW  EP  OW  HW  HW  EP  OW  HW  HW  EP  OW  HW  
HW  EP  OW  HW  HW  EP  OW  HW  HW  EP  OW  HW  HW  EP  OW  HW  HW  EP  OW  HW  
HW  EP  OW  HW  HW  EP  OW  HW  HW  EP  OW  HW  HW  EP  OW  HW  HW  EP  OW  HW  
HW  EP  OW  HW  HW  EP  OW  HW  HW  EP  OW  HW  HW  EP  OW  HW  HW  EP  OW  HW  
HW  EP  OW  HW  HW  EP  OW  HW  HW  EP  OW  HW  HW  EP  OW  HW  HW  EP  OW  HW  
HW  EP  OW  HW  HW  EP  OW  HW  HW  EP  OW  HW  HW  EP  OW  HW  HW  EP  OW  HW  
HW  EP  OW  HW  HW  EP  OW  HW  HW  EP  OW  HW  HW  EP  OW  HW  HW  EP  OW  HW  
HW  EP  OW  HW  HW  EP  OW  HW  HW  EP  OW  HW  HW  EP  OW  HW  HW  EP  OW  HW  
HW  EP  OW  HW  HW  EP  OW  HW  HW  EP  OW  HW  HW  EP  OW  HW  HW  EP  OW  HW  
HW  EP  OW  HW  HW  EP  OW  HW  HW  EP  OW  HW  HW  EP  OW  HW  HW  EP  OW  HW  
HW  EP  OW  HW  HW  EP  OW  HW  HW  EP  OW  HW  HW  EP  OW  HW  HW  EP  OW  HW  
HW  EP  OW  HW  HW  EP  OW  HW  HW  EP  OW  HW  HW  EP  OW  HW  HW  EP  OW  HW  
HW  EP  OW  HW  HW  EP  OW  HW  HW  EP  OW  HW  HW  EP  OW  HW  HW  EP  OW  HW  
HW  EP  OW  HW  HW  EP  OW  HW  HW  EP  OW  HW  HW  EP  OW  HW  HW  EP  OW  HW  
HW  EP  OW  HW  HW  EP  OW  HW  HW  EP  OW  HW  HW  EP  OW  HW  HW  EP  OW  HW  
HW  EP  OW  HW  HW  EP  OW  HW  HW  EP  OW  HW  HW  EP  OW  HW  HW  EP  OW  HW  
HW  EP  OW  HW  HW  EP  OW  HW  HW  EP  OW  HW  HW  EP  OW  HW  HW  EP  OW  HW  
HW  EP  OW  HW  HW  EP  OW  HW  HW  EP  OW  HW  HW  EP  OW  HW  HW  EP  OW  HW  
HW  EP  OW  HW  HW  EP  OW  HW  HW  EP  OW  HW  HW  EP  OW  HW  HW  EP  OW  HW  
HW  EP  OW  HW  HW  EP  OW  HW  HW  EP  OW  HW  HW  EP  OW  HW  HW  EP  OW  HW  
HW  EP  OW  HW  HW  EP  OW  HW  HW  EP  OW  HW  HW  EP  OW  HW  HW  EP  OW  HW  
HW  EP  OW  HW  HW  EP  OW  HW  HW  EP  OW  HW  HW  EP  OW  HW  HW  EP  OW  HW  
HW  EP  OW  HW  HW  EP  OW  HW  HW  EP  OW  HW  HW  EP  OW  HW  HW  EP  OW  HW  
HW  EP  OW  HW  HW  EP  OW  HW  HW  EP  OW  HW  HW  EP  OW  HW  HW  EP  OW  HW  
HW  EP  OW  HW  HW  EP  OW  HW  HW  EP  OW  HW  HW  EP  OW  HW  HW  EP  OW  HW  
HW  EP  OW  HW  HW  EP  OW  HW  HW  EP  OW  HW  HW  EP  OW  HW  HW  EP  OW  HW  
HW  EP  OW  HW  HW  EP  OW  HW  HW  EP  OW  HW  HW  EP  OW  HW  HW  EP  OW  HW  
HW  EP  OW  HW  HW  EP  OW  HW  HW  EP  OW  HW  HW  EP  OW  HW  HW  EP  OW  HW  
HW  EP  OW  HW  HW  EP  OW  HW  HW  EP  OW  HW  HW  EP  OW  HW  HW  EP  OW  HW  
HW  EP  OW  HW  HW  EP  OW  HW  HW  EP  OW  HW  HW  EP  OW  HW  HW  EP  OW  HW  
HW  EP  OW  HW  HW  EP  OW  HW  HW  EP  OW  HW  HW  EP  OW  HW  HW  EP  OW  HW  
HW  EP  OW  HW  HW  EP  OW  HW  HW  EP  OW  HW  HW  EP  OW  HW  HW  EP  OW  HW  
HW  EP  OW  HW  HW  EP  OW  HW  HW  EP  OW  HW  HW  EP  OW  HW  HW  EP  OW  HW  
HW  EP  OW  HW  HW  EP  OW  HW  HW  EP  OW  HW  HW  EP  OW  HW  HW  EP  OW  HW  
HW  EP  OW  HW  HW  EP  OW  HW  HW  EP  OW  HW  HW  EP  OW  HW  HW  EP  OW  HW  
HW  EP  OW  HW  HW  EP  OW  HW  HW  EP  OW  HW  HW  EP  OW  HW  HW  EP  OW  HW  
HW  EP  OW  HW  HW  EP  OW  HW  HW  EP  OW  HW  HW  EP  OW  HW  HW  EP  OW  HW  
HW  EP  OW  HW  HW  EP  OW  HW  HW  EP  OW  HW  HW  EP  OW  HW  HW  EP  OW  HW  
HW  EP  OW  HW  HW  EP  OW  HW  HW  EP  OW  HW  HW  EP  OW  HW  HW  EP  OW  HW  
HW  EP  OW  HW  HW  EP  OW  HW  HW  EP  OW  HW  HW  EP  OW  HW  HW  EP  OW  HW  
HW  EP  OW  HW  HW  EP  OW  HW  HW  EP  OW  HW  HW  EP  OW  HW  HW  EP  OW  HW  
HW  EP  OW  HW  HW  EP  OW  HW  HW  EP  OW  HW  HW  EP  OW  HW  HW  EP  OW  HW  
HW  EP  OW  HW  HW  EP  OW  HW  HW  EP  OW  HW  HW  EP  OW  HW  HW  EP  OW  HW  
HW  EP  OW  HW  HW  EP  OW  HW  HW  EP  OW  HW  HW  EP  OW  HW  HW  EP  OW  HW  
HW  EP  OW  HW  HW  EP  OW  HW  HW  EP  OW  HW  HW  EP  OW  HW  HW  EP  OW  HW  
HW  EP  OW  HW  HW  EP  OW  HW  HW  EP  OW  HW  HW  EP  OW  HW  HW  EP  OW  HW  
HW  EP  OW  HW  HW  EP  OW  HW  HW  EP  OW  HW  HW  EP  OW  HW  HW  EP  OW  HW  
HW  EP  OW  HW  HW  EP  OW  HW  HW  EP  OW  HW  HW  EP  OW  HW  HW  EP  OW  HW  
HW  EP  OW  HW  HW  EP  OW  HW  HW  EP  OW  HW  HW  EP  OW  HW  HW  EP  OW  HW  
HW  EP  OW  HW  HW  EP  OW  HW  HW  EP  OW  HW  HW  EP  OW  HW  HW  EP  OW  HW  
HW  EP  OW  HW  HW  EP  OW  HW  HW  EP  OW  HW  HW  EP  OW  HW  HW  EP  OW  HW  
HW  EP  OW  HW  HW  EP  OW  HW  HW  EP  OW  HW  HW  EP  OW  HW  HW  EP  OW  HW  
HW  EP  OW  HW  HW  EP  OW  HW  HW  EP  OW  HW  HW  EP  OW  HW  HW  EP  OW  HW  
HW  EP  OW  HW  HW  EP  OW  HW  HW  EP  OW  HW  HW  EP  OW  HW  HW  EP  OW  HW  
HW  EP  OW  HW  HW  EP  OW  HW  HW  EP  OW  HW  HW  EP  OW  HW  HW  EP  OW  HW  
HW  EP  OW  HW  HW  EP  OW  HW  HW  EP  OW  HW  HW  EP  OW  HW  HW  EP  OW  HW  
HW  EP  OW  HW  HW  EP  OW  HW  HW  EP  OW  HW  HW  EP  OW  HW  HW  EP  OW  HW  
HW  EP  OW  HW  HW  EP  OW  HW  HW  EP  OW  HW  HW  EP  OW  HW  HW  EP  OW  HW  
HW  EP  OW  HW  HW  EP  OW  HW  HW  EP  OW  HW  HW  EP  OW  HW  HW  EP  OW  HW  
HW  EP  OW  HW  HW  EP  OW  HW  HW  EP  OW  HW  HW  EP  OW  HW  HW  EP  OW  HW  
HW  EP  OW  HW  HW  EP  OW  HW  HW  EP  OW  HW  HW  EP  OW  HW  HW  EP  OW  HW  
HW  EP  OW  HW  HW  EP  OW  HW  HW  EP  OW  HW  HW  EP  OW  HW  HW  EP  OW  HW  
HW  EP  OW  HW  HW  EP  OW  HW  HW  EP  OW  HW  HW  EP  OW  HW  HW  EP  OW  HW  
HW  EP  OW  HW  HW  EP  OW  HW  HW  EP  OW  HW  HW  EP  OW  HW  HW  EP  OW  HW  
HW  EP  OW  HW  HW  EP  OW  HW  HW  EP  OW  HW  HW  EP  OW  HW  HW  EP  OW  HW  
HW  EP  OW  HW  HW  EP  OW  HW  HW  EP  OW  HW  HW  EP  OW  HW  HW  EP  OW  HW  
HW  EP  OW  HW  HW  EP  OW  HW  HW  EP  OW  HW  HW  EP  OW  HW  HW  EP  OW  HW  
HW  EP  OW  HW  HW  EP  OW  HW  HW  EP  OW  HW  HW  EP  OW  HW  HW  EP  OW  HW  
HW  EP  OW  HW  HW  EP  OW  HW  HW  EP  OW  HW  HW  EP  OW  HW  HW  EP  OW  HW  
HW  EP  OW  HW  HW  EP  OW  HW  HW  EP  OW  HW  HW  EP  OW  HW  HW  EP  OW  HW  
HW  EP  OW  HW  HW  EP  OW  HW  HW  EP  OW  HW  HW  EP  OW  HW  HW  EP  OW  HW  
HW  EP  OW  HW  HW  EP  OW  HW  HW  EP  OW  HW  HW  EP  OW  HW  HW  EP  OW  HW  
HW  EP  OW  HW  HW  EP  OW  HW  HW  EP  OW  HW  HW  EP  OW  HW  HW  EP  OW  HW  
HW  EP  OW  HW  HW  EP  OW  HW  HW  EP  OW  HW  HW  EP  OW  HW  HW  EP  OW  HW  
HW  EP  OW  HW  HW  EP  OW  HW  HW  EP  OW  HW  HW  EP  OW  HW  HW  EP  OW  HW  
HW  EP  OW  HW  HW  EP  OW  HW  HW  EP  OW  HW  HW  EP  OW  HW  HW  EP  OW  HW  
HW  EP  OW  HW  HW  EP  OW  HW  HW  EP  OW  HW  HW  EP  OW  HW  HW  EP  OW  HW  
HW  EP  OW  HW  HW  EP  OW  HW  HW  EP  OW  HW  HW  EP  OW  HW  HW  EP  OW  HW  
HW  EP  OW  HW  HW  EP  OW  HW  HW  EP  OW  HW  HW  EP  OW  HW  HW  EP  OW  HW  
HW  EP  OW  HW  HW  EP  OW  HW  HW  EP  OW  HW  HW  EP  OW  HW  HW  EP  OW  HW  
HW  EP  OW  HW  HW  EP  OW  HW  HW  EP  OW  HW  HW  EP  OW  HW  HW  EP  OW  HW  
HW  EP  OW  HW  HW  EP  OW  HW  HW  EP  OW  HW  HW  EP  OW  HW  HW  EP  OW  HW  
HW  EP  OW  HW  HW  EP  OW  HW  HW  EP  OW  HW  HW  EP  OW  HW  HW  EP  OW  HW  
HW  EP  OW  HW  HW  EP  OW  HW  HW  EP  OW  HW  HW  EP  OW  HW  HW  EP  OW  HW  
HW  EP  OW  HW  HW  EP  OW  HW  HW  EP  OW  HW  HW  EP  OW  HW  HW  EP  OW  HW  
HW  EP  OW  HW  HW  EP  OW  HW  HW  EP  OW  HW  HW  EP  OW  HW  HW  EP  OW  HW  
HW  EP  OW  HW  HW  EP  OW  HW  HW  EP  OW  HW  HW  EP  OW  HW  HW  EP  OW  HW  
HW  EP  OW  HW  HW  EP  OW  HW  HW  EP  OW  HW  HW  EP  OW  HW  HW  EP  OW  HW  
HW  EP  OW  HW  HW  EP  OW  HW  HW  EP  OW  HW  HW  EP  OW  HW  HW  EP  OW  HW  
HW  EP  OW  HW  HW  EP  OW  HW  HW  EP  OW  HW  HW  EP  OW  HW  HW  EP  OW  HW  
HW  EP  OW  HW  HW  EP  OW  HW  HW  EP  OW  HW  HW  EP  OW  HW  HW  EP  OW  HW  
HW  EP  OW  HW  HW  EP  OW  HW  HW  EP  OW  HW  HW  EP  OW  HW  HW  EP  OW  HW  
HW  EP  OW  HW  HW  EP  OW  HW  HW  EP  OW  HW  HW  EP  OW  HW  HW  EP  OW  HW  
HW  EP  OW  HW  HW  EP  OW  HW  HW  EP  OW  HW  HW  EP  OW  HW  HW  EP  OW  HW  
HW  EP  OW  HW  HW  EP  OW  HW  HW  EP  OW  HW  HW  EP  OW  HW  HW  EP  OW  HW  
HW  EP  OW  HW  HW  EP  OW  HW  HW  EP  OW  HW  HW  EP  OW  HW  HW  EP  OW  HW  
HW  EP  OW  HW  HW  EP  OW  HW  HW  EP  OW  HW  HW  EP  OW  HW  HW  EP  OW  HW  
HW  EP  OW  HW  HW  EP  OW  HW  HW  EP  OW  HW  HW  EP  OW  HW  HW  EP  OW  HW  
HW  EP  OW  HW  HW  EP  OW  HW  HW  EP  OW  HW  HW  EP  OW  HW  HW  EP  OW  HW  
HW  EP  OW  HW  HW  EP  OW  HW  HW  EP  OW  HW  HW  EP  OW  HW  HW  EP  OW  HW  
HW  EP  OW  HW  HW  EP  OW  HW  HW  EP  OW  HW  HW  EP  OW  HW  HW  EP  OW  HW  
HW  EP  OW  HW  HW  EP  OW  HW  HW  EP  OW  HW  HW  EP  OW  HW  HW  EP  OW  HW  
HW  EP  OW  HW  HW  EP  OW  HW  HW  EP  OW  HW  HW  EP  OW  HW  HW  EP  OW  HW  
HW  EP  OW  HW  HW  EP  OW  HW  HW  EP  OW  HW  HW  EP  OW  HW  HW  EP  OW  HW  
HW  EP  OW  HW  HW  EP  OW  HW  HW  EP  OW  HW  HW  EP  OW  HW  HW  EP  OW  HW  
HW  EP  OW  HW  HW  EP  OW  HW  HW  EP  OW  HW  HW  EP  OW  HW  HW  EP  OW  HW  
HW  EP  OW  HW  HW  EP  OW  HW  HW  EP  OW  HW  HW  EP  OW  HW  HW  EP  OW  HW  
HW  EP  OW  HW  HW  EP  OW  HW  HW  EP  OW  HW  HW  EP  OW  HW  HW  EP  OW  HW  
HW  EP  OW  HW  HW  EP  OW  HW  HW  EP  OW  HW  HW  EP  OW  HW  HW  EP  OW  HW  
HW  EP  OW  HW  HW  EP  OW  HW  HW  EP  OW  HW  HW  EP  OW  HW  HW  EP  OW  HW  
HW  EP  OW  HW  HW  EP  OW  HW  HW  EP  OW  HW  HW  EP  OW  HW  HW  EP  OW  HW  
HW  EP  OW  HW  HW  EP  OW  HW  HW  EP  OW  HW  HW  EP  OW  HW  HW  EP  OW  HW  
HW  EP  OW  HW  HW  EP  OW  HW  HW  EP  OW  HW  HW  EP  OW  HW  HW  EP  OW  HW  
HW  EP  OW  HW  HW  EP  OW  HW  HW  EP  OW  HW  HW  EP  OW  HW  HW  EP  OW  HW  
HW  EP  OW  HW  HW  EP  OW  HW  HW  EP  OW  HW  HW  EP  OW  HW  HW  EP  OW  HW  
HW  EP  OW  HW  HW  EP  OW  HW  HW  EP  OW  HW  HW  EP  OW  HW  HW  EP  OW  HW  
HW  EP  OW  HW  HW  EP  OW  HW  HW  EP  OW  HW  HW  EP  OW  HW  HW  EP  OW  HW  
HW  EP  OW  HW  HW  EP  OW  HW  HW  EP  OW  HW  HW  EP  OW  HW  HW  EP  OW  HW  
HW  EP  OW  HW  HW  EP  OW  HW  HW  EP  OW  HW  HW  EP  OW  HW  HW  EP  OW  HW  
HW  EP  OW  HW  HW  EP  OW  HW  HW  EP  OW  HW  HW  EP  OW  HW  HW  EP  OW  HW  
HW  EP  OW  HW  HW  EP  OW  HW  HW  EP  OW  HW  HW  EP  OW  HW  HW  EP  OW  HW  
HW  EP  OW  HW  HW  EP  OW  HW  HW  EP  OW  HW  HW  EP  OW  HW  HW  EP  OW  HW  
HW  EP  OW  HW  HW  EP  OW  HW  HW  EP  OW  HW  HW  EP  OW  HW  HW  EP  OW  HW  
HW  EP  OW  HW  HW  EP  OW  HW  HW  EP  OW  HW  HW  EP  OW  HW  HW  EP  OW  HW  
HW  EP  OW  HW  HW  EP  OW  HW  HW  EP  OW  HW  HW  EP  OW  HW  HW  EP  OW  HW  
HW  EP  OW  HW  HW  EP  OW  HW  HW  EP  OW  HW  HW  EP  OW  HW  HW  EP  OW  HW  
HW  EP  OW  HW  HW  EP  OW  HW  HW  EP  OW  HW  HW  EP  OW  HW  HW  EP  OW  HW  
HW  EP  OW  HW  HW  EP  OW  HW  HW  EP  OW  HW  HW  EP  OW  HW  HW  EP  OW  HW  
HW  EP  OW  HW  HW  EP  OW  HW  HW  EP  OW  HW  HW  EP  OW  HW  HW  EP  OW  HW  
HW  EP  OW  HW  HW  EP  OW  HW  HW  EP  OW  HW  HW  EP  OW  HW  HW  EP  OW  HW  
HW  EP  OW  HW  HW  EP  OW  HW  HW  EP  OW  HW  HW  EP  OW  HW  HW  EP  OW  HW  
HW  EP  OW  HW  HW  EP  OW  HW  HW  EP  OW  HW  HW  EP  OW  HW  HW  EP  OW  HW  
HW  EP  OW  HW  HW  EP  OW  HW  HW  EP  OW  HW  HW  EP  OW  HW  HW  EP  OW  HW  
HW  EP  OW  HW  HW  EP  OW  HW  HW  EP  OW  HW  HW  EP  OW  HW  HW  EP  OW  HW  
HW  EP  OW  HW  HW  EP  OW  HW  HW  EP  OW  HW  HW  EP  OW  HW  HW  EP  OW  HW  
HW  EP  OW  HW  HW  EP  OW  HW  HW  EP  OW  HW  HW  EP  OW  HW  HW  EP  OW  HW  
HW  EP  OW  HW  HW  EP  OW  HW  HW  EP  OW  HW  HW  EP  OW  HW  HW  EP  OW  HW  
HW  EP  OW  HW  HW  EP  OW  HW  HW  EP  OW  HW  HW  EP  OW  HW  HW  EP  OW  HW  
HW  EP  OW  HW  HW  EP  OW  HW  HW  EP  OW  HW  HW  EP  OW  HW  HW  EP  OW  HW  
HW  EP  OW  HW  HW  EP  OW  HW  HW  EP  OW  HW  HW  EP  OW  HW  HW  EP  OW  HW  
HW  EP  OW  HW  HW  EP  OW  HW  HW  EP  OW  HW  HW  EP  OW  HW  HW  EP  OW  HW  
HW  EP  OW  HW  HW  EP  OW  HW  HW  EP  OW  HW  HW  EP  OW  HW  HW  EP  OW  HW  
HW  EP  OW  HW  HW  EP  OW  HW  HW  EP  OW  HW  HW  EP  OW  HW  HW  EP  OW  HW  
HW  EP  OW  HW  HW  EP  OW  HW  HW  EP  OW  HW  HW  EP  OW  HW  HW  EP  OW  HW  
HW  EP  OW  HW  HW  EP  OW  HW  HW  EP  OW  HW  HW  EP  OW  HW  HW  EP  OW  HW  
HW  EP  OW  HW  HW  EP  OW  HW  HW  EP  OW  HW  HW  EP  OW  HW  HW  EP  OW  HW  
HW  EP  OW  HW  HW  EP  OW  HW  HW  EP  OW  HW  HW  EP  OW  HW  HW  EP  OW  HW  
HW  EP  OW  HW  HW  EP  OW  HW  HW  EP  OW  HW  HW  EP  OW  HW  HW  EP  OW  HW  
HW  EP  OW  HW  HW  EP  OW  HW  HW  EP  OW  HW  HW  EP  OW  HW  HW  EP  OW  HW  
HW  EP  OW  HW  HW  EP  OW  HW  HW  EP  OW  HW  HW  EP  OW  HW  HW  EP  OW  HW  
HW  EP  OW  HW  HW  EP  OW  HW  HW  EP  OW  HW  HW  EP  OW  HW  HW  EP  OW  HW  
HW  EP  OW  HW  HW  EP  OW  HW  HW  EP  OW  HW  HW  EP  OW  HW  HW  EP  OW  HW  
HW  EP  OW  HW  HW  EP  OW  HW  HW  EP  OW  HW  HW  EP  OW  HW  HW  EP  OW  HW  
HW  EP  OW  HW  HW  EP  OW  HW  HW  EP  OW  HW  HW  EP  OW  HW  HW  EP  OW  HW  
HW  EP  OW  HW  HW  EP  OW  HW  HW  EP  OW  HW  HW  EP  OW  HW  HW  EP  OW  HW  
HW  EP  OW  HW  HW  EP  OW  HW  HW  EP  OW  HW  HW  EP  OW  HW  HW  EP  OW  HW  
HW  EP  OW  HW  HW  EP  OW  HW  HW  EP  OW  HW  HW  EP  OW  HW  HW  EP  OW  HW  
HW  EP  OW  HW  HW  EP  OW  HW  HW  EP  OW  HW  HW  EP  OW  HW  HW  EP  OW  HW  
HW  EP  OW  HW  HW  EP  OW  HW  HW  EP  OW  HW  HW  EP  OW  HW  HW  EP  OW  HW  
HW  EP  OW  HW  HW  EP  OW  HW  HW  EP  OW  HW  HW  EP  OW  HW  HW  EP  OW  HW  
HW  EP  OW  HW  HW  EP  OW  HW  HW  EP  OW  HW  HW  EP  OW  HW  HW  EP  OW  HW  
HW  EP  OW  HW  HW  EP  OW  HW  HW  EP  OW  HW  HW  EP  OW  HW  HW  EP  OW  HW  
HW  EP  OW  HW  HW  EP  OW  HW  HW  EP  OW  HW  HW  EP  OW  HW  HW  EP  OW  HW  
HW  EP  OW  HW  HW  EP  OW  HW  HW  EP  OW  HW  HW  EP  OW  HW  HW  EP  OW  HW  
HW  EP  OW  HW  HW  EP  OW  HW  HW  EP  OW  HW  HW  EP  OW  HW  HW  EP  OW  HW  
HW  EP  OW  HW  HW  EP  OW  HW  HW  EP  OW  HW  HW  EP  OW  HW  HW  EP  OW  HW  
HW  EP  OW  HW  HW  EP  OW  HW  HW  EP  OW  HW  HW  EP  OW  HW  HW  EP  OW  HW  
HW  EP  OW  HW  HW  EP  OW  HW  HW  EP  OW  HW  HW  EP  OW  HW  HW  EP  OW  HW  
HW  EP  OW  HW  HW  EP  OW  HW  HW  EP  OW  HW  HW  EP  OW  HW  HW  EP  OW  HW  
HW  EP  OW  HW  HW  EP  OW  HW  HW  EP  OW  HW  HW  EP  OW  HW  HW  EP  OW  HW  
HW  EP  OW  HW  HW  EP  OW  HW  HW  EP  OW  HW  HW  EP  OW  HW  HW  EP  OW  HW  
HW  EP  OW  HW  HW  EP  OW  HW  HW  EP  OW  HW  HW  EP  OW  HW  HW  EP  OW  HW  
HW  EP  OW  HW  HW  EP  OW  HW  HW  EP  OW  HW  HW  EP  OW  HW  HW  EP  OW  HW  
HW  EP  OW  HW  HW  EP  OW  HW  HW  EP  OW  HW  HW  EP  OW  HW  HW  EP  OW  HW  
HW  EP  OW  HW  HW  EP  OW  HW  HW  EP  OW  HW  HW  EP  OW  HW  HW  EP  OW  HW  
HW  EP  OW  HW  HW  EP  OW  HW  HW  EP  OW  HW  HW  EP  OW  HW  HW  EP  OW  HW  
HW  EP  OW  HW  HW  EP  OW  HW  HW  EP  OW  HW  HW  EP  OW  HW  HW  EP  OW  HW  
HW  EP  OW  HW  HW  EP  OW  HW  HW  EP  OW  HW  HW  EP  OW  HW  HW  EP  OW  HW  
HW  EP  OW  HW  HW  EP  OW  HW  HW  EP  OW  HW  HW  EP  OW  HW  HW  EP  OW  HW  
HW  EP  OW  HW  HW  EP  OW  HW  HW  EP  OW  HW  HW  EP  OW  HW  HW  EP  OW  HW  
HW  EP  OW  HW  HW  EP  OW  HW  HW  EP  OW  HW  HW  EP  OW  HW  HW  EP  OW  HW  
HW  EP  OW  HW  HW  EP  OW  HW  HW  EP  OW  HW  HW  EP  OW  HW  HW  EP  OW  HW  
HW  EP  OW  HW  HW  EP  OW  HW  HW  EP  OW  HW  HW  EP  OW  HW  HW  EP  OW  HW  
HW  EP  OW  HW  HW  EP  OW  HW  HW  EP  OW  HW  HW  EP  OW  HW  HW  EP  OW  HW  
HW  EP  OW  HW  HW  EP  OW  HW  HW  EP  OW  HW  HW  EP  OW  HW  HW  EP  OW  HW  
HW  EP  OW  HW  HW  EP  OW  HW  HW  EP  OW  HW  HW  EP  OW  HW  HW  EP  OW  HW  
HW  EP  OW  HW  HW  EP  OW  HW  HW  EP  OW  HW  HW  EP  OW  HW  HW  EP  OW  HW  
HW  EP  OW  HW  HW  EP  OW  HW  HW  EP  OW  HW  HW  EP  OW  HW  HW  EP  OW  HW  
HW  EP  OW  HW  HW  EP  OW  HW  HW  EP  OW  HW  HW  EP  OW  HW  HW  EP  OW  HW  
HW  EP  OW  HW  HW  EP  OW  HW  HW  EP  OW  HW  HW  EP  OW  HW  HW  EP  OW  HW  
HW  EP  OW  HW  HW  EP  OW  HW  HW  EP  OW  HW  HW  EP  OW  HW  HW  EP  OW  HW  
HW  EP  OW  HW  HW  EP  OW  HW  HW  EP  OW  HW  HW  EP  OW  HW  HW  EP  OW  HW  
HW  EP  OW  HW  HW  EP  OW  HW  HW  EP  OW  HW  HW  EP  OW  HW  HW  EP  OW  HW  
HW  EP  OW  HW  HW  EP  OW  HW  HW  EP  OW  HW  HW  EP  OW  HW  HW  EP  OW  HW  
HW  EP  OW  HW  HW  EP  OW  HW  HW  EP  OW  HW  HW  EP  OW  HW  HW  EP  OW  HW  
HW  EP  OW  HW  HW  EP  OW  HW  HW  EP  OW  HW  HW  EP  OW  HW  HW  EP  OW  HW  
HW  EP  OW  HW  HW  EP  OW  HW  HW  EP  OW  HW  HW  EP  OW  HW  HW  EP  OW  HW  
HW  EP  OW  HW  HW  EP  OW  HW  HW  EP  OW  HW  HW  EP  OW  HW  HW  EP  OW  HW  
HW  EP  OW  HW  HW  EP  OW  HW  HW  EP  OW  HW  HW  EP  OW  HW  HW  EP  OW  HW  
HW  EP  OW  HW  HW  EP  OW  HW  HW  EP  OW  HW  HW  EP  OW  HW  HW  EP  OW  HW  
HW  EP  OW  HW  HW  EP  OW  HW  HW  EP  OW  HW  HW  EP  OW  HW  HW  EP  OW  HW  
HW  EP  OW  HW  HW  EP  OW  HW  HW  EP  OW  HW  HW  EP  OW  HW  HW  EP  OW  HW  
HW  EP  OW  HW  HW  EP  OW  HW  HW  EP  OW  HW  HW  EP  OW  HW  HW  EP  OW  HW  
HW  EP  OW  HW  HW  EP  OW  HW  HW  EP  OW  HW  HW  EP  OW  HW  HW  EP  OW  HW  
HW  EP  OW  HW  HW  EP  OW  HW  HW  EP  OW  HW  HW  EP  OW  HW  HW  EP  OW  HW  
HW  EP  OW  HW  HW  EP  OW  HW  HW  EP  OW  HW  HW  EP  OW  HW  HW  EP  OW  HW  
HW  EP  OW  HW  HW  EP  OW  HW  HW  EP  OW  HW  HW  EP  OW  HW  HW  EP  OW  HW  
HW  EP  OW  HW  HW  EP  OW  HW  HW  EP  OW  HW  HW  EP  OW  HW  HW  EP  OW  HW  
HW  EP  OW  HW  HW  EP  OW  HW  HW  EP  OW  HW  HW  EP  OW  HW  HW  EP  OW  HW  
HW  EP  OW  HW  HW  EP  OW  HW  HW  EP  OW  HW  HW  EP  OW  HW  HW  EP  OW  HW  
HW  EP  OW  HW  HW  EP  OW  HW  HW  EP  OW  HW  HW  EP  OW  HW  HW  EP  OW  HW  
HW  EP  OW  HW  HW  EP  OW  HW  HW  EP  OW  HW  HW  EP  OW  HW  HW  EP  OW  HW  
HW  EP  OW  HW  HW  EP  OW  HW  HW  EP  OW  HW  HW  EP  OW  HW  HW  EP  OW  HW  
HW  EP  OW  HW  HW  EP  OW  HW  HW  EP  OW  HW  HW  EP  OW  HW  HW  EP  OW  HW  
HW  EP  OW  HW  HW  EP  OW  HW  HW  EP  OW  HW  HW  EP  OW  HW  HW  EP  OW  HW  
HW  EP  OW  HW  HW  EP  OW  HW  HW  EP  OW  HW  HW  EP  OW  HW  HW  EP  OW  HW  
HW  EP  OW  HW  HW  EP  OW  HW  HW  EP  OW  HW  HW  EP  OW  HW  HW  EP  OW  HW  
HW  EP  OW  HW  HW  EP  OW  HW  HW  EP  OW  HW  HW  EP  OW  HW  HW  EP  OW  HW  
HW  EP  OW  HW  HW  EP  OW  HW  HW  EP  OW  HW  HW  EP  OW  HW  HW  EP  OW  HW  
HW  EP  OW  HW  HW  EP  OW  HW  HW  EP  OW  HW  HW  EP  OW  HW  HW  EP  OW  HW  
HW  EP  OW  HW  HW  EP  OW  HW  HW  EP  OW  HW  HW  EP  OW  HW  HW  EP  OW  HW  
HW  EP  OW  HW  HW  EP  OW  HW  HW  EP  OW  HW  HW  EP  OW  HW  HW  EP  OW  HW  
HW  EP  OW  HW  HW  EP  OW  HW  HW  EP  OW  HW  HW  EP  OW  HW  HW  EP  OW  HW  
HW  EP  OW  HW  HW  EP  OW  HW  HW  EP  OW  HW  HW  EP  OW  HW  HW  EP  OW  HW  
HW  EP  OW  HW  HW  EP  OW  HW  HW  EP  OW  HW  HW  EP  OW  HW  HW  EP  OW  HW  
HW  EP  OW  HW  HW  EP  OW  HW  HW  EP  OW  HW  HW  EP  OW  HW  HW  EP  OW  HW  
HW  EP  OW  HW  HW  EP  OW  HW  HW  EP  OW  HW  HW  EP  OW  HW  HW  EP  OW  HW  
HW  EP  OW  HW  HW  EP  OW  HW  HW  EP  OW  HW  HW  EP  OW  HW  HW  EP  OW  HW  
HW  EP  OW  HW  HW  EP  OW  HW  HW  EP  OW  HW  HW  EP  OW  HW  HW  EP  OW  HW  
HW  EP  OW  HW  HW  EP  OW  HW  HW  EP  OW  HW  HW  EP  OW  HW  HW  EP  OW  HW  
HW  EP  OW  HW  HW  EP  OW  HW  HW  EP  OW  HW  HW  EP  OW  HW  HW  EP  OW  HW  
HW  EP  OW  HW  HW  EP  OW  HW  HW  EP  OW  HW  HW  EP  OW  HW  HW  EP  OW  HW  
HW  EP  OW  HW  HW  EP  OW  HW  HW  EP  OW  HW  HW  EP  OW  HW  HW  EP  OW  HW  
HW  EP  OW  HW  HW  EP  OW  HW  HW  EP  OW  HW  HW  EP  OW  HW  HW  EP  OW  HW  
HW  EP  OW  HW  HW  EP  OW  HW  HW  EP  OW  HW  HW  EP  OW  HW  HW  EP  OW  HW  
HW  EP  OW  HW  HW  EP  OW  HW  HW  EP  OW  HW  HW  EP  OW  HW  HW  EP  OW  HW  
HW  EP  OW  HW  HW  EP  OW  HW  HW  EP  OW  HW  HW  EP  OW  HW  HW  EP  OW  HW  
HW  EP  OW  HW  HW  EP  OW  HW  HW  EP  OW  HW  HW  EP  OW  HW  HW  EP  OW  HW  
HW  EP  OW  HW  HW  EP  OW  HW  HW  EP  OW  HW  HW  EP  OW  HW  HW  EP  OW  HW  
HW  EP  OW  HW  HW  EP  OW  HW  HW  EP  OW  HW  HW  EP  OW  HW  HW  EP  OW  HW  
HW  EP  OW  HW  HW  EP  OW  HW  HW  EP  OW  HW  HW  EP  OW  HW  HW  EP  OW  HW  
HW  EP  OW  HW  HW  EP  OW  HW  HW  EP  OW  HW  HW  EP  OW  HW  HW  EP  OW  HW  
HW  EP  OW  HW  HW  EP  OW  HW  HW  EP  OW  HW  HW  EP  OW  HW  HW  EP  OW  HW  
HW  EP  OW  HW  HW  EP  OW  HW  HW  EP  OW  HW  HW  EP  OW  HW  HW  EP  OW  HW  
HW  EP  OW  HW  HW  EP  OW  HW  HW  EP  OW  HW  HW  EP  OW  HW  HW  EP  OW  HW  
HW  EP  OW  HW  HW  EP  OW  HW  HW  EP  OW  HW  HW  EP  OW  HW  HW  EP  OW  HW  
HW  EP  OW  HW  HW  EP  OW  HW  HW  EP  OW  HW  HW  EP  OW  HW  HW  EP  OW  HW  
HW  EP  OW  HW  HW  EP  OW  HW  HW  EP  OW  HW  HW  EP  OW  HW  HW  EP  OW  HW  
HW  EP  OW  HW  HW  EP  OW  HW  HW  EP  OW  HW  HW  EP  OW  HW  HW  EP  OW  HW  
HW  EP  OW  HW  HW  EP  OW  HW  HW  EP  OW  HW  HW  EP  OW  HW  HW  EP  OW  HW  
HW  EP  OW  HW  HW  EP  OW  HW  HW  EP  OW  HW  HW  EP  OW  HW  HW  EP  OW  HW  
HW  EP  OW  HW  HW  EP  OW  HW  HW  EP  OW  HW  HW  EP  OW  HW  HW  EP  OW  HW  
HW  EP  OW  HW  HW  EP  OW  HW  HW  EP  OW  HW  HW  EP  OW  HW  HW  EP  OW  HW  
HW  EP  OW  HW  HW  EP  OW  HW  HW  EP  OW  HW  HW  EP  OW  HW  HW  EP  OW  HW  
HW  EP  OW  HW  HW  EP  OW  HW  HW  EP  OW  HW  HW  EP  OW  HW  HW  EP  OW  HW  
HW  EP  OW  HW  HW  EP  OW  HW  HW  EP  OW  HW  HW  EP  OW  HW  HW  EP  OW  HW  
HW  EP  OW  HW  HW  EP  OW  HW  HW  EP  OW  HW  HW  EP  OW  HW  HW  EP  OW  HW  
HW  EP  OW  HW  HW  EP  OW  HW  HW  EP  OW  HW  HW  EP  OW  HW  HW  EP  OW  HW  
HW  EP  OW  HW  HW  EP  OW  HW  HW  EP  OW  HW  HW  EP  OW  HW  HW  EP  OW  HW  
HW  EP  OW  HW  HW  EP  OW  HW  HW  EP  OW  HW  HW  EP  OW  HW  HW  EP  OW  HW  
HW  EP  OW  HW  HW  EP  OW  HW  HW  EP  OW  HW  HW  EP  OW  HW  HW  EP  OW  HW  
HW  EP  OW  HW  HW  EP  OW  HW  HW  EP  OW  HW  HW  EP  OW  HW  HW  EP  OW  HW  
HW  EP  OW  HW  HW  EP  OW  HW  HW  EP  OW  HW  HW  EP  OW  HW  HW  EP  OW  HW  
HW  EP  OW  HW  HW  EP  OW  HW  HW  EP  OW  HW  HW  EP  OW  HW  HW  EP  OW  HW  
HW  EP  OW  HW  HW  EP  OW  HW  HW  EP  OW  HW  HW  EP  OW  HW  HW  EP  OW  HW  
HW  EP  OW  HW  HW  EP  OW  HW  HW  EP  OW  HW  HW  EP  OW  HW  HW  EP  OW  HW  
HW  EP  OW  HW  HW  EP  OW  HW  HW  EP  OW  HW  HW  EP  OW  HW  HW  EP  OW  HW  
HW  EP  OW  HW  HW  EP  OW  HW  HW  EP  OW  HW  HW  EP  OW  HW  HW  EP  OW  HW  
HW  EP  OW  HW  HW  EP  OW  HW  HW  EP  OW  HW  HW  EP  OW  HW  HW  EP  OW  HW  
HW  EP  OW  HW  HW  EP  OW  HW  HW  EP  OW  HW  HW  EP  OW  HW  HW  EP  OW  HW  
HW  EP  OW  HW  HW  EP  OW  HW  HW  EP  OW  HW  HW  EP  OW  HW  HW  EP  OW  HW  
HW  EP  OW  HW  HW  EP  OW  HW  HW  EP  OW  HW  HW  EP  OW  HW  HW  EP  OW  HW  
HW  EP  OW  HW  HW  EP  OW  HW  HW  EP  OW  HW  HW  EP  OW  HW  HW  EP  OW  HW  
HW  EP  OW  HW  HW  EP  OW  HW  HW  EP  OW  HW  HW  EP  OW  HW  HW  EP  OW  HW  
HW  EP  OW  HW  HW  EP  OW  HW  HW  EP  OW  HW  HW  EP  OW  HW  HW  EP  OW  HW  
HW  EP  OW  HW  HW  EP  OW  HW  HW  EP  OW  HW  HW  EP  OW  HW  HW  EP  OW  HW  
HW  EP  OW  HW  HW  EP  OW  HW  HW  EP  OW  HW  HW  EP  OW  HW  HW  EP  OW  HW  
HW  EP  OW  HW  HW  EP  OW  HW  HW  EP  OW  HW  HW  EP  OW  HW  HW  EP  OW  HW  
HW  EP  OW  HW  HW  EP  OW  HW  HW  EP  OW  HW  HW  EP  OW  HW  HW  EP  OW  HW  
HW  EP  OW  HW  HW  EP  OW  HW  HW  EP  OW  HW  HW  EP  OW  HW  HW  EP  OW  HW  
HW  EP  OW  HW  HW  EP  OW  HW  HW  EP  OW  HW  HW  EP  OW  HW  HW  EP  OW  HW  
HW  EP  OW  HW  HW  EP  OW  HW  HW  EP  OW  HW  HW  EP  OW  HW  HW  EP  OW  HW  
HW  EP  OW  HW  HW  EP  OW  HW  HW  EP  OW  HW  HW  EP  OW  HW  HW  EP  OW  HW  
HW  EP  OW  HW  HW  EP  OW  HW  HW  EP  OW  HW  HW  EP  OW  HW  HW  EP  OW  HW  
HW  EP  OW  HW  HW  EP  OW  HW  HW  EP  OW  HW  HW  EP  OW  HW  HW  EP  OW  HW  
HW  EP  OW  HW  HW  EP  OW  HW  HW  EP  OW  HW  HW  EP  OW  HW  HW  EP  OW  HW  
HW  EP  OW  HW  HW  EP  OW  HW  HW  EP  OW  HW  HW  EP  OW  HW  HW  EP  OW  HW  
HW  EP  OW  HW  HW  EP  OW  HW  HW  EP  OW  HW  HW  EP  OW  HW  HW  EP  OW  HW  
HW  EP  OW  HW  HW  EP  OW  HW  HW  EP  OW  HW  HW  EP  OW  HW  HW  EP  OW  HW  
HW  EP  OW  HW  HW  EP  OW  HW  HW  EP  OW  HW  HW  EP  OW  HW  HW  EP  OW  HW  
HW  EP  OW  HW  HW  EP  OW  HW  HW  EP  OW  HW  HW  EP  OW  HW  HW  EP  OW  HW  
HW  EP  OW  HW  HW  EP  OW  HW  HW  EP  OW  HW  HW  EP  OW  HW  HW  EP  OW  HW  
HW  EP  OW  HW  HW  EP  OW  HW  HW  EP  OW  HW  HW  EP  OW  HW  HW  EP  OW  HW  
HW  EP  OW  HW  HW  EP  OW  HW  HW  EP  OW  HW  HW  EP  OW  HW  HW  EP  OW  HW  
HW  EP  OW  HW  HW  EP  OW  HW  HW  EP  OW  HW  HW  EP  OW  HW  HW  EP  OW  HW  
HW  EP  OW  HW  HW  EP  OW  HW  HW  EP  OW  HW  HW  EP  OW  HW  HW  EP  OW  HW  
HW  EP  OW  HW  HW  EP  OW  HW  HW  EP  OW  HW  HW  EP  OW  HW  HW  EP  OW  HW  
HW  EP  OW  HW  HW  EP  OW  HW  HW  EP  OW  HW  HW  EP  OW  HW  HW  EP  OW  HW  
HW  EP  OW  HW  HW  EP  OW  HW  HW  EP  OW  HW  HW  EP  OW  HW  HW  EP  OW  HW  
HW  EP  OW  HW  HW  EP  OW  HW  HW  EP  OW  HW  HW  EP  OW  HW  HW  EP  OW  HW  
HW  EP  OW  HW  HW  EP  OW  HW  HW  EP  OW  HW  HW  EP  OW  HW  HW  EP  OW  HW  
HW  EP  OW  HW  HW  EP  OW  HW  HW  EP  OW  HW  HW  EP  OW  HW  HW  EP  OW  HW  
HW  EP  OW  HW  HW  EP  OW  HW  HW  EP  OW  HW  HW  EP  OW  HW  HW  EP  OW  HW  
HW  EP  OW  HW  HW  EP  OW  HW  HW  EP  OW  HW  HW  EP  OW  HW  HW  EP  OW  HW  
HW  EP  OW  HW  HW  EP  OW  HW  HW  EP  OW  HW  HW  EP  OW  HW  HW  EP  OW  HW  
HW  EP  OW  HW  HW  EP  OW  HW  HW  EP  OW  HW  HW  EP  OW  HW  HW  EP  OW  HW  
HW  EP  OW  HW  HW  EP  OW  HW  HW  EP  OW  HW  HW  EP  OW  HW  HW  EP  OW  HW  
HW  EP  OW  HW  HW  EP  OW  HW  HW  EP  OW  HW  HW  EP  OW  HW  HW  EP  OW  HW  
HW  EP  OW  HW  HW  EP  OW  HW  HW  EP  OW  HW  HW  EP  OW  HW  HW  EP  OW  HW  
HW  EP  OW  HW  HW  EP  OW  HW  HW  EP  OW  HW  HW  EP  OW  HW  HW  EP  OW  HW  
HW  EP  OW  HW  HW  EP  OW  HW  HW  EP  OW  HW  HW  EP  OW  HW  HW  EP  OW  HW  
HW  EP  OW  HW  HW  EP  OW  HW  HW  EP  OW  HW  HW  EP  OW  HW  HW  EP  OW  HW  
HW  EP  OW  HW  HW  EP  OW  HW  HW  EP  OW  HW  HW  EP  OW  HW  HW  EP  OW  HW  
HW  EP  OW  HW  HW  EP  OW  HW  HW  EP  OW  HW  HW  EP  OW  HW  HW  EP  OW  HW  
HW  EP  OW  HW  HW  EP  OW  HW  HW  EP  OW  HW  HW  EP  OW  HW  HW  EP  OW  HW  
HW  EP  OW  HW  HW  EP  OW  HW  HW  EP  OW  HW  HW  EP  OW  HW  HW  EP  OW  HW  
HW  EP  OW  HW  HW  EP  OW  HW  HW  EP  OW  HW  HW  EP  OW  HW  HW  EP  OW  HW  
HW  EP  OW  HW  HW  EP  OW  HW  HW  EP  OW  HW  HW  EP  OW  HW  HW  EP  OW  HW  
HW  EP  OW  HW  HW  EP  OW  HW  HW  EP  OW  HW  HW  EP  OW  HW  HW  EP  OW  HW  
HW  EP  OW  HW  HW  EP  OW  HW  HW  EP  OW  HW  HW  EP  OW  HW  HW  EP  OW  HW  
HW  EP  OW  HW  HW  EP  OW  HW  HW  EP  OW  HW  HW  EP  OW  HW  HW  EP  OW  HW  
HW  EP  OW  HW  HW  EP  OW  HW  HW  EP  OW  HW  HW  EP  OW  HW  HW  EP  OW  HW  
HW  EP  OW  HW  HW  EP  OW  HW  HW  EP  OW  HW  HW  EP  OW  HW  HW  EP  OW  HW  
HW  EP  OW  HW  HW  EP  OW  HW  HW  EP  OW  HW  HW  EP  OW  HW  HW  EP  OW  HW  
HW  EP  OW  HW  HW  EP  OW  HW  HW  EP  OW  HW  HW  EP  OW  HW  HW  EP  OW  HW  
HW  EP  OW  HW  HW  EP  OW  HW  HW  EP  OW  HW  HW  EP  OW  HW  HW  EP  OW  HW  
HW  EP  OW  HW  HW  EP  OW  HW  HW  EP  OW  HW  HW  EP  OW  HW  HW  EP  OW  HW  
HW  EP  OW  HW  HW  EP  OW  HW  HW  EP  OW  HW  HW  EP  OW  HW  HW  EP  OW  HW  
HW  EP  OW  HW  HW  EP  OW  HW  HW  EP  OW  HW  HW  EP  OW  HW  HW  EP  OW  HW  
HW  EP  OW  HW  HW  EP  OW  HW  HW  EP  OW  HW  HW  EP  OW  HW  HW  EP  OW  HW  
HW  EP  OW  HW  HW  EP  OW  HW  HW  EP  OW  HW  HW  EP  OW  HW  HW  EP  OW  HW  
HW  EP  OW  HW  HW  EP  OW  HW  HW  EP  OW  HW  HW  EP  OW  HW  HW  EP  OW  HW  
HW  EP  OW  HW  HW  EP  OW  HW  HW  EP  OW  HW  HW  EP  OW  HW  HW  EP  OW  HW  
HW  EP  OW  HW  HW  EP  OW  HW  HW  EP  OW  HW  HW  EP  OW  HW  HW  EP  OW  HW  
HW  EP  OW  HW  HW  EP  OW  HW  HW  EP  OW  HW  HW  EP  OW  HW  HW  EP  OW  HW  
HW  EP  OW  HW  HW  EP  OW  HW  HW  EP  OW  HW  HW  EP  OW  HW  HW  EP  OW  HW  
HW  EP  OW  HW  HW  EP  OW  HW  HW  EP  OW  HW  HW  EP  OW  HW  HW  EP  OW  HW  
HW  EP  OW  HW  HW  EP  OW  HW  HW  EP  OW  HW  HW  EP  OW  HW  HW  EP  OW  HW  
HW  EP  OW  HW  HW  EP  OW  HW  HW  EP  OW  HW  HW  EP  OW  HW  HW  EP  OW  HW  
HW  EP  OW  HW  HW  EP  OW  HW  HW  EP  OW  HW  HW  EP  OW  HW  HW  EP  OW  HW  
HW  EP  OW  HW  HW  EP  OW  HW  HW  EP  OW  HW  HW  EP  OW  HW  HW  EP  OW  HW  
HW  EP  OW  HW  HW  EP  OW  HW  HW  EP  OW  HW  HW  EP  OW  HW  HW  EP  OW  HW  
HW  EP  OW  HW  HW  EP  OW  HW  HW  EP  OW  HW  HW  EP  OW  HW  HW  EP  OW  HW  
HW  EP  OW  HW  HW  EP  OW  HW  HW  EP  OW  HW  HW  EP  OW  HW  HW  EP  OW  HW  
HW  EP  OW  HW  HW  EP  OW  HW  HW  EP  OW  HW  HW  EP  OW  HW  HW  EP  OW  HW  
HW  EP  OW  HW  HW  EP  OW  HW  HW  EP  OW  HW  HW  EP  OW  HW  HW  EP  OW  HW  
HW  EP  OW  HW  HW  EP  OW  HW  HW  EP  OW  HW  HW  EP  OW  HW  HW  EP  OW  HW  
HW  EP  OW  HW  HW  EP  OW  HW  HW  EP  OW  HW  HW  EP  OW  HW  HW  EP  OW  HW  
HW  EP  OW  HW  HW  EP  OW  HW  HW  EP  OW  HW  HW  EP  OW  HW  HW  EP  OW  HW  
HW  EP  OW  HW  HW  EP  OW  HW  HW  EP  OW  HW  HW  EP  OW  HW  HW  EP  OW  HW  
HW  EP  OW  HW  HW  EP  OW  HW  HW  EP  OW  HW  HW  EP  OW  HW  HW  EP  OW  HW  
HW  EP  OW  HW  HW  EP  OW  HW  HW  EP  OW  HW  HW  EP  OW  HW  HW  EP  OW  HW  
HW  EP  OW  HW  HW  EP  OW  HW  HW  EP  OW  HW  HW  EP  OW  HW  HW  EP  OW  HW  
HW  EP  OW  HW  HW  EP  OW  HW  HW  EP  OW  HW  HW  EP  OW  HW  HW  EP  OW  HW  
HW  EP  OW  HW  HW  EP  OW  HW  HW  EP  OW  HW  HW  EP  OW  HW  HW  EP  OW  HW  
HW  EP  OW  HW  HW  EP  OW  HW  HW  EP  OW  HW  HW  EP  OW  HW  HW  EP  OW  HW  
HW  EP  OW  HW  HW  EP  OW  HW  HW  EP  OW  HW  HW  EP  OW  HW  HW  EP  OW  HW  
HW  EP  OW  HW  HW  EP  OW  HW  HW  EP  OW  HW  HW  EP  OW  HW  HW  EP  OW  HW  
HW  EP  OW  HW  HW  EP  OW  HW  HW  EP  OW  HW  HW  EP  OW  HW  HW  EP  OW  HW  
HW  EP  OW  HW  HW  EP  OW  HW  HW  EP  OW  HW  HW  EP  OW  HW  HW  EP  OW  HW  
HW  EP  OW  HW  HW  EP  OW  HW  HW  EP  OW  HW  HW  EP  OW  HW  HW  EP  OW  HW  
HW  EP  OW  HW  HW  EP  OW  HW  HW  EP  OW  HW  HW  EP  OW  HW  HW  EP  OW  HW  
HW  EP  OW  HW  HW  EP  OW  HW  HW  EP  OW  HW  HW  EP  OW  HW  HW  EP  OW  HW  
HW  EP  OW  HW  HW  EP  OW  HW  HW  EP  OW  HW  HW  EP  OW  HW  HW  EP  OW  HW  
HW  EP  OW  HW  HW  EP  OW  HW  HW  EP  OW  HW  HW  EP  OW  HW  HW  EP  OW  HW  
HW  EP  OW  HW  HW  EP  OW  HW  HW  EP  OW  HW  HW  EP  OW  HW  HW  EP  OW  HW  
HW  EP  OW  HW  HW  EP  OW  HW  HW  EP  OW  HW  HW  EP  OW  HW  HW  EP  OW  HW  
HW  EP  OW  HW  HW  EP  OW  HW  HW  EP  OW  HW  HW  EP  OW  HW  HW  EP  OW  HW  
HW  EP  OW  HW  HW  EP  OW  HW  HW  EP  OW  HW  HW  EP  OW  HW  HW  EP  OW  HW  
HW  EP  OW  HW  HW  EP  OW  HW  HW  EP  OW  HW  HW  EP  OW  HW  HW  EP  OW  HW  
HW  EP  OW  HW  HW  EP  OW  HW  HW  EP  OW  HW  HW  EP  OW  HW  HW  EP  OW  HW  
HW  EP  OW  HW  HW  EP  OW  HW  HW  EP  OW  HW  HW  EP  OW  HW  HW  EP  OW  HW  
HW  EP  OW  HW  HW  EP  OW  HW  HW  EP  OW  HW  HW  EP  OW  HW  HW  EP  OW  HW  
HW  EP  OW  HW  HW  EP  OW  HW  HW  EP  OW  HW  HW  EP  OW  HW  HW  EP  OW  HW  
HW  EP  OW  HW  HW  EP  OW  HW  HW  EP  OW  HW  HW  EP  OW  HW  HW  EP  OW  HW  
HW  EP  OW  HW  HW  EP  OW  HW  HW  EP  OW  HW  HW  EP  OW  HW  HW  EP  OW  HW  
HW  EP  OW  HW  HW  EP  OW  HW  HW  EP  OW  HW  HW  EP  OW  HW  HW  EP  OW  HW  
HW  EP  OW  HW  HW  EP  OW  HW  HW  EP  OW  HW  HW  EP  OW  HW  HW  EP  OW  HW  
HW  EP  OW  HW  HW  EP  OW  HW  HW  EP  OW  HW  HW  EP  OW  HW  HW  EP  OW  HW  
HW  EP  OW  HW  HW  EP  OW  HW  HW  EP  OW  HW  HW  EP  OW  HW  HW  EP  OW  HW  
HW  EP  OW  HW  HW  EP  OW  HW  HW  EP  OW  HW  HW  EP  OW  HW  HW  EP  OW  HW  
HW  EP  OW  HW  HW  EP  OW  HW  HW  EP  OW  HW  HW  EP  OW  HW  HW  EP  OW  HW  
HW  EP  OW  HW  HW  EP  OW  HW  HW  EP  OW  HW  HW  EP  OW  HW  HW  EP  OW  HW  
HW  EP  OW  HW  HW  EP  OW  HW  HW  EP  OW  HW  HW  EP  OW  HW  HW  EP  OW  HW  
HW  EP  OW  HW  HW  EP  OW  HW  HW  EP  OW  HW  HW  EP  OW  HW  HW  EP  OW  HW  
HW  EP  OW  HW  HW  EP  OW  HW  HW  EP  OW  HW  HW  EP  OW  HW  HW  EP  OW  HW  
HW  EP  OW  HW  HW  EP  OW  HW  HW  EP  OW  HW  HW  EP  OW  HW  HW  EP  OW  HW  
HW  EP  OW  HW  HW  EP  OW  HW  HW  EP  OW  HW  HW  EP  OW  HW  HW  EP  OW  HW  
HW  EP  OW  HW  HW  EP  OW  HW  HW  EP  OW  HW  HW  EP  OW  HW  HW  EP  OW  HW  
HW  EP  OW  HW  HW  EP  OW  HW  HW  EP  OW  HW  HW  EP  OW  HW  HW  EP  OW  HW  
HW  EP  OW  HW  HW  EP  OW  HW  HW  EP  OW  HW  HW  EP  OW  HW  HW  EP  OW  HW  
HW  EP  OW  HW  HW  EP  OW  HW  HW  EP  OW  HW  HW  EP  OW  HW  HW  EP  OW  HW  
HW  EP  OW  HW  HW  EP  OW  HW  HW  EP  OW  HW  HW  EP  OW  HW  HW  EP  OW  HW  
HW  EP  OW  HW  HW  EP  OW  HW  HW  EP  OW  HW  HW  EP  OW  HW  HW  EP  OW  HW  
HW  EP  OW  HW  HW  EP  OW  HW  HW  EP  OW  HW  HW  EP  OW  HW  HW  EP  OW  HW  
HW  EP  OW  HW  HW  EP  OW  HW  HW  EP  OW  HW  HW  EP  OW  HW  HW  EP  OW  HW  
HW  EP  OW  HW  HW  EP  OW  HW  HW  EP  OW  HW  HW  EP  OW  HW  HW  EP  OW  HW  
HW  EP  OW  HW  HW  EP  OW  HW  HW  EP  OW  HW  HW  EP  OW  HW  HW  EP  OW  HW  
HW  EP  OW  HW  HW  EP  OW  HW  HW  EP  OW  HW  HW  EP  OW  HW  HW  EP  OW  HW  
HW  EP  OW  HW  HW  EP  OW  HW  HW  EP  OW  HW  HW  EP  OW  HW  HW  EP  OW  HW  
HW  EP  OW  HW  HW  EP  OW  HW  HW  EP  OW  HW  HW  EP  OW  HW  HW  EP  OW  HW  
HW  EP  OW  HW  HW  EP  OW  HW  HW  EP  OW  HW  HW  EP  OW  HW  HW  EP  OW  HW  
HW  EP  OW  HW  HW  EP  OW  HW  HW  EP  OW  HW  HW  EP  OW  HW  HW  EP  OW  HW  
HW  EP  OW  HW  HW  EP  OW  HW  HW  EP  OW  HW  HW  EP  OW  HW  HW  EP  OW  HW  
HW  EP  OW  HW  HW  EP  OW  HW  HW  EP  OW  HW  HW  EP  OW  HW  HW  EP  OW  HW  
HW  EP  OW  HW  HW  EP  OW  HW  HW  EP  OW  HW  HW  EP  OW  HW  HW  EP  OW  HW  
HW  EP  OW  HW  HW  EP  OW  HW  HW  EP  OW  HW  HW  EP  OW  HW  HW  EP  OW  HW  
HW  EP  OW  HW  HW  EP  OW  HW  HW  EP  OW  HW  HW  EP  OW  HW  HW  EP  OW  HW  
HW  EP  OW  HW  HW  EP  OW  HW  HW  EP  OW  HW  HW  EP  OW  HW  HW  EP  OW  HW  
HW  EP  OW  HW  HW  EP  OW  HW  HW  EP  OW  HW  HW  EP  OW  HW  HW  EP  OW  HW  
HW  EP  OW  HW  HW  EP  OW  HW  HW  EP  OW  HW  HW  EP  OW  HW  HW  EP  OW  HW  
HW  EP  OW  HW  HW  EP  OW  HW  HW  EP  OW  HW  HW  EP  OW  HW  HW  EP  OW  HW  
HW  EP  OW  HW  HW  EP  OW  HW  HW  EP  OW  HW  HW  EP  OW  HW  HW  EP  OW  HW  
HW  EP  OW  HW  HW  EP  OW  HW  HW  EP  OW  HW  HW  EP  OW  HW  HW  EP  OW  HW  
HW  EP  OW  HW  HW  EP  OW  HW  HW  EP  OW  HW  HW  EP  OW  HW  HW  EP  OW  HW  
HW  EP  OW  HW  HW  EP  OW  HW  HW  EP  OW  HW  HW  EP  OW  HW  HW  EP  OW  HW  
HW  EP  OW  HW  HW  EP  OW  HW  HW  EP  OW  HW  HW  EP  OW  HW  HW  EP  OW  HW  
HW  EP  OW  HW  HW  EP  OW  HW  HW  EP  OW  HW  HW  EP  OW  HW  HW  EP  OW  HW  
HW  EP  OW  HW  HW  EP  OW  HW  HW  EP  OW  HW  HW  EP  OW  HW  HW  EP  OW  HW  
HW  EP  OW  HW  HW  EP  OW  HW  HW  EP  OW  HW  HW  EP  OW  HW  HW  EP  OW  HW  
HW  EP  OW  HW  HW  EP  OW  HW  HW  EP  OW  HW  HW  EP  OW  HW  HW  EP  OW  HW  
HW  EP  OW  HW  HW  EP  OW  HW  HW  EP  OW  HW  HW  EP  OW  HW  HW  EP  OW  HW  
HW  EP  OW  HW  HW  EP  OW  HW  HW  EP  OW  HW  HW  EP  OW  HW  HW  EP  OW  HW  
HW  EP  OW  HW  HW  EP  OW  HW  HW  EP  OW  HW  HW  EP  OW  HW  HW  EP  OW  HW  
HW  EP  OW  HW  HW  EP  OW  HW  HW  EP  OW  HW  HW  EP  OW  HW  HW  EP  OW  HW  
HW  EP  OW  HW  HW  EP  OW  HW  HW  EP  OW  HW  HW  EP  OW  HW  HW  EP  OW  HW  
HW  EP  OW  HW  HW  EP  OW  HW  HW  EP  OW  HW  HW  EP  OW  HW  HW  EP  OW  HW  
HW  EP  OW  HW  HW  EP  OW  HW  HW  EP  OW  HW  HW  EP  OW  HW  HW  EP  OW  HW  
HW  EP  OW  HW  HW  EP  OW  HW  HW  EP  OW  HW  HW  EP  OW  HW  HW  EP  OW  HW  
HW  EP  OW  HW  HW  EP  OW  HW  HW  EP  OW  HW  HW  EP  OW  HW  HW  EP  OW  HW  
HW  EP  OW  HW  HW  EP  OW  HW  HW  EP  OW  HW  HW  EP  OW  HW  HW  EP  OW  HW  
HW  EP  OW  HW  HW  EP  OW  HW  HW  EP  OW  HW  HW  EP  OW  HW  HW  EP  OW  HW  
HW  EP  OW  HW  HW  EP  OW  HW  HW  EP  OW  HW  HW  EP  OW  HW  HW  EP  OW  HW  
HW  EP  OW  HW  HW  EP  OW  HW  HW  EP  OW  HW  HW  EP  OW  HW  HW  EP  OW  HW  
HW  EP  OW  HW  HW  EP  OW  HW  HW  EP  OW  HW  HW  EP  OW  HW  HW  EP  OW  HW  
HW  EP  OW  HW  HW  EP  OW  HW  HW  EP  OW  HW  HW  EP  OW  HW  HW  EP  OW  HW  
HW  EP  OW  HW  HW  EP  OW  HW  HW  EP  OW  HW  HW  EP  OW  HW  HW  EP  OW  HW  
HW  EP  OW  HW  HW  EP  OW  HW  HW  EP  OW  HW  HW  EP  OW  HW  HW  EP  OW  HW  
HW  EP  OW  HW  HW  EP  OW  HW  HW  EP  OW  HW  HW  EP  OW  HW  HW  EP  OW  HW  
HW  EP  OW  HW  HW  EP  OW  HW  HW  EP  OW  HW  HW  EP  OW  HW  HW  EP  OW  HW  
HW  EP  OW  HW  HW  EP  OW  HW  HW  EP  OW  HW  HW  EP  OW  HW  HW  EP  OW  HW  
HW  EP  OW  HW  HW  EP  OW  HW  HW  EP  OW  HW  HW  EP  OW  HW  HW  EP  OW  HW  
HW  EP  OW  HW  HW  EP  OW  HW  HW  EP  OW  HW  HW  EP  OW  HW  HW  EP  OW  HW  
HW  EP  OW  HW  HW  EP  OW  HW  HW  EP  OW  HW  HW  EP  OW  HW  HW  EP  OW  HW  
HW  EP  OW  HW  HW  EP  OW  HW  HW  EP  OW  HW  HW  EP  OW  HW  HW  EP  OW  HW  
HW  EP  OW  HW  HW  EP  OW  HW  HW  EP  OW  HW  HW  EP  OW  HW  HW  EP  OW  HW  
HW  EP  OW  HW  HW  EP  OW  HW  HW  EP  OW  HW  HW  EP  OW  HW  HW  EP  OW  HW  
HW  EP  OW  HW  HW  EP  OW  HW  HW  EP  OW  HW  HW  EP  OW  HW  HW  EP  OW  HW  
HW  EP  OW  HW  HW  EP  OW  HW  HW  EP  OW  HW  HW  EP  OW  HW  HW  EP  OW  HW  
HW  EP  OW  HW  HW  EP  OW  HW  HW  EP  OW  HW  HW  EP  OW  HW  HW  EP  OW  HW  
HW  EP  OW  HW  HW  EP  OW  HW  HW  EP  OW  HW  HW  EP  OW  HW  HW  EP  OW  HW  
HW  EP  OW  HW  HW  EP  OW  HW  HW  EP  OW  HW  HW  EP  OW  HW  HW  EP  OW  HW  
HW  EP  OW  HW  HW  EP  OW  HW  HW  EP  OW  HW  HW  EP  OW  HW  HW  EP  OW  HW  
HW  EP  OW  HW  HW  EP  OW  HW  HW  EP  OW  HW  HW  EP  OW  HW  HW  EP  OW  HW  
HW  EP  OW  HW  HW  EP  OW  HW  HW  EP  OW  HW  HW  EP  OW  HW  HW  EP  OW  HW  
HW  EP  OW  HW  HW  EP  OW  HW  HW  EP  OW  HW  HW  EP  OW  HW  HW  EP  OW  HW  
HW  EP  OW  HW  HW  EP  OW  HW  HW  EP  OW  HW  HW  EP  OW  HW  HW  EP  OW  HW  
HW  EP  OW  HW  HW  EP  OW  HW  HW  EP  OW  HW  HW  EP  OW  HW  HW  EP  OW  HW  
HW  EP  OW  HW  HW  EP  OW  HW  HW  EP  OW  HW  HW  EP  OW  HW  HW  EP  OW  HW  
HW  EP  OW  HW  HW  EP  OW  HW  HW  EP  OW  HW  HW  EP  OW  HW  HW  EP  OW  HW  
HW  EP  OW  HW  HW  EP  OW  HW  HW  EP  OW  HW  HW  EP  OW  HW  HW  EP  OW  HW  
HW  EP  OW  HW  HW  EP  OW  HW  HW  EP  OW  HW  HW  EP  OW  HW  HW  EP  OW  HW  
HW  EP  OW  HW  HW  EP  OW  HW  HW  EP  OW  HW  HW  EP  OW  HW  HW  EP  OW  HW  
HW  EP  OW  HW  HW  EP  OW  HW  HW  EP  OW  HW  HW  EP  OW  HW  HW  EP  OW  HW  
HW  EP  OW  HW  HW  EP  OW  HW  HW  EP  OW  HW  HW  EP  OW  HW  HW  EP  OW  HW  
HW  EP  OW  HW  HW  EP  OW  HW  HW  EP  OW  HW  HW  EP  OW  HW  HW  EP  OW  HW  
HW  EP  OW  HW  HW  EP  OW  HW  HW  EP  OW  HW  HW  EP  OW  HW  HW  EP  OW  HW  
HW  EP  OW  HW  HW  EP  OW  HW  HW  EP  OW  HW  HW  EP  OW  HW  HW  EP  OW  HW  
HW  EP  OW  HW  HW  EP  OW  HW  HW  EP  OW  HW  HW  EP  OW  HW  HW  EP  OW  HW  
HW  EP  OW  HW  HW  EP  OW  HW  HW  EP  OW  HW  HW  EP  OW  HW  HW  EP  OW  HW  
HW  EP  OW  HW  HW  EP  OW  HW  HW  EP  OW  HW  HW  EP  OW  HW  HW  EP  OW  HW  
HW  EP  OW  HW  HW  EP  OW  HW  HW  EP  OW  HW  HW  EP  OW  HW  HW  EP  OW  HW  
HW  EP  OW  HW  HW  EP  OW  HW  HW  EP  OW  HW  HW  EP  OW  HW  HW  EP  OW  HW  
HW  EP  OW  HW  HW  EP  OW  HW  HW  EP  OW  HW  HW  EP  OW  HW  HW  EP  OW  HW  
HW  EP  OW  HW  HW  EP  OW  HW  HW  EP  OW  HW  HW  EP  OW  HW  HW  EP  OW  HW  
HW  EP  OW  HW  HW  EP  OW  HW  HW  EP  OW  HW  HW  EP  OW  HW  HW  EP  OW  HW  
HW  EP  OW  HW  HW  EP  OW  HW  HW  EP  OW  HW  HW  EP  OW  HW  HW  EP  OW  HW  
HW  EP  OW  HW  HW  EP  OW  HW  HW  EP  OW  HW  HW  EP  OW  HW  HW  EP  OW  HW  
HW  EP  OW  HW  HW  EP  OW  HW  HW  EP  OW  HW  HW  EP  OW  HW  HW  EP  OW  HW  
HW  EP  OW  HW  HW  EP  OW  HW  HW  EP  OW  HW  HW  EP  OW  HW  HW  EP  OW  HW  
HW  EP  OW  HW  HW  EP  OW  HW  HW  EP  OW  HW  HW  EP  OW  HW  HW  EP  OW  HW  
HW  EP  OW  HW  HW  EP  OW  HW  HW  EP  OW  HW  HW  EP  OW  HW  HW  EP  OW  HW  
HW  EP  OW  HW  HW  EP  OW  HW  HW  EP  OW  HW  HW  EP  OW  HW  HW  EP  OW  HW  
HW  EP  OW  HW  HW  EP  OW  HW  HW  EP  OW  HW  HW  EP  OW  HW  HW  EP  OW  HW  
HW  EP  OW  HW  HW  EP  OW  HW  HW  EP  OW  HW  HW  EP  OW  HW  HW  EP  OW  HW  
HW  EP  OW  HW  HW  EP  OW  HW  HW  EP  OW  HW  HW  EP  OW  HW  HW  EP  OW  HW  
HW  EP  OW  HW  HW  EP  OW  HW  HW  EP  OW  HW  HW  EP  OW  HW  HW  EP  OW  HW  
HW  EP  OW  HW  HW  EP  OW  HW  HW  EP  OW  HW  HW  EP  OW  HW  HW  EP  OW  HW  
HW  EP  OW  HW  HW  EP  OW  HW  HW  EP  OW  HW  HW  EP  OW  HW  HW  EP  OW  HW  
HW  EP  OW  HW  HW  EP  OW  HW  HW  EP  OW  HW  HW  EP  OW  HW  HW  EP  OW  HW  
HW  EP  OW  HW  HW  EP  OW  HW  HW  EP  OW  HW  HW  EP  OW  HW  HW  EP  OW  HW  
HW  EP  OW  HW  HW  EP  OW  HW  HW  EP  OW  HW  HW  EP  OW  HW  HW  EP  OW  HW  
HW  EP  OW  HW  HW  EP  OW  HW  HW  EP  OW  HW  HW  EP  OW  HW  HW  EP  OW  HW  
HW  EP  OW  HW  HW  EP  OW  HW  HW  EP  OW  HW  HW  EP  OW  HW  HW  EP  OW  HW  
HW  EP  OW  HW  HW  EP  OW  HW  HW  EP  OW  HW  HW  EP  OW  HW  HW  EP  OW  HW  
HW  EP  OW  HW  HW  EP  OW  HW  HW  EP  OW  HW  HW  EP  OW  HW  HW  EP  OW  HW  
HW  EP  OW  HW  HW  EP  OW  HW  HW  EP  OW  HW  HW  EP  OW  HW  HW  EP  OW  HW  
HW  EP  OW  HW  HW  EP  OW  HW  HW  EP  OW  HW  HW  EP  OW  HW  HW  EP  OW  HW  
HW  EP  OW  HW  HW  EP  OW  HW  HW  EP  OW  HW  HW  EP  OW  HW  HW  EP  OW  HW  
HW  EP  OW  HW  HW  EP  OW  HW  HW  EP  OW  HW  HW  EP  OW  HW  HW  EP  OW  HW  
HW  EP  OW  HW  HW  EP  OW  HW  HW  EP  OW  HW  HW  EP  OW  HW  HW  EP  OW  HW  
HW  EP  OW  HW  HW  EP  OW  HW  HW  EP  OW  HW  HW  EP  OW  HW  HW  EP  OW  HW  
HW  EP  OW  HW  HW  EP  OW  HW  HW  EP  OW  HW  HW  EP  OW  HW  HW  EP  OW  HW  
HW  EP  OW  HW  HW  EP  OW  HW  HW  EP  OW  HW  HW  EP  OW  HW  HW  EP  OW  HW  
HW  EP  OW  HW  HW  EP  OW  HW  HW  EP  OW  HW  HW  EP  OW  HW  HW  EP  OW  HW  
HW  EP  OW  HW  HW  EP  OW  HW  HW  EP  OW  HW  HW  EP  OW  HW  HW  EP  OW  HW  
HW  EP  OW  HW  HW  EP  OW  HW  HW  EP  OW  HW  HW  EP  OW  HW  HW  EP  OW  HW  
HW  EP  OW  HW  HW  EP  OW  HW  HW  EP  OW  HW  HW  EP  OW  HW  HW  EP  OW  HW  
HW  EP  OW  HW  HW  EP  OW  HW  HW  EP  OW  HW  HW  EP  OW  HW  HW  EP  OW  HW  
HW  EP  OW  HW  HW  EP  OW  HW  HW  EP  OW  HW  HW  EP  OW  HW  HW  EP  OW  HW  
HW  EP  OW  HW  HW  EP  OW  HW  HW  EP  OW  HW  HW  EP  OW  HW  HW  EP  OW  HW  
HW  EP  OW  HW  HW  EP  OW  HW  HW  EP  OW  HW  HW  EP  OW  HW  HW  EP  OW  HW  
HW  EP  OW  HW  HW  EP  OW  HW  HW  EP  OW  HW  HW  EP  OW  HW  HW  EP  OW  HW  
HW  EP  OW  HW  HW  EP  OW  HW  HW  EP  OW  HW  HW  EP  OW  HW  HW  EP  OW  HW  
HW  EP  OW  HW  HW  EP  OW  HW  HW  EP  OW  HW  HW  EP  OW  HW  HW  EP  OW  HW  
HW  EP  OW  HW  HW  EP  OW  HW  HW  EP  OW  HW  HW  EP  OW  HW  HW  EP  OW  HW  
HW  EP  OW  HW  HW  EP  OW  HW  HW  EP  OW  HW  HW  EP  OW  HW  HW  EP  OW  HW  
HW  EP  OW  HW  HW  EP  OW  HW  HW  EP  OW  HW  HW  EP  OW  HW  HW  EP  OW  HW  
HW  EP  OW  HW  HW  EP  OW  HW  HW  EP  OW  HW  HW  EP  OW  HW  HW  EP  OW  HW  
HW  EP  OW  HW  HW  EP  OW  HW  HW  EP  OW  HW  HW  EP  OW  HW  HW  EP  OW  HW  
HW  EP  OW  HW  HW  EP  OW  HW  HW  EP  OW  HW  HW  EP  OW  HW  HW  EP  OW  HW  
HW  EP  OW  HW  HW  EP  OW  HW  HW  EP  OW  HW  HW  EP  OW  HW  HW  EP  OW  HW  
HW  EP  OW  HW  HW  EP  OW  HW  HW  EP  OW  HW  HW  EP  OW  HW  HW  EP  OW  HW  
HW  EP  OW  HW  HW  EP  OW  HW  HW  EP  OW  HW  HW  EP  OW  HW  HW  EP  OW  HW  
HW  EP  OW  HW  HW  EP  OW  HW  HW  EP  OW  HW  HW  EP  OW  HW  HW  EP  OW  HW  
HW  EP  OW  HW  HW  EP  OW  HW  HW  EP  OW  HW  HW  EP  OW  HW  HW  EP  OW  HW  
HW  EP  OW  HW  HW  EP  OW  HW  HW  EP  OW  HW  HW  EP  OW  HW  HW  EP  OW  HW  
HW  EP  OW  HW  HW  EP  OW  HW  HW  EP  OW  HW  HW  EP  OW  HW  HW  EP  OW  HW  
HW  EP  OW  HW  HW  EP  OW  HW  HW  EP  OW  HW  HW  EP  OW  HW  HW  EP  OW  HW  
HW  EP  OW  HW  HW  EP  OW  HW  HW  EP  OW  HW  HW  EP  OW  HW  HW  EP  OW  HW  
HW  EP  OW  HW  HW  EP  OW  HW  HW  EP  OW  HW  HW  EP  OW  HW  HW  EP  OW  HW  
HW  EP  OW  HW  HW  EP  OW  HW  HW  EP  OW  HW  HW  EP  OW  HW  HW  EP  OW  HW  
HW  EP  OW  HW  HW  EP  OW  HW  HW  EP  OW  HW  HW  EP  OW  HW  HW  EP  OW  HW  
HW  EP  OW  HW  HW  EP  OW  HW  HW  EP  OW  HW  HW  EP  OW  HW  HW  EP  OW  HW  
HW  EP  OW  HW  HW  EP  OW  HW  HW  EP  OW  HW  HW  EP  OW  HW  HW  EP  OW  HW  
HW  EP  OW  HW  HW  EP  OW  HW  HW  EP  OW  HW  HW  EP  OW  HW  HW  EP  OW  HW  
HW  EP  OW  HW  HW  EP  OW  HW  HW  EP  OW  HW  HW  EP  OW  HW  HW  EP  OW  HW  
HW  EP  OW  HW  HW  EP  OW  HW  HW  EP  OW  HW  HW  EP  OW  HW  HW  EP  OW  HW  
HW  EP  OW  HW  HW  EP  OW  HW  HW  EP  OW  HW  HW  EP  OW  HW  HW  EP  OW  HW  
HW  EP  OW  HW  HW  EP  OW  HW  HW  EP  OW  HW  HW  EP  OW  HW  HW  EP  OW  HW  
HW  EP  OW  HW  HW  EP  OW  HW  HW  EP  OW  HW  HW  EP  OW  HW  HW  EP  OW  HW  
HW  EP  OW  HW  HW  EP  OW  HW  HW  EP  OW  HW  HW  EP  OW  HW  HW  EP  OW  HW  
HW  EP  OW  HW  HW  EP  OW  HW  HW  EP  OW  HW  HW  EP  OW  HW  HW  EP  OW  HW  
HW  EP  OW  HW  HW  EP  OW  HW  HW  EP  OW  HW  HW  EP  OW  HW  HW  EP  OW  HW  
HW  EP  OW  HW  HW  EP  OW  HW  HW  EP  OW  HW  HW  EP  OW  HW  HW  EP  OW  HW  
HW  EP  OW  HW  HW  EP  OW  HW  HW  EP  OW  HW  HW  EP  OW  HW  HW  EP  OW  HW  
HW  EP  OW  HW  HW  EP  OW  HW  HW  EP  OW  HW  HW  EP  OW  HW  HW  EP  OW  HW  
HW  EP  OW  HW  HW  EP  OW  HW  HW  EP  OW  HW  HW  EP  OW  HW  HW  EP  OW  HW  
HW  EP  OW  HW  HW  EP  OW  HW  HW  EP  OW  HW  HW  EP  OW  HW  HW  EP  OW  HW  
HW  EP  OW  HW  HW  EP  OW  HW  HW  EP  OW  HW  HW  EP  OW  HW  HW  EP  OW  HW  
HW  EP  OW  HW  HW  EP  OW  HW  HW  EP  OW  HW  HW  EP  OW  HW  HW  EP  OW  HW  
HW  EP  OW  HW  HW  EP  OW  HW  HW  EP  OW  HW  HW  EP  OW  HW  HW  EP  OW  HW  
HW  EP  OW  HW  HW  EP  OW  HW  HW  EP  OW  HW  HW  EP  OW  HW  HW  EP  OW  HW  
HW  EP  OW  HW  HW  EP  OW  HW  HW  EP  OW  HW  HW  EP  OW  HW  HW  EP  OW  HW  
HW  EP  OW  HW  HW  EP  OW  HW  HW  EP  OW  HW  HW  EP  OW  HW  HW  EP  OW  HW  
HW  EP  OW  HW  HW  EP  OW  HW  HW  EP  OW  HW  HW  EP  OW  HW  HW  EP  OW  HW  
HW  EP  OW  HW  HW  EP  OW  HW  HW  EP  OW  HW  HW  EP  OW  HW  HW  EP  OW  HW  
HW  EP  OW  HW  HW  EP  OW  HW  HW  EP  OW  HW  HW  EP  OW  HW  HW  EP  OW  HW  
HW  EP  OW  HW  HW  EP  OW  HW  HW  EP  OW  HW  HW  EP  OW  HW  HW  EP  OW  HW  
HW  EP  OW  HW  HW  EP  OW  HW  HW  EP  OW  HW  HW  EP  OW  HW  HW  EP  OW  HW  
HW  EP  OW  HW  HW  EP  OW  HW  HW  EP  OW  HW  HW  EP  OW  HW  HW  EP  OW  HW  
HW  EP  OW  HW  HW  EP  OW  HW  HW  EP  OW  HW  HW  EP  OW  HW  HW  EP  OW  HW  
HW  EP  OW  HW  HW  EP  OW  HW  HW  EP  OW  HW  HW  EP  OW  HW  HW  EP  OW  HW  
HW  EP  OW  HW  HW  EP  OW  HW  HW  EP  OW  HW  HW  EP  OW  HW  HW  EP  OW  HW  
HW  EP  OW  HW  HW  EP  OW  HW  HW  EP  OW  HW  HW  EP  OW  HW  HW  EP  OW  HW  
HW  EP  OW  HW  HW  EP  OW  HW  HW  EP  OW  HW  HW  EP  OW  HW  HW  EP  OW  HW  
HW  EP  OW  HW  HW  EP  OW  HW  HW  EP  OW  HW  HW  EP  OW  HW  HW  EP  OW  HW  
HW  EP  OW  HW  HW  EP  OW  HW  HW  EP  OW  HW  HW  EP  OW  HW  HW  EP  OW  HW  
HW  EP  OW  HW  HW  EP  OW  HW  HW  EP  OW  HW  HW  EP  OW  HW  HW  EP  OW  HW  
HW  EP  OW  HW  HW  EP  OW  HW  HW  EP  OW  HW  HW  EP  OW  HW  HW  EP  OW  HW  
HW  EP  OW  HW  HW  EP  OW  HW  HW  EP  OW  HW  HW  EP  OW  HW  HW  EP  OW  HW  
HW  EP  OW  HW  HW  EP  OW  HW  HW  EP  OW  HW  HW  EP  OW  HW  HW  EP  OW  HW  
HW  EP  OW  HW  HW  EP  OW  HW  HW  EP  OW  HW  HW  EP  OW  HW  HW  EP  OW  HW  
HW  EP  OW  HW  HW  EP  OW  HW  HW  EP  OW  HW  HW  EP  OW  HW  HW  EP  OW  HW  
HW  EP  OW  HW  HW  EP  OW  HW  HW  EP  OW  HW  HW  EP  OW  HW  HW  EP  OW  HW  
HW  EP  OW  HW  HW  EP  OW  HW  HW  EP  OW  HW  HW  EP  OW  HW  HW  EP  OW  HW  
HW  EP  OW  HW  HW  EP  OW  HW  HW  EP  OW  HW  HW  EP  OW  HW  HW  EP  OW  HW  
HW  EP  OW  HW  HW  EP  OW  HW  HW  EP  OW  HW  HW  EP  OW  HW  HW  EP  OW  HW  
HW  EP  OW  HW  HW  EP  OW  HW  HW  EP  OW  HW  HW  EP  OW  HW  HW  EP  OW  HW  
HW  EP  OW  HW  HW  EP  OW  HW  HW  EP  OW  HW  HW  EP  OW  HW  HW  EP  OW  HW  
HW  EP  OW  HW  HW  EP  OW  HW  HW  EP  OW  HW  HW  EP  OW  HW  HW  EP  OW  HW  
HW  EP  OW  HW  HW  EP  OW  HW  HW  EP  OW  HW  HW  EP  OW  HW  HW  EP  OW  HW  
HW  EP  OW  HW  HW  EP  OW  HW  HW  EP  OW  HW  HW  EP  OW  HW  HW  EP  OW  HW  
HW  EP  OW  HW  HW  EP  OW  HW  HW  EP  OW  HW  HW  EP  OW  HW  HW  EP  OW  HW  
HW  EP  OW  HW  HW  EP  OW  HW  HW  EP  OW  HW  HW  EP  OW  HW  HW  EP  OW  HW  
HW  EP  OW  HW  HW  EP  OW  HW  HW  EP  OW  HW  HW  EP  OW  HW  HW  EP  OW  HW  
HW  EP  OW  HW  HW  EP  OW  HW  HW  EP  OW  HW  HW  EP  OW  HW  HW  EP  OW  HW  
HW  EP  OW  HW  HW  EP  OW  HW  HW  EP  OW  HW  HW  EP  OW  HW  HW  EP  OW  HW  
HW  EP  OW  HW  HW  EP  OW  HW  HW  EP  OW  HW  HW  EP  OW  HW  HW  EP  OW  HW  
HW  EP  OW  HW  HW  EP  OW  HW  HW  EP  OW  HW  HW  EP  OW  HW  HW  EP  OW  HW  
HW  EP  OW  HW  HW  EP  OW  HW  HW  EP  OW  HW  HW  EP  OW  HW  HW  EP  OW  HW  
HW  EP  OW  HW  HW  EP  OW  HW  HW  EP  OW  HW  HW  EP  OW  HW  HW  EP  OW  HW  
HW  EP  OW  HW  HW  EP  OW  HW  HW  EP  OW  HW  HW  EP  OW  HW  HW  EP  OW  HW  
HW  EP  OW  HW  HW  EP  OW  HW  HW  EP  OW  HW  HW  EP  OW  HW  HW  EP  OW  HW  
HW  EP  OW  HW  HW  EP  OW  HW  HW  EP  OW  HW  HW  EP  OW  HW  HW  EP  OW  HW  
HW  EP  OW  HW  HW  EP  OW  HW  HW  EP  OW  HW  HW  EP  OW  HW  HW  EP  OW  HW  
HW  EP  OW  HW  HW  EP  OW  HW  HW  EP  OW  HW  HW  EP  OW  HW  HW  EP  OW  HW  
HW  EP  OW  HW  HW  EP  OW  HW  HW  EP  OW  HW  HW  EP  OW  HW  HW  EP  OW  HW  
HW  EP  OW  HW  HW  EP  OW  HW  HW  EP  OW  HW  HW  EP  OW  HW  HW  EP  OW  HW  
HW  EP  OW  HW  HW  EP  OW  HW  HW  EP  OW  HW  HW  EP  OW  HW  HW  EP  OW  HW  
HW  EP  OW  HW  HW  EP  OW  HW  HW  EP  OW  HW  HW  EP  OW  HW  HW  EP  OW  HW  
HW  EP  OW  HW  HW  EP  OW  HW  HW  EP  OW  HW  HW  EP  OW  HW  HW  EP  OW  HW  
HW  EP  OW  HW  HW  EP  OW  HW  HW  EP  OW  HW  HW  EP  OW  HW  HW  EP  OW  HW  
HW  EP  OW  HW  HW  EP  OW  HW  HW  EP  OW  HW  HW  EP  OW  HW  HW  EP  OW  HW  
HW  EP  OW  HW  HW  EP  OW  HW  HW  EP  OW  HW  HW  EP  OW  HW  HW  EP  OW  HW  
HW  EP  OW  HW  HW  EP  OW  HW  HW  EP  OW  HW  HW  EP  OW  HW  HW  EP  OW  HW  
HW  EP  OW  HW  HW  EP  OW  HW  HW  EP  OW  HW  HW  EP  OW  HW  HW  EP  OW  HW  
HW  EP  OW  HW  HW  EP  OW  HW  HW  EP  OW  HW  HW  EP  OW  HW  HW  EP  OW  HW  
HW  EP  OW  HW  HW  EP  OW  HW  HW  EP  OW  HW  HW  EP  OW  HW  HW  EP  OW  HW  
HW  EP  OW  HW  HW  EP  OW  HW  HW  EP  OW  HW  HW  EP  OW  HW  HW  EP  OW  HW  
HW  EP  OW  HW  HW  EP  OW  HW  HW  EP  OW  HW  HW  EP  OW  HW  HW  EP  OW  HW  
HW  EP  OW  HW  HW  EP  OW  HW  HW  EP  OW  HW  HW  EP  OW  HW  HW  EP  OW  HW  
HW  EP  OW  HW  HW  EP  OW  HW  HW  EP  OW  HW  HW  EP  OW  HW  HW  EP  OW  HW  
HW  EP  OW  HW  HW  EP  OW  HW  HW  EP  OW  HW  HW  EP  OW  HW  HW  EP  OW  HW  
HW  EP  OW  HW  HW  EP  OW  HW  HW  EP  OW  HW  HW  EP  OW  HW  HW  EP  OW  HW  
HW  EP  OW  HW  HW  EP  OW  HW  HW  EP  OW  HW  HW  EP  OW  HW  HW  EP  OW  HW  
HW  EP  OW  HW  HW  EP  OW  HW  HW  EP  OW  HW  HW  EP  OW  HW  HW  EP  OW  HW  
HW  EP  OW  HW  HW  EP  OW  HW  HW  EP  OW  HW  HW  EP  OW  HW  HW  EP  OW  HW  
HW  EP  OW  HW  HW  EP  OW  HW  HW  EP  OW  HW  HW  EP  OW  HW  HW  EP  OW  HW  
HW  EP  OW  HW  HW  EP  OW  HW  HW  EP  OW  HW  HW  EP  OW  HW  HW  EP  OW  HW  
HW  EP  OW  HW  HW  EP  OW  HW  HW  EP  OW  HW  HW  EP  OW  HW  HW  EP  OW  HW  
HW  EP  OW  HW  HW  EP  OW  HW  HW  EP  OW  HW  HW  EP  OW  HW  HW  EP  OW  HW  
HW  EP  OW  HW  HW  EP  OW  HW  HW  EP  OW  HW  HW  EP  OW  HW  HW  EP  OW  HW  
HW  EP  OW  HW  HW  EP  OW  HW  HW  EP  OW  HW  HW  EP  OW  HW  HW  EP  OW  HW  
HW  EP  OW  HW  HW  EP  OW  HW  HW  EP  OW  HW  HW  EP  OW  HW  HW  EP  OW  HW  
HW  EP  OW  HW  HW  EP  OW  HW  HW  EP  OW  HW  HW  EP  OW  HW  HW  EP  OW  HW  
HW  EP  OW  HW  HW  EP  OW  HW  HW  EP  OW  HW  HW  EP  OW  HW  HW  EP  OW  HW  
HW  EP  OW  HW  HW  EP  OW  HW  HW  EP  OW  HW  HW  EP  OW  HW  HW  EP  OW  HW  
HW  EP  OW  HW  HW  EP  OW  HW  HW  EP  OW  HW  HW  EP  OW  HW  HW  EP  OW  HW  
HW  EP  OW  HW  HW  EP  OW  HW  HW  EP  OW  HW  HW  EP  OW  HW  HW  EP  OW  HW  
HW  EP  OW  HW  HW  EP  OW  HW  HW  EP  OW  HW  HW  EP  OW  HW  HW  EP  OW  HW  
HW  EP  OW  HW  HW  EP  OW  HW  HW  EP  OW  HW  HW  EP  OW  HW  HW  EP  OW  HW  
HW  EP  OW  HW  HW  EP  OW  HW  HW  EP  OW  HW  HW  EP  OW  HW  HW  EP  OW  HW  
HW  EP  OW  HW  HW  EP  OW  HW  HW  EP  OW  HW  HW  EP  OW  HW  HW  EP  OW  HW  
HW  EP  OW  HW  HW  EP  OW  HW  HW  EP  OW  HW  HW  EP  OW  HW  HW  EP  OW  HW  
HW  EP  OW  HW  HW  EP  OW  HW  HW  EP  OW  HW  HW  EP  OW  HW  HW  EP  OW  HW  
HW  EP  OW  HW  HW  EP  OW  HW  HW  EP  OW  HW  HW  EP  OW  HW  HW  EP  OW  HW  
HW  EP  OW  HW  HW  EP  OW  HW  HW  EP  OW  HW  HW  EP  OW  HW  HW  EP  OW  HW  
HW  EP  OW  HW  HW  EP  OW  HW  HW  EP  OW  HW  HW  EP  OW  HW  HW  EP  OW  HW  
HW  EP  OW  HW  HW  EP  OW  HW  HW  EP  OW  HW  HW  EP  OW  HW  HW  EP  OW  HW  
HW  EP  OW  HW  HW  EP  OW  HW  HW  EP  OW  HW  HW  EP  OW  HW  HW  EP  OW  HW  
HW  EP  OW  HW  HW  EP  OW  HW  HW  EP  OW  HW  HW  EP  OW  HW  HW  EP  OW  HW  
HW  EP  OW  HW  HW  EP  OW  HW  HW  EP  OW  HW  HW  EP  OW  HW  HW  EP  OW  HW  
HW  EP  OW  HW  HW  EP  OW  HW  HW  EP  OW  HW  HW  EP  OW  HW  HW  EP  OW  HW  
HW  EP  OW  HW  HW  EP  OW  HW  HW  EP  OW  HW  HW  EP  OW  HW  HW  EP  OW  HW  
HW  EP  OW  HW  HW  EP  OW  HW  HW  EP  OW  HW  HW  EP  OW  HW  HW  EP  OW  HW  
HW  EP  OW  HW  HW  EP  OW  HW  HW  EP  OW  HW  HW  EP  OW  HW  HW  EP  OW  HW  
HW  EP  OW  HW  HW  EP  OW  HW  HW  EP  OW  HW  HW  EP  OW  HW  HW  EP  OW  HW  
HW  EP  OW  HW  HW  EP  OW  HW  HW  EP  OW  HW  HW  EP  OW  HW  HW  EP  OW  HW  
HW  EP  OW  HW  HW  EP  OW  HW  HW  EP  OW  HW  HW  EP  OW  HW  HW  EP  OW  HW  
HW  EP  OW  HW  HW  EP  OW  HW  HW  EP  OW  HW  HW  EP  OW  HW  HW  EP  OW  HW  
HW  EP  OW  HW  HW  EP  OW  HW  HW  EP  OW  HW  HW  EP  OW  HW  HW  EP  OW  HW  
HW  EP  OW  HW  HW  EP  OW  HW  HW  EP  OW  HW  HW  EP  OW  HW  HW  EP  OW  HW  
HW  EP  OW  HW  HW  EP  OW  HW  HW  EP  OW  HW  HW  EP  OW  HW  HW  EP  OW  HW  
HW  EP  OW  HW  HW  EP  OW  HW  HW  EP  OW  HW  HW  EP  OW  HW  HW  EP  OW  HW  
HW  EP  OW  HW  HW  EP  OW  HW  HW  EP  OW  HW  HW  EP  OW  HW  HW  EP  OW  HW  
HW  EP  OW  HW  HW  EP  OW  HW  HW  EP  OW  HW  HW  EP  OW  HW  HW  EP  OW  HW  
HW  EP  OW  HW  HW  EP  OW  HW  HW  EP  OW  HW  HW  EP  OW  HW  HW  EP  OW  HW  
HW  EP  OW  HW  HW  EP  OW  HW  HW  EP  OW  HW  HW  EP  OW  HW  HW  EP  OW  HW  
HW  EP  OW  HW  HW  EP  OW  HW  HW  EP  OW  HW  HW  EP  OW  HW  HW  EP  OW  HW  
HW  EP  OW  HW  HW  EP  OW  HW  HW  EP  OW  HW  HW  EP  OW  HW  HW  EP  OW  HW  
HW  EP  OW  HW  HW  EP  OW  HW  HW  EP  OW  HW  HW  EP  OW  HW  HW  EP  OW  HW  
HW  EP  OW  HW  HW  EP  OW  HW  HW  EP  OW  HW  HW  EP  OW  HW  HW  EP  OW  HW  
HW  EP  OW  HW  HW  EP  OW  HW  HW  EP  OW  HW  HW  EP  OW  HW  HW  EP  OW  HW  
HW  EP  OW  HW  HW  EP  OW  HW  HW  EP  OW  HW  HW  EP  OW  HW  HW  EP  OW  HW  
HW  EP  OW  HW  HW  EP  OW  HW  HW  EP  OW  HW  HW  EP  OW  HW  HW  EP  OW  HW  
HW  EP  OW  HW  HW  EP  OW  HW  HW  EP  OW  HW  HW  EP  OW  HW  HW  EP  OW  HW  
HW  EP  OW  HW  HW  EP  OW  HW  HW  EP  OW  HW  HW  EP  OW  HW  HW  EP  OW  HW  
HW  EP  OW  HW  HW  EP  OW  HW  HW  EP  OW  HW  HW  EP  OW  HW  HW  EP  OW  HW  
HW  EP  OW  HW  HW  EP  OW  HW  HW  EP  OW  HW  HW  EP  OW  HW  HW  EP  OW  HW  
HW  EP  OW  HW  HW  EP  OW  HW  HW  EP  OW  HW  HW  EP  OW  HW  HW  EP  OW  HW  
HW  EP  OW  HW  HW  EP  OW  HW  HW  EP  OW  HW  HW  EP  OW  HW  HW  EP  OW  HW  
HW  EP  OW  HW  HW  EP  OW  HW  HW  EP  OW  HW  HW  EP  OW  HW  HW  EP  OW  HW  
HW  EP  OW  HW  HW  EP  OW  HW  HW  EP  OW  HW  HW  EP  OW  HW  HW  EP  OW  HW  
HW  EP  OW  HW  HW  EP  OW  HW  HW  EP  OW  HW  HW  EP  OW  HW  HW  EP  OW  HW  
HW  EP  OW  HW  HW  EP  OW  HW  HW  EP  OW  HW  HW  EP  OW  HW  HW  EP  OW  HW  
HW  EP  OW  HW  HW  EP  OW  HW  HW  EP  OW  HW  HW  EP  OW  HW  HW  EP  OW  HW  
HW  EP  OW  HW  HW  EP  OW  HW  HW  EP  OW  HW  HW  EP  OW  HW  HW  EP  OW  HW  
HW  EP  OW  HW  HW  EP  OW  HW  HW  EP  OW  HW  HW  EP  OW  HW  HW  EP  OW  HW  
HW  EP  OW  HW  HW  EP  OW  HW  HW  EP  OW  HW  HW  EP  OW  HW  HW  EP  OW  HW  
HW  EP  OW  HW  HW  EP  OW  HW  HW  EP  OW  HW  HW  EP  OW  HW  HW  EP  OW  HW  
HW  EP  OW  HW  HW  EP  OW  HW  HW  EP  OW  HW  HW  EP  OW  HW  HW  EP  OW  HW  
HW  EP  OW  HW  HW  EP  OW  HW  HW  EP  OW  HW  HW  EP  OW  HW  HW  EP  OW  HW  
HW  EP  OW  HW  HW  EP  OW  HW  HW  EP  OW  HW  HW  EP  OW  HW  HW  EP  OW  HW  
HW  EP  OW  HW  HW  EP  OW  HW  HW  EP  OW  HW  HW  EP  OW  HW  HW  EP  OW  HW  
HW  EP  OW  HW  HW  EP  OW  HW  HW  EP  OW  HW  HW  EP  OW  HW  HW  EP  OW  HW  
HW  EP  OW  HW  HW  EP  OW  HW  HW  EP  OW  HW  HW  EP  OW  HW  HW  EP  OW  HW  
HW  EP  OW  HW  HW  EP  OW  HW  HW  EP  OW  HW  HW  EP  OW  HW  HW  EP  OW  HW  
HW  EP  OW  HW  HW  EP  OW  HW  HW  EP  OW  HW  HW  EP  OW  HW  HW  EP  OW  HW  
HW  EP  OW  HW  HW  EP  OW  HW  HW  EP  OW  HW  HW  EP  OW  HW  HW  EP  OW  HW  
HW  EP  OW  HW  HW  EP  OW  HW  HW  EP  OW  HW  HW  EP  OW  HW  HW  EP  OW  HW  
HW  EP  OW  HW  HW  EP  OW  HW  HW  EP  OW  HW  HW  EP  OW  HW  HW  EP  OW  HW  
HW  EP  OW  HW  HW  EP  OW  HW  HW  EP  OW  HW  HW  EP  OW  HW  HW  EP  OW  HW  
HW  EP  OW  HW  HW  EP  OW  HW  HW  EP  OW  HW  HW  EP  OW  HW  HW  EP  OW  HW  
HW  EP  OW  HW  HW  EP  OW  HW  HW  EP  OW  HW  HW  EP  OW  HW  HW  EP  OW  HW  
HW  EP  OW  HW  HW  EP  OW  HW  HW  EP  OW  HW  HW  EP  OW  HW  HW  EP  OW  HW  
HW  EP  OW  HW  HW  EP  OW  HW  HW  EP  OW  HW  HW  EP  OW  HW  HW  EP  OW  HW  
HW  EP  OW  HW  HW  EP  OW  HW  HW  EP  OW  HW  HW  EP  OW  HW  HW  EP  OW  HW  
HW  EP  OW  HW  HW  EP  OW  HW  HW  EP  OW  HW  HW  EP  OW  HW  HW  EP  OW  HW  
HW  EP  OW  HW  HW  EP  OW  HW  HW  EP  OW  HW  HW  EP  OW  HW  HW  EP  OW  HW  
HW  EP  OW  HW  HW  EP  OW  HW  HW  EP  OW  HW  HW  EP  OW  HW  HW  EP  OW  HW  
HW  EP  OW  HW  HW  EP  OW  HW  HW  EP  OW  HW  HW  EP  OW  HW  HW  EP  OW  HW  
HW  EP  OW  HW  HW  EP  OW  HW  HW  EP  OW  HW  HW  EP  OW  HW  HW  EP  OW  HW  
HW  EP  OW  HW  HW  EP  OW  HW  HW  EP  OW  HW  HW  EP  OW  HW  HW  EP  OW  HW  
HW  EP  OW  HW  HW  EP  OW  HW  HW  EP  OW  HW  HW  EP  OW  HW  HW  EP  OW  HW  
HW  EP  OW  HW  HW  EP  OW  HW  HW  EP  OW  HW  HW  EP  OW  HW  HW  EP  OW  HW  
HW  EP  OW  HW  HW  EP  OW  HW  HW  EP  OW  HW  HW  EP  OW  HW  HW  EP  OW  HW  
HW  EP  OW  HW  HW  EP  OW  HW  HW  EP  OW  HW  HW  EP  OW  HW  HW  EP  OW  HW  
HW  EP  OW  HW  HW  EP  OW  HW  HW  EP  OW  HW  HW  EP  OW  HW  HW  EP  OW  HW  
HW  EP  OW  HW  HW  EP  OW  HW  HW  EP  OW  HW  HW  EP  OW  HW  HW  EP  OW  HW  
HW  EP  OW  HW  HW  EP  OW  HW  HW  EP  OW  HW  HW  EP  OW  HW  HW  EP  OW  HW  
HW  EP  OW  HW  HW  EP  OW  HW  HW  EP  OW  HW  HW  EP  OW  HW  HW  EP  OW  HW  
HW  EP  OW  HW  HW  EP  OW  HW  HW  EP  OW  HW  HW  EP  OW  HW  HW  EP  OW  HW  
HW  EP  OW  HW  HW  EP  OW  HW  HW  EP  OW  HW  HW  EP  OW  HW  HW  EP  OW  HW  
HW  EP  OW  HW  HW  EP  OW  HW  HW  EP  OW  HW  HW  EP  OW  HW  HW  EP  OW  HW  
HW  EP  OW  HW  HW  EP  OW  HW  HW  EP  OW  HW  HW  EP  OW  HW  HW  EP  OW  HW  
HW  EP  OW  HW  HW  EP  OW  HW  HW  EP  OW  HW  HW  EP  OW  HW  HW  EP  OW  HW  
HW  EP  OW  HW  HW  EP  OW  HW  HW  EP  OW  HW  HW  EP  OW  HW  HW  EP  OW  HW  
HW  EP  OW  HW  HW  EP  OW  HW  HW  EP  OW  HW  HW  EP  OW  HW  HW  EP  OW  HW  
HW  EP  OW  HW  HW  EP  OW  HW  HW  EP  OW  HW  HW  EP  OW  HW  HW  EP  OW  HW  
HW  EP  OW  HW  HW  EP  OW  HW  HW  EP  OW  HW  HW  EP  OW  HW  HW  EP  OW  HW  
HW  EP  OW  HW  HW  EP  OW  HW  HW  EP  OW  HW  HW  EP  OW  HW  HW  EP  OW  HW  
HW  EP  OW  HW  HW  EP  OW  HW  HW  EP  OW  HW  HW  EP  OW  HW  HW  EP  OW  HW  
HW  EP  OW  HW  HW  EP  OW  HW  HW  EP  OW  HW  HW  EP  OW  HW  HW  EP  OW  HW  
HW  EP  OW  HW  HW  EP  OW  HW  HW  EP  OW  HW  HW  EP  OW  HW  HW  EP  OW  HW  
HW  EP  OW  HW  HW  EP  OW  HW  HW  EP  OW  HW  HW  EP  OW  HW  HW  EP  OW  HW  
HW  EP  OW  HW  HW  EP  OW  HW  HW  EP  OW  HW  HW  EP  OW  HW  HW  EP  OW  HW  
HW  EP  OW  HW  HW  EP  OW  HW  HW  EP  OW  HW  HW  EP  OW  HW  HW  EP  OW  HW  
HW  EP  OW  HW  HW  EP  OW  HW  HW  EP  OW  HW  HW  EP  OW  HW  HW  EP  OW  HW  
HW  EP  OW  HW  HW  EP  OW  HW  HW  EP  OW  HW  HW  EP  OW  HW  HW  EP  OW  HW  
HW  EP  OW  HW  HW  EP  OW  HW  HW  EP  OW  HW  HW  EP  OW  HW  HW  EP  OW  HW  
HW  EP  OW  HW  HW  EP  OW  HW  HW  EP  OW  HW  HW  EP  OW  HW  HW  EP  OW  HW  
HW  EP  OW  HW  HW  EP  OW  HW  HW  EP  OW  HW  HW  EP  OW  HW  HW  EP  OW  HW  
HW  EP  OW  HW  HW  EP  OW  HW  HW  EP  OW  HW  HW  EP  OW  HW  HW  EP  OW  HW  
HW  EP  OW  HW  HW  EP  OW  HW  HW  EP  OW  HW  HW  EP  OW  HW  HW  EP  OW  HW  
HW  EP  OW  HW  HW  EP  OW  HW  HW  EP  OW  HW  HW  EP  OW  HW  HW  EP  OW  HW  
HW  EP  OW  HW  HW  EP  OW  HW  HW  EP  OW  HW  HW  EP  OW  HW  HW  EP  OW  HW  
HW  EP  OW  HW  HW  EP  OW  HW  HW  EP  OW  HW  HW  EP  OW  HW  HW  EP  OW  HW  
HW  EP  OW  HW  HW  EP  OW  HW  HW  EP  OW  HW  HW  EP  OW  HW  HW  EP  OW  HW  
HW  EP  OW  HW  HW  EP  OW  HW  HW  EP  OW  HW  HW  EP  OW  HW  HW  EP  OW  HW  
HW  EP  OW  HW  HW  EP  OW  HW  HW  EP  OW  HW  HW  EP  OW  HW  HW  EP  OW  HW  
HW  EP  OW  HW  HW  EP  OW  HW  HW  EP  OW  HW  HW  EP  OW  HW  HW  EP  OW  HW  
HW  EP  OW  HW  HW  EP  OW  HW  HW  EP  OW  HW  HW  EP  OW  HW  HW  EP  OW  HW  
HW  EP  OW  HW  HW  EP  OW  HW  HW  EP  OW  HW  HW  EP  OW  HW  HW  EP  OW  HW  
HW  EP  OW  HW  HW  EP  OW  HW  HW  EP  OW  HW  HW  EP  OW  HW  HW  EP  OW  HW  
HW  EP  OW  HW  HW  EP  OW  HW  HW  EP  OW  HW  HW  EP  OW  HW  HW  EP  OW  HW  
HW  EP  OW  HW  HW  EP  OW  HW  HW  EP  OW  HW  HW  EP  OW  HW  HW  EP  OW  HW  
HW  EP  OW  HW  HW  EP  OW  HW  HW  EP  OW  HW  HW  EP  OW  HW  HW  EP  OW  HW  
HW  EP  OW  HW  HW  EP  OW  HW  HW  EP  OW  HW  HW  EP  OW  HW  HW  EP  OW  HW  
HW  EP  OW  HW  HW  EP  OW  HW  HW  EP  OW  HW  HW  EP  OW  HW  HW  EP  OW  HW  
HW  EP  OW  HW  HW  EP  OW  HW  HW  EP  OW  HW  HW  EP  OW  HW  HW  EP  OW  HW  
HW  EP  OW  HW  HW  EP  OW  HW  HW  EP  OW  HW  HW  EP  OW  HW  HW  EP  OW  HW  
HW  EP  OW  HW  HW  EP  OW  HW  HW  EP  OW  HW  HW  EP  OW  HW  HW  EP  OW  HW  
HW  EP  OW  HW  HW  EP  OW  HW  HW  EP  OW  HW  HW  EP  OW  HW  HW  EP  OW  HW  
HW  EP  OW  HW  HW  EP  OW  HW  HW  EP  OW  HW  HW  EP  OW  HW  HW  EP  OW  HW  
HW  EP  OW  HW  HW  EP  OW  HW  HW  EP  OW  HW  HW  EP  OW  HW  HW  EP  OW  HW  
HW  EP  OW  HW  HW  EP  OW  HW  HW  EP  OW  HW  HW  EP  OW  HW  HW  EP  OW  HW  
HW  EP  OW  HW  HW  EP  OW  HW  HW  EP  OW  HW  HW  EP  OW  HW  HW  EP  OW  HW  
HW  EP  OW  HW  HW  EP  OW  HW  HW  EP  OW  HW  HW  EP  OW  HW  HW  EP  OW  HW  
HW  EP  OW  HW  HW  EP  OW  HW  HW  EP  OW  HW  HW  EP  OW  HW  HW  EP  OW  HW  
HW  EP  OW  HW  HW  EP  OW  HW  HW  EP  OW  HW  HW  EP  OW  HW  HW  EP  OW  HW  
HW  EP  OW  HW  HW  EP  OW  HW  HW  EP  OW  HW  HW  EP  OW  HW  HW  EP  OW  HW  
HW  EP  OW  HW  HW  EP  OW  HW  HW  EP  OW  HW  HW  EP  OW  HW  HW  EP  OW  HW  
HW  EP  OW  HW  HW  EP  OW  HW  HW  EP  OW  HW  HW  EP  OW  HW  HW  EP  OW  HW  
HW  EP  OW  HW  HW  EP  OW  HW  HW  EP  OW  HW  HW  EP  OW  HW  HW  EP  OW  HW  
HW  EP  OW  HW  HW  EP  OW  HW  HW  EP  OW  HW  HW  EP  OW  HW  HW  EP  OW  HW  
HW  EP  OW  HW  HW  EP  OW  HW  HW  EP  OW  HW  HW  EP  OW  HW  HW  EP  OW  HW  
HW  EP  OW  HW  HW  EP  OW  HW  HW  EP  OW  HW  HW  EP  OW  HW  HW  EP  OW  HW  
HW  EP  OW  HW  HW  EP  OW  HW  HW  EP  OW  HW  HW  EP  OW  HW  HW  EP  OW  HW  
HW  EP  OW  HW  HW  EP  OW  HW  HW  EP  OW  HW  HW  EP  OW  HW  HW  EP  OW  HW  
HW  EP  OW  HW  HW  EP  OW  HW  HW  EP  OW  HW  HW  EP  OW  HW  HW  EP  OW  HW  
HW  EP  OW  HW  HW  EP  OW  HW  HW  EP  OW  HW  HW  EP  OW  HW  HW  EP  OW  HW  
HW  EP  OW  HW  HW  EP  OW  HW  HW  EP  OW  HW  HW  EP  OW  HW  HW  EP  OW  HW  
HW  EP  OW  HW  HW  EP  OW  HW  HW  EP  OW  HW  HW  EP  OW  HW  HW  EP  OW  HW  
HW  EP  OW  HW  HW  EP  OW  HW  HW  EP  OW  HW  HW  EP  OW  HW  HW  EP  OW  HW  
HW  EP  OW  HW  HW  EP  OW  HW  HW  EP  OW  HW  HW  EP  OW  HW  HW  EP  OW  HW  
HW  EP  OW  HW  HW  EP  OW  HW  HW  EP  OW  HW  HW  EP  OW  HW  HW  EP  OW  HW  
HW  EP  OW  HW  HW  EP  OW  HW  HW  EP  OW  HW  HW  EP  OW  HW  HW  EP  OW  HW  
HW  EP  OW  HW  HW  EP  OW  HW  HW  EP  OW  HW  HW  EP  OW  HW  HW  EP  OW  HW  
HW  EP  OW  HW  HW  EP  OW  HW  HW  EP  OW  HW  HW  EP  OW  HW  HW  EP  OW  HW  
HW  EP  OW  HW  HW  EP  OW  HW  HW  EP  OW  HW  HW  EP  OW  HW  HW  EP  OW  HW  
HW  EP  OW  HW  HW  EP  OW  HW  HW  EP  OW  HW  HW  EP  OW  HW  HW  EP  OW  HW  
HW  EP  OW  HW  HW  EP  OW  HW  HW  EP  OW  HW  HW  EP  OW  HW  HW  EP  OW  HW  
HW  EP  OW  HW  HW  EP  OW  HW  HW  EP  OW  HW  HW  EP  OW  HW  HW  EP  OW  HW  
HW  EP  OW  HW  HW  EP  OW  HW  HW  EP  OW  HW  HW  EP  OW  HW  HW  EP  OW  HW  
HW  EP  OW  HW  HW  EP  OW  HW  HW  EP  OW  HW  HW  EP  OW  HW  HW  EP  OW  HW  
HW  EP  OW  HW  HW  EP  OW  HW  HW  EP  OW  HW  HW  EP  OW  HW  HW  EP  OW  HW  
HW  EP  OW  HW  HW  EP  OW  HW  HW  EP  OW  HW  HW  EP  OW  HW  HW  EP  OW  HW  
HW  EP  OW  HW  HW  EP  OW  HW  HW  EP  OW  HW  HW  EP  OW  HW  HW  EP  OW  HW  
HW  EP  OW  HW  HW  EP  OW  HW  HW  EP  OW  HW  HW  EP  OW  HW  HW  EP  OW  HW  
HW  EP  OW  HW  HW  EP  OW  HW  HW  EP  OW  HW  HW  EP  OW  HW  HW  EP  OW  HW  
HW  EP  OW  HW  HW  EP  OW  HW  HW  EP  OW  HW  HW  EP  OW  HW  HW  EP  OW  HW  
HW  EP  OW  HW  HW  EP  OW  HW  HW  EP  OW  HW  HW  EP  OW  HW  HW  EP  OW  HW  
HW  EP  OW  HW  HW  EP  OW  HW  HW  EP  OW  HW  HW  EP  OW  HW  HW  EP  OW  HW  
HW  EP  OW  HW  HW  EP  OW  HW  HW  EP  OW  HW  HW  EP  OW  HW  HW  EP  OW  HW  
HW  EP  OW  HW  HW  EP  OW  HW  HW  EP  OW  HW  HW  EP  OW  HW  HW  EP  OW  HW  
HW  EP  OW  HW  HW  EP  OW  HW  HW  EP  OW  HW  HW  EP  OW  HW  HW  EP  OW  HW  
HW  EP  OW  HW  HW  EP  OW  HW  HW  EP  OW  HW  HW  EP  OW  HW  HW  EP  OW  HW  
HW  EP  OW  HW  HW  EP  OW  HW  HW  EP  OW  HW  HW  EP  OW  HW  HW  EP  OW  HW  
HW  EP  OW  HW  HW  EP  OW  HW  HW  EP  OW  HW  HW  EP  OW  HW  HW  EP  OW  HW  
HW  EP  OW  HW  HW  EP  OW  HW  HW  EP  OW  HW  HW  EP  OW  HW  HW  EP  OW  HW  
HW  EP  OW  HW  HW  EP  OW  HW  HW  EP  OW  HW  HW  EP  OW  HW  HW  EP  OW  HW  
HW  EP  OW  HW  HW  EP  OW  HW  HW  EP  OW  HW  HW  EP  OW  HW  HW  EP  OW  HW  
HW  EP  OW  HW  HW  EP  OW  HW  HW  EP  OW  HW  HW  EP  OW  HW  HW  EP  OW  HW  
HW  EP  OW  HW  HW  EP  OW  HW  HW  EP  OW  HW  HW  EP  OW  HW  HW  EP  OW  HW  
HW  EP  OW  HW  HW  EP  OW  HW  HW  EP  OW  HW  HW  EP  OW  HW  HW  EP  OW  HW  
HW  EP  OW  HW  HW  EP  OW  HW  HW  EP  OW  HW  HW  EP  OW  HW  HW  EP  OW  HW  
HW  EP  OW  HW  HW  EP  OW  HW  HW  EP  OW  HW  HW  EP  OW  HW  HW  EP  OW  HW  
HW  EP  OW  HW  HW  EP  OW  HW  HW  EP  OW  HW  HW  EP  OW  HW  HW  EP  OW  HW  
HW  EP  OW  HW  HW  EP  OW  HW  HW  EP  OW  HW  HW  EP  OW  HW  HW  EP  OW  HW  
HW  EP  OW  HW  HW  EP  OW  HW  HW  EP  OW  HW  HW  EP  OW  HW  HW  EP  OW  HW  
HW  EP  OW  HW  HW  EP  OW  HW  HW  EP  OW  HW  HW  EP  OW  HW  HW  EP  OW  HW  
HW  EP  OW  HW  HW  EP  OW  HW  HW  EP  OW  HW  HW  EP  OW  HW  HW  EP  OW  HW  
HW  EP  OW  HW  HW  EP  OW  HW  HW  EP  OW  HW  HW  EP  OW  HW  HW  EP  OW  HW  
HW  EP  OW  HW  HW  EP  OW  HW  HW  EP  OW  HW  HW  EP  OW  HW  HW  EP  OW  HW  
HW  EP  OW  HW  HW  EP  OW  HW  HW  EP  OW  HW  HW  EP  OW  HW  HW  EP  OW  HW  
HW  EP  OW  HW  HW  EP  OW  HW  HW  EP  OW  HW  HW  EP  OW  HW  HW  EP  OW  HW  
HW  EP  OW  HW  HW  EP  OW  HW  HW  EP  OW  HW  HW  EP  OW  HW  HW  EP  OW  HW  
HW  EP  OW  HW  HW  EP  OW  HW  HW  EP  OW  HW  HW  EP  OW  HW  HW  EP  OW  HW  
HW  EP  OW  HW  HW  EP  OW  HW  HW  EP  OW  HW  HW  EP  OW  HW  HW  EP  OW  HW  
HW  EP  OW  HW  HW  EP  OW  HW  HW  EP  OW  HW  HW  EP  OW  HW  HW  EP  OW  HW  
HW  EP  OW  HW  HW  EP  OW  HW  HW  EP  OW  HW  HW  EP  OW  HW  HW  EP  OW  HW  
HW  EP  OW  HW  HW  EP  OW  HW  HW  EP  OW  HW  HW  EP  OW  HW  HW  EP  OW  HW  
HW  EP  OW  HW  HW  EP  OW  HW  HW  EP  OW  HW  HW  EP  OW  HW  HW  EP  OW  HW  
HW  EP  OW  HW  HW  EP  OW  HW  HW  EP  OW  HW  HW  EP  OW  HW  HW  EP  OW  HW  
HW  EP  OW  HW  HW  EP  OW  HW  HW  EP  OW  HW  HW  EP  OW  HW  HW  EP  OW  HW  
HW  EP  OW  HW  HW  EP  OW  HW  HW  EP  OW  HW  HW  EP  OW  HW  HW  EP  OW  HW  
HW  EP  OW  HW  HW  EP  OW  HW  HW  EP  OW  HW  HW  EP  OW  HW  HW  EP  OW  HW  
HW  EP  OW  HW  HW  EP  OW  HW  HW  EP  OW  HW  HW  EP  OW  HW  HW  EP  OW  HW  
HW  EP  OW  HW  HW  EP  OW  HW  HW  EP  OW  HW  HW  EP  OW  HW  HW  EP  OW  HW  
HW  EP  OW  HW  HW  EP  OW  HW  HW  EP  OW  HW  HW  EP  OW  HW  HW  EP  OW  HW  
HW  EP  OW  HW  HW  EP  OW  HW  HW  EP  OW  HW  HW  EP  OW  HW  HW  EP  OW  HW  
HW  EP  OW  HW  HW  EP  OW  HW  HW  EP  OW  HW  HW  EP  OW  HW  HW  EP  OW  HW  
HW  EP  OW  HW  HW  EP  OW  HW  HW  EP  OW  HW  HW  EP  OW  HW  HW  EP  OW  HW  
HW  EP  OW  HW  HW  EP  OW  HW  HW  EP  OW  HW  HW  EP  OW  HW  HW  EP  OW  HW  
HW  EP  OW  HW  HW  EP  OW  HW  HW  EP  OW  HW  HW  EP  OW  HW  HW  EP  OW  HW  
HW  EP  OW  HW  HW  EP  OW  HW  HW  EP  OW  HW  HW  EP  OW  HW  HW  EP  OW  HW  
HW  EP  OW  HW  HW  EP  OW  HW  HW  EP  OW  HW  HW  EP  OW  HW  HW  EP  OW  HW  
HW  EP  OW  HW  HW  EP  OW  HW  HW  EP  OW  HW  HW  EP  OW  HW  HW  EP  OW  HW  
HW  EP  OW  HW  HW  EP  OW  HW  HW  EP  OW  HW  HW  EP  OW  HW  HW  EP  OW  HW  
HW  EP  OW  HW  HW  EP  OW  HW  HW  EP  OW  HW  HW  EP  OW  HW  HW  EP  OW  HW  
HW  EP  OW  HW  HW  EP  OW  HW  HW  EP  OW  HW  HW  EP  OW  HW  HW  EP  OW  HW  
HW  EP  OW  HW  HW  EP  OW  HW  HW  EP  OW  HW  HW  EP  OW  HW  HW  EP  OW  HW  
HW  EP  OW  HW  HW  EP  OW  HW  HW  EP  OW  HW  HW  EP  OW  HW  HW  EP  OW  HW  
HW  EP  OW  HW  HW  EP  OW  HW  HW  EP  OW  HW  HW  EP  OW  HW  HW  EP  OW  HW  
HW  EP  OW  HW  HW  EP  OW  HW  HW  EP  OW  HW  HW  EP  OW  HW  HW  EP  OW  HW  
HW  EP  OW  HW  HW  EP  OW  HW  HW  EP  OW  HW  HW  EP  OW  HW  HW  EP  OW  HW  
HW  EP  OW  HW  HW  EP  OW  HW  HW  EP  OW  HW  HW  EP  OW  HW  HW  EP  OW  HW  
HW  EP  OW  HW  HW  EP  OW  HW  HW  EP  OW  HW  HW  EP  OW  HW  HW  EP  OW  HW  
HW  EP  OW  HW  HW  EP  OW  HW  HW  EP  OW  HW  HW  EP  OW  HW  HW  EP  OW  HW  
HW  EP  OW  HW  HW  EP  OW  HW  HW  EP  OW  HW  HW  EP  OW  HW  HW  EP  OW  HW  
HW  EP  OW  HW  HW  EP  OW  HW  HW  EP  OW  HW  HW  EP  OW  HW  HW  EP  OW  HW  
HW  EP  OW  HW  HW  EP  OW  HW  HW  EP  OW  HW  HW  EP  OW  HW  HW  EP  OW  HW  
HW  EP  OW  HW  HW  EP  OW  HW  HW  EP  OW  HW  HW  EP  OW  HW  HW  EP  OW  HW  
HW  EP  OW  HW  HW  EP  OW  HW  HW  EP  OW  HW  HW  EP  OW  HW  HW  EP  OW  HW  
HW  EP  OW  HW  HW  EP  OW  HW  HW  EP  OW  HW  HW  EP  OW  HW  HW  EP  OW  HW  
HW  EP  OW  HW  HW  EP  OW  HW  HW  EP  OW  HW  HW  EP  OW  HW  HW  EP  OW  HW  
HW  EP  OW  HW  HW  EP  OW  HW  HW  EP  OW  HW  HW  EP  OW  HW  HW  EP  OW  HW  
HW  EP  OW  HW  HW  EP  OW  HW  HW  EP  OW  HW  HW  EP  OW  HW  HW  EP  OW  HW  
HW  EP  OW  HW  HW  EP  OW  HW  HW  EP  OW  HW  HW  EP  OW  HW  HW  EP  OW  HW  
HW  EP  OW  HW  HW  EP  OW  HW  HW  EP  OW  HW  HW  EP  OW  HW  HW  EP  OW  HW  
HW  EP  OW  HW  HW  EP  OW  HW  HW  EP  OW  HW  HW  EP  OW  HW  HW  EP  OW  HW  
HW  EP  OW  HW  HW  EP  OW  HW  HW  EP  OW  HW  HW  EP  OW  HW  HW  EP  OW  HW  
HW  EP  OW  HW  HW  EP  OW  HW  HW  EP  OW  HW  HW  EP  OW  HW  HW  EP  OW  HW  
HW  EP  OW  HW  HW  EP  OW  HW  HW  EP  OW  HW  HW  EP  OW  HW  HW  EP  OW  HW  
HW  EP  OW  HW  HW  EP  OW  HW  HW  EP  OW  HW  HW  EP  OW  HW  HW  EP  OW  HW  
HW  EP  OW  HW  HW  EP  OW  HW  HW  EP  OW  HW  HW  EP  OW  HW  HW  EP  OW  HW  
HW  EP  OW  HW  HW  EP  OW  HW  HW  EP  OW  HW  HW  EP  OW  HW  HW  EP  OW  HW  
HW  EP  OW  HW  HW  EP  OW  HW  HW  EP  OW  HW  HW  EP  OW  HW  HW  EP  OW  HW  
HW  EP  OW  HW  HW  EP  OW  HW  HW  EP  OW  HW  HW  EP  OW  HW  HW  EP  OW  HW  
HW  EP  OW  HW  HW  EP  OW  HW  HW  EP  OW  HW  HW  EP  OW  HW  HW  EP  OW  HW  
HW  EP  OW  HW  HW  EP  OW  HW  HW  EP  OW  HW  HW  EP  OW  HW  HW  EP  OW  HW  
HW  EP  OW  HW  HW  EP  OW  HW  HW  EP  OW  HW  HW  EP  OW  HW  HW  EP  OW  HW  
HW  EP  OW  HW  HW  EP  OW  HW  HW  EP  OW  HW  HW  EP  OW  HW  HW  EP  OW  HW  
HW  EP  OW  HW  HW  EP  OW  HW  HW  EP  OW  HW  HW  EP  OW  HW  HW  EP  OW  HW  
HW  EP  OW  HW  HW  EP  OW  HW  HW  EP  OW  HW  HW  EP  OW  HW  HW  EP  OW  HW  
HW  EP  OW  HW  HW  EP  OW  HW  HW  EP  OW  HW  HW  EP  OW  HW  HW  EP  OW  HW  
HW  EP  OW  HW  HW  EP  OW  HW  HW  EP  OW  HW  HW  EP  OW  HW  HW  EP  OW  HW  
HW  EP  OW  HW  HW  EP  OW  HW  HW  EP  OW  HW  HW  EP  OW  HW  HW  EP  OW  HW  
HW  EP  OW  HW  HW  EP  OW  HW  HW  EP  OW  HW  HW  EP  OW  HW  HW  EP  OW  HW  
HW  EP  OW  HW  HW  EP  OW  HW  HW  EP  OW  HW  HW  EP  OW  HW  HW  EP  OW  HW  
HW  EP  OW  HW  HW  EP  OW  HW  HW  EP  OW  HW  HW  EP  OW  HW  HW  EP  OW  HW  
HW  EP  OW  HW  HW  EP  OW  HW  HW  EP  OW  HW  HW  EP  OW  HW  HW  EP  OW  HW  
HW  EP  OW  HW  HW  EP  OW  HW  HW  EP  OW  HW  HW  EP  OW  HW  HW  EP  OW  HW  
HW  EP  OW  HW  HW  EP  OW  HW  HW  EP  OW  HW  HW  EP  OW  HW  HW  EP  OW  HW  
HW  EP  OW  HW  HW  EP  OW  HW  HW  EP  OW  HW  HW  EP  OW  HW  HW  EP  OW  HW  
HW  EP  OW  HW  HW  EP  OW  HW  HW  EP  OW  HW  HW  EP  OW  HW  HW  EP  OW  HW  
HW  EP  OW  HW  HW  EP  OW  HW  HW  EP  OW  HW  HW  EP  OW  HW  HW  EP  OW  HW  
HW  EP  OW  HW  HW  EP  OW  HW  HW  EP  OW  HW  HW  EP  OW  HW  HW  EP  OW  HW  
HW  EP  OW  HW  HW  EP  OW  HW  HW  EP  OW  HW  HW  EP  OW  HW  HW  EP  OW  HW  
HW  EP  OW  HW  HW  EP  OW  HW  HW  EP  OW  HW  HW  EP  OW  HW  HW  EP  OW  HW  
HW  EP  OW  HW  HW  EP  OW  HW  HW  EP  OW  HW  HW  EP  OW  HW  HW  EP  OW  HW  
HW  EP  OW  HW  HW  EP  OW  HW  HW  EP  OW  HW  HW  EP  OW  HW  HW  EP  OW  HW  
HW  EP  OW  HW  HW  EP  OW  HW  HW  EP  OW  HW  HW  EP  OW  HW  HW  EP  OW  HW  
HW  EP  OW  HW  HW  EP  OW  HW  HW  EP  OW  HW  HW  EP  OW  HW  HW  EP  OW  HW  
HW  EP  OW  HW  HW  EP  OW  HW  HW  EP  OW  HW  HW  EP  OW  HW  HW  EP  OW  HW  
HW  EP  OW  HW  HW  EP  OW  HW  HW  EP  OW  HW  HW  EP  OW  HW  HW  EP  OW  HW  
HW  EP  OW  HW  HW  EP  OW  HW  HW  EP  OW  HW  HW  EP  OW  HW  HW  EP  OW  HW  
HW  EP  OW  HW  HW  EP  OW  HW  HW  EP  OW  HW  HW  EP  OW  HW  HW  EP  OW  HW  
HW  EP  OW  HW  HW  EP  OW  HW  HW  EP  OW  HW  HW  EP  OW  HW  HW  EP  OW  HW  
HW  EP  OW  HW  HW  EP  OW  HW  HW  EP  OW  HW  HW  EP  OW  HW  HW  EP  OW  HW  
HW  EP  OW  HW  HW  EP  OW  HW  HW  EP  OW  HW  HW  EP  OW  HW  HW  EP  OW  HW  
HW  EP  OW  HW  HW  EP  OW  HW  HW  EP  OW  HW  HW  EP  OW  HW  HW  EP  OW  HW  
HW  EP  OW  HW  HW  EP  OW  HW  HW  EP  OW  HW  HW  EP  OW  HW  HW  EP  OW  HW  
HW  EP  OW  HW  HW  EP  OW  HW  HW  EP  OW  HW  HW  EP  OW  HW  HW  EP  OW  HW  
HW  EP  OW  HW  HW  EP  OW  HW  HW  EP  OW  HW  HW  EP  OW  HW  HW  EP  OW  HW  
HW  EP  OW  HW  HW  EP  OW  HW  HW  EP  OW  HW  HW  EP  OW  HW  HW  EP  OW  HW  
HW  EP  OW  HW  HW  EP  OW  HW  HW  EP  OW  HW  HW  EP  OW  HW  HW  EP  OW  HW  
HW  EP  OW  HW  HW  EP  OW  HW  HW  EP  OW  HW  HW  EP  OW  HW  HW  EP  OW  HW  
HW  EP  OW  HW  HW  EP  OW  HW  HW  EP  OW  HW  HW  EP  OW  HW  HW  EP  OW  HW  
HW  EP  OW  HW  HW  EP  OW  HW  HW  EP  OW  HW  HW  EP  OW  HW  HW  EP  OW  HW  
HW  EP  OW  HW  HW  EP  OW  HW  HW  EP  OW  HW  HW  EP  OW  HW  HW  EP  OW  HW  
HW  EP  OW  HW  HW  EP  OW  HW  HW  EP  OW  HW  HW  EP  OW  HW  HW  EP  OW  HW  
HW  EP  OW  HW  HW  EP  OW  HW  HW  EP  OW  HW  HW  EP  OW  HW  HW  EP  OW  HW  
HW  EP  OW  HW  HW  EP  OW  HW  HW  EP  OW  HW  HW  EP  OW  HW  HW  EP  OW  HW  
HW  EP  OW  HW  HW  EP  OW  HW  HW  EP  OW  HW  HW  EP  OW  HW  HW  EP  OW  HW  
HW  EP  OW  HW  HW  EP  OW  HW  HW  EP  OW  HW  HW  EP  OW  HW  HW  EP  OW  HW  
HW  EP  OW  HW  HW  EP  OW  HW  HW  EP  OW  HW  HW  EP  OW  HW  HW  EP  OW  HW  
HW  EP  OW  HW  HW  EP  OW  HW  HW  EP  OW  HW  HW  EP  OW  HW  HW  EP  OW  HW  
HW  EP  OW  HW  HW  EP  OW  HW  HW  EP  OW  HW  HW  EP  OW  HW  HW  EP  OW  HW  
HW  EP  OW  HW  HW  EP  OW  HW  HW  EP  OW  HW  HW  EP  OW  HW  HW  EP  OW  HW  
HW  EP  OW  HW  HW  EP  OW  HW  HW  EP  OW  HW  HW  EP  OW  HW  HW  EP  OW  HW  
HW  EP  OW  HW  HW  EP  OW  HW  HW  EP  OW  HW  HW  EP  OW  HW  HW  EP  OW  HW  
HW  EP  OW  HW  HW  EP  OW  HW  HW  EP  OW  HW  HW  EP  OW  HW  HW  EP  OW  HW  
HW  EP  OW  HW  HW  EP  OW  HW  HW  EP  OW  HW  HW  EP  OW  HW  HW  EP  OW  HW  
HW  EP  OW  HW  HW  EP  OW  HW  HW  EP  OW  HW  HW  EP  OW  HW  HW  EP  OW  HW  
HW  EP  OW  HW  HW  EP  OW  HW  HW  EP  OW  HW  HW  EP  OW  HW  HW  EP  OW  HW  
HW  EP  OW  HW  HW  EP  OW  HW  HW  EP  OW  HW  HW  EP  OW  HW  HW  EP  OW  HW  
HW  EP  OW  HW  HW  EP  OW  HW  HW  EP  OW  HW  HW  EP  OW  HW  HW  EP  OW  HW  
HW  EP  OW  HW  HW  EP  OW  HW  HW  EP  OW  HW  HW  EP  OW  HW  HW  EP  OW  HW  
HW  EP  OW  HW  HW  EP  OW  HW  HW  EP  OW  HW  HW  EP  OW  HW  HW  EP  OW  HW  
HW  EP  OW  HW  HW  EP  OW  HW  HW  EP  OW  HW  HW  EP  OW  HW  HW  EP  OW  HW  
HW  EP  OW  HW  HW  EP  OW  HW  HW  EP  OW  HW  HW  EP  OW  HW  HW  EP  OW  HW  
HW  EP  OW  HW  HW  EP  OW  HW  HW  EP  OW  HW  HW  EP  OW  HW  HW  EP  OW  HW  
HW  EP  OW  HW  HW  EP  OW  HW  HW  EP  OW  HW  HW  EP  OW  HW  HW  EP  OW  HW  
HW  EP  OW  HW  HW  EP  OW  HW  HW  EP  OW  HW  HW  EP  OW  HW  HW  EP  OW  HW  
HW  EP  OW  HW  HW  EP  OW  HW  HW  EP  OW  HW  HW  EP  OW  HW  HW  EP  OW  HW  
HW  EP  OW  HW  HW  EP  OW  HW  HW  EP  OW  HW  HW  EP  OW  HW  HW  EP  OW  HW  
HW  EP  OW  HW  HW  EP  OW  HW  HW  EP  OW  HW  HW  EP  OW  HW  HW  EP  OW  HW  
HW  EP  OW  HW  HW  EP  OW  HW  HW  EP  OW  HW  HW  EP  OW  HW  HW  EP  OW  HW  
HW  EP  OW  HW  HW  EP  OW  HW  HW  EP  OW  HW  HW  EP  OW  HW  HW  EP  OW  HW  
HW  EP  OW  HW  HW  EP  OW  HW  HW  EP  OW  HW  HW  EP  OW  HW  HW  EP  OW  HW  
HW  EP  OW  HW  HW  EP  OW  HW  HW  EP  OW  HW  HW  EP  OW  HW  HW  EP  OW  HW  
HW  EP  OW  HW  HW  EP  OW  HW  HW  EP  OW  HW  HW  EP  OW  HW  HW  EP  OW  HW  
HW  EP  OW  HW  HW  EP  OW  HW  HW  EP  OW  HW  HW  EP  OW  HW  HW  EP  OW  HW  
HW  EP  OW  HW  HW  EP  OW  HW  HW  EP  OW  HW  HW  EP  OW  HW  HW  EP  OW  HW  
HW  EP  OW  HW  HW  EP  OW  HW  HW  EP  OW  HW  HW  EP  OW  HW  HW  EP  OW  HW  
HW  EP  OW  HW  HW  EP  OW  HW  HW  EP  OW  HW  HW  EP  OW  HW  HW  EP  OW  HW  
HW  EP  OW  HW  HW  EP  OW  HW  HW  EP  OW  HW  HW  EP  OW  HW  HW  EP  OW  HW  
HW  EP  OW  HW  HW  EP  OW  HW  HW  EP  OW  HW  HW  EP  OW  HW  HW  EP  OW  HW  
HW  EP  OW  HW  HW  EP  OW  HW  HW  EP  OW  HW  HW  EP  OW  HW  HW  EP  OW  HW  
HW  EP  OW  HW  HW  EP  OW  HW  HW  EP  OW  HW  HW  EP  OW  HW  HW  EP  OW  HW  
HW  EP  OW  HW  HW  EP  OW  HW  HW  EP  OW  HW  HW  EP  OW  HW  HW  EP  OW  HW  
HW  EP  OW  HW  HW  EP  OW  HW  HW  EP  OW  HW  HW  EP  OW  HW  HW  EP  OW  HW  
HW  EP  OW  HW  HW  EP  OW  HW  HW  EP  OW  HW  HW  EP  OW  HW  HW  EP  OW  HW  
HW  EP  OW  HW  HW  EP  OW  HW  HW  EP  OW  HW  HW  EP  OW  HW  HW  EP  OW  HW  
HW  EP  OW  HW  HW  EP  OW  HW  HW  EP  OW  HW  HW  EP  OW  HW  HW  EP  OW  HW  
HW  EP  OW  HW  HW  EP  OW  HW  HW  EP  OW  HW  HW  EP  OW  HW  HW  EP  OW  HW  
HW  EP  OW  HW  HW  EP  OW  HW  HW  EP  OW  HW  HW  EP  OW  HW  HW  EP  OW  HW  
HW  EP  OW  HW  HW  EP  OW  HW  HW  EP  OW  HW  HW  EP  OW  HW  HW  EP  OW  HW  
HW  EP  OW  HW  HW  EP  OW  HW  HW  EP  OW  HW  HW  EP  OW  HW  HW  EP  OW  HW  
HW  EP  OW  HW  HW  EP  OW  HW  HW  EP  OW  HW  HW  EP  OW  HW  HW  EP  OW  HW  
HW  EP  OW  HW  HW  EP  OW  HW  HW  EP  OW  HW  HW  EP  OW  HW  HW  EP  OW  HW  
HW  EP  OW  HW  HW  EP  OW  HW  HW  EP  OW  HW  HW  EP  OW  HW  HW  EP  OW  HW  
HW  EP  OW  HW  HW  EP  OW  HW  HW  EP  OW  HW  HW  EP  OW  HW  HW  EP  OW  HW  
HW  EP  OW  HW  HW  EP  OW  HW  HW  EP  OW  HW  HW  EP  OW  HW  HW  EP  OW  HW  
HW  EP  OW  HW  HW  EP  OW  HW  HW  EP  OW  HW  HW  EP  OW  HW  HW  EP  OW  HW  
HW  EP  OW  HW  HW  EP  OW  HW  HW  EP  OW  HW  HW  EP  OW  HW  HW  EP  OW  HW  
HW  EP  OW  HW  HW  EP  OW  HW  HW  EP  OW  HW  HW  EP  OW  HW  HW  EP  OW  HW  
HW  EP  OW  HW  HW  EP  OW  HW  HW  EP  OW  HW  HW  EP  OW  HW  HW  EP  OW  HW  
HW  EP  OW  HW  HW  EP  OW  HW  HW  EP  OW  HW  HW  EP  OW  HW  HW  EP  OW  HW  
HW  EP  OW  HW  HW  EP  OW  HW  HW  EP  OW  HW  HW  EP  OW  HW  HW  EP  OW  HW  
HW  EP  OW  HW  HW  EP  OW  HW  HW  EP  OW  HW  HW  EP  OW  HW  HW  EP  OW  HW  
HW  EP  OW  HW  HW  EP  OW  HW  HW  EP  OW  HW  HW  EP  OW  HW  HW  EP  OW  HW  
HW  EP  OW  HW  HW  EP  OW  HW  HW  EP  OW  HW  HW  EP  OW  HW  HW  EP  OW  HW  
HW  EP  OW  HW  HW  EP  OW  HW  HW  EP  OW  HW  HW  EP  OW  HW  HW  EP  OW  HW  
HW  EP  OW  HW  HW  EP  OW  HW  HW  EP  OW  HW  HW  EP  OW  HW  HW  EP  OW  HW  
HW  EP  OW  HW  HW  EP  OW  HW  HW  EP  OW  HW  HW  EP  OW  HW  HW  EP  OW  HW  
HW  EP  OW  HW  HW  EP  OW  HW  HW  EP  OW  HW  HW  EP  OW  HW  HW  EP  OW  HW  
HW  EP  OW  HW  HW  EP  OW  HW  HW  EP  OW  HW  HW  EP  OW  HW  HW  EP  OW  HW  
HW  EP  OW  HW  HW  EP  OW  HW  HW  EP  OW  HW  HW  EP  OW  HW  HW  EP  OW  HW  
HW  EP  OW  HW  HW  EP  OW  HW  HW  EP  OW  HW  HW  EP  OW  HW  HW  EP  OW  HW  
HW  EP  OW  HW  HW  EP  OW  HW  HW  EP  OW  HW  HW  EP  OW  HW  HW  EP  OW  HW  
HW  EP  OW  HW  HW  EP  OW  HW  HW  EP  OW  HW  HW  EP  OW  HW  HW  EP  OW  HW  
HW  EP  OW  HW  HW  EP  OW  HW  HW  EP  OW  HW  HW  EP  OW  HW  HW  EP  OW  HW  
HW  EP  OW  HW  HW  EP  OW  HW  HW  EP  OW  HW  HW  EP  OW  HW  HW  EP  OW  HW  
HW  EP  OW  HW  HW  EP  OW  HW  HW  EP  OW  HW  HW  EP  OW  HW  HW  EP  OW  HW  
HW  EP  OW  HW  HW  EP  OW  HW  HW  EP  OW  HW  HW  EP  OW  HW  HW  EP  OW  HW  
HW  EP  OW  HW  HW  EP  OW  HW  HW  EP  OW  HW  HW  EP  OW  HW  HW  EP  OW  HW  
HW  EP  OW  HW  HW  EP  OW  HW  HW  EP  OW  HW  HW  EP  OW  HW  HW  EP  OW  HW  
HW  EP  OW  HW  HW  EP  OW  HW  HW  EP  OW  HW  HW  EP  OW  HW  HW  EP  OW  HW  
HW  EP  OW  HW  HW  EP  OW  HW  HW  EP  OW  HW  HW  EP  OW  HW  HW  EP  OW  HW  
HW  EP  OW  HW  HW  EP  OW  HW  HW  EP  OW  HW  HW  EP  OW  HW  HW  EP  OW  HW  
HW  EP  OW  HW  HW  EP  OW  HW  HW  EP  OW  HW  HW  EP  OW  HW  HW  EP  OW  HW  
HW  EP  OW  HW  HW  EP  OW  HW  HW  EP  OW  HW  HW  EP  OW  HW  HW  EP  OW  HW  
HW  EP  OW  HW  HW  EP  OW  HW  HW  EP  OW  HW  HW  EP  OW  HW  HW  EP  OW  HW  
HW  EP  OW  HW  HW  EP  OW  HW  HW  EP  OW  HW  HW  EP  OW  HW  HW  EP  OW  HW  
HW  EP  OW  HW  HW  EP  OW  HW  HW  EP  OW  HW  HW  EP  OW  HW  HW  EP  OW  HW  
HW  EP  OW  HW  HW  EP  OW  HW  HW  EP  OW  HW  HW  EP  OW  HW  HW  EP  OW  HW  
HW  EP  OW  HW  HW  EP  OW  HW  HW  EP  OW  HW  HW  EP  OW  HW  HW  EP  OW  HW  
HW  EP  OW  HW  HW  EP  OW  HW  HW  EP  OW  HW  HW  EP  OW  HW  HW  EP  OW  HW  
HW  EP  OW  HW  HW  EP  OW  HW  HW  EP  OW  HW  HW  EP  OW  HW  HW  EP  OW  HW  
HW  EP  OW  HW  HW  EP  OW  HW  HW  EP  OW  HW  HW  EP  OW  HW  HW  EP  OW  HW  
HW  EP  OW  HW  HW  EP  OW  HW  HW  EP  OW  HW  HW  EP  OW  HW  HW  EP  OW  HW  
HW  EP  OW  HW  HW  EP  OW  HW  HW  EP  OW  HW  HW  EP  OW  HW  HW  EP  OW  HW  
HW  EP  OW  HW  HW  EP  OW  HW  HW  EP  OW  HW  HW  EP  OW  HW  HW  EP  OW  HW  
HW  EP  OW  HW  HW  EP  OW  HW  HW  EP  OW  HW  HW  EP  OW  HW  HW  EP  OW  HW  
HW  EP  OW  HW  HW  EP  OW  HW  HW  EP  OW  HW  HW  EP  OW  HW  HW  EP  OW  HW  
HW  EP  OW  HW  HW  EP  OW  HW  HW  EP  OW  HW  HW  EP  OW  HW  HW  EP  OW  HW  
HW  EP  OW  HW  HW  EP  OW  HW  HW  EP  OW  HW  HW  EP  OW  HW  HW  EP  OW  HW  
HW  EP  OW  HW  HW  EP  OW  HW  HW  EP  OW  HW  HW  EP  OW  HW  HW  EP  OW  HW  
HW  EP  OW  HW  HW  EP  OW  HW  HW  EP  OW  HW  HW  EP  OW  HW  HW  EP  OW  HW  
HW  EP  OW  HW  HW  EP  OW  HW  HW  EP  OW  HW  HW  EP  OW  HW  HW  EP  OW  HW  
HW  EP  OW  HW  HW  EP  OW  HW  HW  EP  OW  HW  HW  EP  OW  HW  HW  EP  OW  HW  
HW  EP  OW  HW  HW  EP  OW  HW  HW  EP  OW  HW  HW  EP  OW  HW  HW  EP  OW  HW  
HW  EP  OW  HW  HW  EP  OW  HW  HW  EP  OW  HW  HW  EP  OW  HW  HW  EP  OW  HW  
HW  EP  OW  HW  HW  EP  OW  HW  HW  EP  OW  HW  HW  EP  OW  HW  HW  EP  OW  HW  
HW  EP  OW  HW  HW  EP  OW  HW  HW  EP  OW  HW  HW  EP  OW  HW  HW  EP  OW  HW  
HW  EP  OW  HW  HW  EP  OW  HW  HW  EP  OW  HW  HW  EP  OW  HW  HW  EP  OW  HW  
HW  EP  OW  HW  HW  EP  OW  HW  HW  EP  OW  HW  HW  EP  OW  HW  HW  EP  OW  HW  
HW  EP  OW  HW  HW  EP  OW  HW  HW  EP  OW  HW  HW  EP  OW  HW  HW  EP  OW  HW  
HW  EP  OW  HW  HW  EP  OW  HW  HW  EP  OW  HW  HW  EP  OW  HW  HW  EP  OW  HW  
HW  EP  OW  HW  HW  EP  OW  HW  HW  EP  OW  HW  HW  EP  OW  HW  HW  EP  OW  HW  
HW  EP  OW  HW  HW  EP  OW  HW  HW  EP  OW  HW  HW  EP  OW  HW  HW  EP  OW  HW  
HW  EP  OW  HW  HW  EP  OW  HW  HW  EP  OW  HW  HW  EP  OW  HW  HW  EP  OW  HW  
HW  EP  OW  HW  HW  EP  OW  HW  HW  EP  OW  HW  HW  EP  OW  HW  HW  EP  OW  HW  
HW  EP  OW  HW  HW  EP  OW  HW  HW  EP  OW  HW  HW  EP  OW  HW  HW  EP  OW  HW  
HW  EP  OW  HW  HW  EP  OW  HW  HW  EP  OW  HW  HW  EP  OW  HW  HW  EP  OW  HW  
HW  EP  OW  HW  HW  EP  OW  HW  HW  EP  OW  HW  HW  EP  OW  HW  HW  EP  OW  HW  
HW  EP  OW  HW  HW  EP  OW  HW  HW  EP  OW  HW  HW  EP  OW  HW  HW  EP  OW  HW  
HW  EP  OW  HW  HW  EP  OW  HW  HW  EP  OW  HW  HW  EP  OW  HW  HW  EP  OW  HW  
HW  EP  OW  HW  HW  EP  OW  HW  HW  EP  OW  HW  HW  EP  OW  HW  HW  EP  OW  HW  
HW  EP  OW  HW  HW  EP  OW  HW  HW  EP  OW  HW  HW  EP  OW  HW  HW  EP  OW  HW  
HW  EP  OW  HW  HW  EP  OW  HW  HW  EP  OW  HW  HW  EP  OW  HW  HW  EP  OW  HW  
HW  EP  OW  HW  HW  EP  OW  HW  HW  EP  OW  HW  HW  EP  OW  HW  HW  EP  OW  HW  
HW  EP  OW  HW  HW  EP  OW  HW  HW  EP  OW  HW  HW  EP  OW  HW  HW  EP  OW  HW  
HW  EP  OW  HW  HW  EP  OW  HW  HW  EP  OW  HW  HW  EP  OW  HW  HW  EP  OW  HW  
HW  EP  OW  HW  HW  EP  OW  HW  HW  EP  OW  HW  HW  EP  OW  HW  HW  EP  OW  HW  
HW  EP  OW  HW  HW  EP  OW  HW  HW  EP  OW  HW  HW  EP  OW  HW  HW  EP  OW  HW  
HW  EP  OW  HW  HW  EP  OW  HW  HW  EP  OW  HW  HW  EP  OW  HW  HW  EP  OW  HW  
HW  EP  OW  HW  HW  EP  OW  HW  HW  EP  OW  HW  HW  EP  OW  HW  HW  EP  OW  HW  
HW  EP  OW  HW  HW  EP  OW  HW  HW  EP  OW  HW  HW  EP  OW  HW  HW  EP  OW  HW  
HW  EP  OW  HW  HW  EP  OW  HW  HW  EP  OW  HW  HW  EP  OW  HW  HW  EP  OW  HW  
HW  EP  OW  HW  HW  EP  OW  HW  HW  EP  OW  HW  HW  EP  OW  HW  HW  EP  OW  HW  
HW  EP  OW  HW  HW  EP  OW  HW  HW  EP  OW  HW  HW  EP  OW  HW  HW  EP  OW  HW  
HW  EP  OW  HW  HW  EP  OW  HW  HW  EP  OW  HW  HW  EP  OW  HW  HW  EP  OW  HW  
HW  EP  OW  HW  HW  EP  OW  HW  HW  EP  OW  HW  HW  EP  OW  HW  HW  EP  OW  HW  
HW  EP  OW  HW  HW  EP  OW  HW  HW  EP  OW  HW  HW  EP  OW  HW  HW  EP  OW  HW  
HW  EP  OW  HW  HW  EP  OW  HW  HW  EP  OW  HW  HW  EP  OW  HW  HW  EP  OW  HW  
HW  EP  OW  HW  HW  EP  OW  HW  HW  EP  OW  HW  HW  EP  OW  HW  HW  EP  OW  HW  
HW  EP  OW  HW  HW  EP  OW  HW  HW  EP  OW  HW  HW  EP  OW  HW  HW  EP  OW  HW  
HW  EP  OW  HW  HW  EP  OW  HW  HW  EP  OW  HW  HW  EP  OW  HW  HW  EP  OW  HW  
HW  EP  OW  HW  HW  EP  OW  HW  HW  EP  OW  HW  HW  EP  OW  HW  HW  EP  OW  HW  
HW  EP  OW  HW  HW  EP  OW  HW  HW  EP  OW  HW  HW  EP  OW  HW  HW  EP  OW  HW  
HW  EP  OW  HW  HW  EP  OW  HW  HW  EP  OW  HW  HW  EP  OW  HW  HW  EP  OW  HW  
HW  EP  OW  HW  HW  EP  OW  HW  HW  EP  OW  HW  HW  EP  OW  HW  HW  EP  OW  HW  
HW  EP  OW  HW  HW  EP  OW  HW  HW  EP  OW  HW  HW  EP  OW  HW  HW  EP  OW  HW  
HW  EP  OW  HW  HW  EP  OW  HW  HW  EP  OW  HW  HW  EP  OW  HW  HW  EP  OW  HW  
HW  EP  OW  HW  HW  EP  OW  HW  HW  EP  OW  HW  HW  EP  OW  HW  HW  EP  OW  HW  
HW  EP  OW  HW  HW  EP  OW  HW  HW  EP  OW  HW  HW  EP  OW  HW  HW  EP  OW  HW  
HW  EP  OW  HW  HW  EP  OW  HW  HW  EP  OW  HW  HW  EP  OW  HW  HW  EP  OW  HW  
HW  EP  OW  HW  HW  EP  OW  HW  HW  EP  OW  HW  HW  EP  OW  HW  HW  EP  OW  HW  
HW  EP  OW  HW  HW  EP  OW  HW  HW  EP  OW  HW  HW  EP  OW  HW  HW  EP  OW  HW  
HW  EP  OW  HW  HW  EP  OW  HW  HW  EP  OW  HW  HW  EP  OW  HW  HW  EP  OW  HW  
HW  EP  OW  HW  HW  EP  OW  HW  HW  EP  OW  HW  HW  EP  OW  HW  HW  EP  OW  HW  
HW  EP  OW  HW  HW  EP  OW  HW  HW  EP  OW  HW  HW  EP  OW  HW  HW  EP  OW  HW  
HW  EP  OW  HW  HW  EP  OW  HW  HW  EP  OW  HW  HW  EP  OW  HW  HW  EP  OW  HW  
HW  EP  OW  HW  HW  EP  OW  HW  HW  EP  OW  HW  HW  EP  OW  HW  HW  EP  OW  HW  
HW  EP  OW  HW  HW  EP  OW  HW  HW  EP  OW  HW  HW  EP  OW  HW  HW  EP  OW  HW  
HW  EP  OW  HW  HW  EP  OW  HW  HW  EP  OW  HW  HW  EP  OW  HW  HW  EP  OW  HW  
HW  EP  OW  HW  HW  EP  OW  HW  HW  EP  OW  HW  HW  EP  OW  HW  HW  EP  OW  HW  
HW  EP  OW  HW  HW  EP  OW  HW  HW  EP  OW  HW  HW  EP  OW  HW  HW  EP  OW  HW  
HW  EP  OW  HW  HW  EP  OW  HW  HW  EP  OW  HW  HW  EP  OW  HW  HW  EP  OW  HW  
HW  EP  OW  HW  HW  EP  OW  HW  HW  EP  OW  HW  HW  EP  OW  HW  HW  EP  OW  HW  
HW  EP  OW  HW  HW  EP  OW  HW  HW  EP  OW  HW  HW  EP  OW  HW  HW  EP  OW  HW  
HW  EP  OW  HW  HW  EP  OW  HW  HW  EP  OW  HW  HW  EP  OW  HW  HW  EP  OW  HW  
HW  EP  OW  HW  HW  EP  OW  HW  HW  EP  OW  HW  HW  EP  OW  HW  HW  EP  OW  HW  
HW  EP  OW  HW  HW  EP  OW  HW  HW  EP  OW  HW  HW  EP  OW  HW  HW  EP  OW  HW  
HW  EP  OW  HW  HW  EP  OW  HW  HW  EP  OW  HW  HW  EP  OW  HW  HW  EP  OW  HW  
HW  EP  OW  HW  HW  EP  OW  HW  HW  EP  OW  HW  HW  EP  OW  HW  HW  EP  OW  HW  
HW  EP  OW  HW  HW  EP  OW  HW  HW  EP  OW  HW  HW  EP  OW  HW  HW  EP  OW  HW  
HW  EP  OW  HW  HW  EP  OW  HW  HW  EP  OW  HW  HW  EP  OW  HW  HW  EP  OW  HW  
HW  EP  OW  HW  HW  EP  OW  HW  HW  EP  OW  HW  HW  EP  OW  HW  HW  EP  OW  HW  
HW  EP  OW  HW  HW  EP  OW  HW  HW  EP  OW  HW  HW  EP  OW  HW  HW  EP  OW  HW  
HW  EP  OW  HW  HW  EP  OW  HW  HW  EP  OW  HW  HW  EP  OW  HW  HW  EP  OW  HW  
HW  EP  OW  HW  HW  EP  OW  HW  HW  EP  OW  HW  HW  EP  OW  HW  HW  EP  OW  HW  
HW  EP  OW  HW  HW  EP  OW  HW  HW  EP  OW  HW  HW  EP  OW  HW  HW  EP  OW  HW  
HW  EP  OW  HW  HW  EP  OW  HW  HW  EP  OW  HW  HW  EP  OW  HW  HW  EP  OW  HW  
HW  EP  OW  HW  HW  EP  OW  HW  HW  EP  OW  HW  HW  EP  OW  HW  HW  EP  OW  HW  
HW  EP  OW  HW  HW  EP  OW  HW  HW  EP  OW  HW  HW  EP  OW  HW  HW  EP  OW  HW  
HW  EP  OW  HW  HW  EP  OW  HW  HW  EP  OW  HW  HW  EP  OW  HW  HW  EP  OW  HW  
HW  EP  OW  HW  HW  EP  OW  HW  HW  EP  OW  HW  HW  EP  OW  HW  HW  EP  OW  HW  
HW  EP  OW  HW  HW  EP  OW  HW  HW  EP  OW  HW  HW  EP  OW  HW  HW  EP  OW  HW  
HW  EP  OW  HW  HW  EP  OW  HW  HW  EP  OW  HW  HW  EP  OW  HW  HW  EP  OW  HW  
HW  EP  OW  HW  HW  EP  OW  HW  HW  EP  OW  HW  HW  EP  OW  HW  HW  EP  OW  HW  
HW  EP  OW  HW  HW  EP  OW  HW  HW  EP  OW  HW  HW  EP  OW  HW  HW  EP  OW  HW  
HW  EP  OW  HW  HW  EP  OW  HW  HW  EP  OW  HW  HW  EP  OW  HW  HW  EP  OW  HW  
HW  EP  OW  HW  HW  EP  OW  HW  HW  EP  OW  HW  HW  EP  OW  HW  HW  EP  OW  HW  
HW  EP  OW  HW  HW  EP  OW  HW  HW  EP  OW  HW  HW  EP  OW  HW  HW  EP  OW  HW  
HW  EP  OW  HW  HW  EP  OW  HW  HW  EP  OW  HW  HW  EP  OW  HW  HW  EP  OW  HW  
HW  EP  OW  HW  HW  EP  OW  HW  HW  EP  OW  HW  HW  EP  OW  HW  HW  EP  OW  HW  
HW  EP  OW  HW  HW  EP  OW  HW  HW  EP  OW  HW  HW  EP  OW  HW  HW  EP  OW  HW  
HW  EP  OW  HW  HW  EP  OW  HW  HW  EP  OW  HW  HW  EP  OW  HW  HW  EP  OW  HW  
HW  EP  OW  HW  HW  EP  OW  HW  HW  EP  OW  HW  HW  EP  OW  HW  HW  EP  OW  HW  
HW  EP  OW  HW  HW  EP  OW  HW  HW  EP  OW  HW  HW  EP  OW  HW  HW  EP  OW  HW  
HW  EP  OW  HW  HW  EP  OW  HW  HW  EP  OW  HW  HW  EP  OW  HW  HW  EP  OW  HW  
HW  EP  OW  HW  HW  EP  OW  HW  HW  EP  OW  HW  HW  EP  OW  HW  HW  EP  OW  HW  
HW  EP  OW  HW  HW  EP  OW  HW  HW  EP  OW  HW  HW  EP  OW  HW  HW  EP  OW  HW  
HW  EP  OW  HW  HW  EP  OW  HW  HW  EP  OW  HW  HW  EP  OW  HW  HW  EP  OW  HW  
HW  EP  OW  HW  HW  EP  OW  HW  HW  EP  OW  HW  HW  EP  OW  HW  HW  EP  OW  HW  
HW  EP  OW  HW  HW  EP  OW  HW  HW  EP  OW  HW  HW  EP  OW  HW  HW  EP  OW  HW  
HW  EP  OW  HW  HW  EP  OW  HW  HW  EP  OW  HW  HW  EP  OW  HW  HW  EP  OW  HW  
HW  EP  OW  HW  HW  EP  OW  HW  HW  EP  OW  HW  HW  EP  OW  HW  HW  EP  OW  HW  
HW  EP  OW  HW  HW  EP  OW  HW  HW  EP  OW  HW  HW  EP  OW  HW  HW  EP  OW  HW  
HW  EP  OW  HW  HW  EP  OW  HW  HW  EP  OW  HW  HW  EP  OW  HW  HW  EP  OW  HW  
HW  EP  OW  HW  HW  EP  OW  HW  HW  EP  OW  HW  HW  EP  OW  HW  HW  EP  OW  HW  
HW  EP  OW  HW  HW  EP  OW  HW  HW  EP  OW  HW  HW  EP  OW  HW  HW  EP  OW  HW  
HW  EP  OW  HW  HW  EP  OW  HW  HW  EP  OW  HW  HW  EP  OW  HW  HW  EP  OW  HW  
HW  EP  OW  HW  HW  EP  OW  HW  HW  EP  OW  HW  HW  EP  OW  HW  HW  EP  OW  HW  
HW  EP  OW  HW  HW  EP  OW  HW  HW  EP  OW  HW  HW  EP  OW  HW  HW  EP  OW  HW  
HW  EP  OW  HW  HW  EP  OW  HW  HW  EP  OW  HW  HW  EP  OW  HW  HW  EP  OW  HW  
HW  EP  OW  HW  HW  EP  OW  HW  HW  EP  OW  HW  HW  EP  OW  HW  HW  EP  OW  HW  
HW  EP  OW  HW  HW  EP  OW  HW  HW  EP  OW  HW  HW  EP  OW  HW  HW  EP  OW  HW  
HW  EP  OW  HW  HW  EP  OW  HW  HW  EP  OW  HW  HW  EP  OW  HW  HW  EP  OW  HW  
HW  EP  OW  HW  HW  EP  OW  HW  HW  EP  OW  HW  HW  EP  OW  HW  HW  EP  OW  HW  
HW  EP  OW  HW  HW  EP  OW  HW  HW  EP  OW  HW  HW  EP  OW  HW  HW  EP  OW  HW  
HW  EP  OW  HW  HW  EP  OW  HW  HW  EP  OW  HW  HW  EP  OW  HW  HW  EP  OW  HW  
HW  EP  OW  HW  HW  EP  OW  HW  HW  EP  OW  HW  HW  EP  OW  HW  HW  EP  OW  HW  
HW  EP  OW  HW  HW  EP  OW  HW  HW  EP  OW  HW  HW  EP  OW  HW  HW  EP  OW  HW  
HW  EP  OW  HW  HW  EP  OW  HW  HW  EP  OW  HW  HW  EP  OW  HW  HW  EP  OW  HW  
HW  EP  OW  HW  HW  EP  OW  HW  HW  EP  OW  HW  HW  EP  OW  HW  HW  EP  OW  HW  
HW  EP  OW  HW  HW  EP  OW  HW  HW  EP  OW  HW  HW  EP  OW  HW  HW  EP  OW  HW  
HW  EP  OW  HW  HW  EP  OW  HW  HW  EP  OW  HW  HW  EP  OW  HW  HW  EP  OW  HW  
HW  EP  OW  HW  HW  EP  OW  HW  HW  EP  OW  HW  HW  EP  OW  HW  HW  EP  OW  HW  
HW  EP  OW  HW  HW  EP  OW  HW  HW  EP  OW  HW  HW  EP  OW  HW  HW  EP  OW  HW  
HW  EP  OW  HW  HW  EP  OW  HW  HW  EP  OW  HW  HW  EP  OW  HW  HW  EP  OW  HW  
HW  EP  OW  HW  HW  EP  OW  HW  HW  EP  OW  HW  HW  EP  OW  HW  HW  EP  OW  HW  
HW  EP  OW  HW  HW  EP  OW  HW  HW  EP  OW  HW  HW  EP  OW  HW  HW  EP  OW  HW  
HW  EP  OW  HW  HW  EP  OW  HW  HW  EP  OW  HW  HW  EP  OW  HW  HW  EP  OW  HW  
HW  EP  OW  HW  HW  EP  OW  HW  HW  EP  OW  HW  HW  EP  OW  HW  HW  EP  OW  HW  
HW  EP  OW  HW  HW  EP  OW  HW  HW  EP  OW  HW  HW  EP  OW  HW  HW  EP  OW  HW  
HW  EP  OW  HW  HW  EP  OW  HW  HW  EP  OW  HW  HW  EP  OW  HW  HW  EP  OW  HW  
HW  EP  OW  HW  HW  EP  OW  HW  HW  EP  OW  HW  HW  EP  OW  HW  HW  EP  OW  HW  
HW  EP  OW  HW  HW  EP  OW  HW  HW  EP  OW  HW  HW  EP  OW  HW  HW  EP  OW  HW  
HW  EP  OW  HW  HW  EP  OW  HW  HW  EP  OW  HW  HW  EP  OW  HW  HW  EP  OW  HW  
HW  EP  OW  HW  HW  EP  OW  HW  HW  EP  OW  HW  HW  EP  OW  HW  HW  EP  OW  HW  
HW  EP  OW  HW  HW  EP  OW  HW  HW  EP  OW  HW  HW  EP  OW  HW  HW  EP  OW  HW  
HW  EP  OW  HW  HW  EP  OW  HW  HW  EP  OW  HW  HW  EP  OW  HW  HW  EP  OW  HW  
HW  EP  OW  HW  HW  EP  OW  HW  HW  EP  OW  HW  HW  EP  OW  HW  HW  EP  OW  HW  
HW  EP  OW  HW  HW  EP  OW  HW  HW  EP  OW  HW  HW  EP  OW  HW  HW  EP  OW  HW  
HW  EP  OW  HW  HW  EP  OW  HW  HW  EP  OW  HW  HW  EP  OW  HW  HW  EP  OW  HW  
HW  EP  OW  HW  HW  EP  OW  HW  HW  EP  OW  HW  HW  EP  OW  HW  HW  EP  OW  HW  
HW  EP  OW  HW  HW  EP  OW  HW  HW  EP  OW  HW  HW  EP  OW  HW  HW  EP  OW  HW  
HW  EP  OW  HW  HW  EP  OW  HW  HW  EP  OW  HW  HW  EP  OW  HW  HW  EP  OW  HW  
HW  EP  OW  HW  HW  EP  OW  HW  HW  EP  OW  HW  HW  EP  OW  HW  HW  EP  OW  HW  
HW  EP  OW  HW  HW  EP  OW  HW  HW  EP  OW  HW  HW  EP  OW  HW  HW  EP  OW  HW  
HW  EP  OW  HW  HW  EP  OW  HW  HW  EP  OW  HW  HW  EP  OW  HW  HW  EP  OW  HW  
HW  EP  OW  HW  HW  EP  OW  HW  HW  EP  OW  HW  HW  EP  OW  HW  HW  EP  OW  HW  
HW  EP  OW  HW  HW  EP  OW  HW  HW  EP  OW  HW  HW  EP  OW  HW  HW  EP  OW  HW  
HW  EP  OW  HW  HW  EP  OW  HW  HW  EP  OW  HW  HW  EP  OW  HW  HW  EP  OW  HW  
HW  EP  OW  HW  HW  EP  OW  HW  HW  EP  OW  HW  HW  EP  OW  HW  HW  EP  OW  HW  
HW  EP  OW  HW  HW  EP  OW  HW  HW  EP  OW  HW  HW  EP  OW  HW  HW  EP  OW  HW  
HW  EP  OW  HW  HW  EP  OW  HW  HW  EP  OW  HW  HW  EP  OW  HW  HW  EP  OW  HW  
HW  EP  OW  HW  HW  EP  OW  HW  HW  EP  OW  HW  HW  EP  OW  HW  HW  EP  OW  HW  
HW  EP  OW  HW  HW  EP  OW  HW  HW  EP  OW  HW  HW  EP  OW  HW  HW  EP  OW  HW  
HW  EP  OW  HW  HW  EP  OW  HW  HW  EP  OW  HW  HW  EP  OW  HW  HW  EP  OW  HW  
HW  EP  OW  HW  HW  EP  OW  HW  HW  EP  OW  HW  HW  EP  OW  HW  HW  EP  OW  HW  
HW  EP  OW  HW  HW  EP  OW  HW  HW  EP  OW  HW  HW  EP  OW  HW  HW  EP  OW  HW  
HW  EP  OW  HW  HW  EP  OW  HW  HW  EP  OW  HW  HW  EP  OW  HW  HW  EP  OW  HW  
HW  EP  OW  HW  HW  EP  OW  HW  HW  EP  OW  HW  HW  EP  OW  HW  HW  EP  OW  HW  
HW  EP  OW  HW  HW  EP  OW  HW  HW  EP  OW  HW  HW  EP  OW  HW  HW  EP  OW  HW  
HW  EP  OW  HW  HW  EP  OW  HW  HW  EP  OW  HW  HW  EP  OW  HW  HW  EP  OW  HW  
HW  EP  OW  HW  HW  EP  OW  HW  HW  EP  OW  HW  HW  EP  OW  HW  HW  EP  OW  HW  
HW  EP  OW  HW  HW  EP  OW  HW  HW  EP  OW  HW  HW  EP  OW  HW  HW  EP  OW  HW  
HW  EP  OW  HW  HW  EP  OW  HW  HW  EP  OW  HW  HW  EP  OW  HW  HW  EP  OW  HW  
HW  EP  OW  HW  HW  EP  OW  HW  HW  EP  OW  HW  HW  EP  OW  HW  HW  EP  OW  HW  
HW  EP  OW  HW  HW  EP  OW  HW  HW  EP  OW  HW  HW  EP  OW  HW  HW  EP  OW  HW  
HW  EP  OW  HW  HW  EP  OW  HW  HW  EP  OW  HW  HW  EP  OW  HW  HW  EP  OW  HW  
HW  EP  OW  HW  HW  EP  OW  HW  HW  EP  OW  HW  HW  EP  OW  HW  HW  EP  OW  HW  
HW  EP  OW  HW  HW  EP  OW  HW  HW  EP  OW  HW  HW  EP  OW  HW  HW  EP  OW  HW  
HW  EP  OW  HW  HW  EP  OW  HW  HW  EP  OW  HW  HW  EP  OW  HW  HW  EP  OW  HW  
HW  EP  OW  HW  HW  EP  OW  HW  HW  EP  OW  HW  HW  EP  OW  HW  HW  EP  OW  HW  
HW  EP  OW  HW  HW  EP  OW  HW  HW  EP  OW  HW  HW  EP  OW  HW  HW  EP  OW  HW  
HW  EP  OW  HW  HW  EP  OW  HW  HW  EP  OW  HW  HW  EP  OW  HW  HW  EP  OW  HW  
HW  EP  OW  HW  HW  EP  OW  HW  HW  EP  OW  HW  HW  EP  OW  HW  HW  EP  OW  HW  
HW  EP  OW  HW  HW  EP  OW  HW  HW  EP  OW  HW  HW  EP  OW  HW  HW  EP  OW  HW  
HW  EP  OW  HW  HW  EP  OW  HW  HW  EP  OW  HW  HW  EP  OW  HW  HW  EP  OW  HW  
HW  EP  OW  HW  HW  EP  OW  HW  HW  EP  OW  HW  HW  EP  OW  HW  HW  EP  OW  HW  
HW  EP  OW  HW  HW  EP  OW  HW  HW  EP  OW  HW  HW  EP  OW  HW  HW  EP  OW  HW  
HW  EP  OW  HW  HW  EP  OW  HW  HW  EP  OW  HW  HW  EP  OW  HW  HW  EP  OW  HW  
HW  EP  OW  HW  HW  EP  OW  HW  HW  EP  OW  HW  HW  EP  OW  HW  HW  EP  OW  HW  
HW  EP  OW  HW  HW  EP  OW  HW  HW  EP  OW  HW  HW  EP  OW  HW  HW  EP  OW  HW  
HW  EP  OW  HW  HW  EP  OW  HW  HW  EP  OW  HW  HW  EP  OW  HW  HW  EP  OW  HW  
HW  EP  OW  HW  HW  EP  OW  HW  HW  EP  OW  HW  HW  EP  OW  HW  HW  EP  OW  HW  
HW  EP  OW  HW  HW  EP  OW  HW  HW  EP  OW  HW  HW  EP  OW  HW  HW  EP  OW  HW  
HW  EP  OW  HW  HW  EP  OW  HW  HW  EP  OW  HW  HW  EP  OW  HW  HW  EP  OW  HW  
HW  EP  OW  HW  HW  EP  OW  HW  HW  EP  OW  HW  HW  EP  OW  HW  HW  EP  OW  HW  
HW  EP  OW  HW  HW  EP  OW  HW  HW  EP  OW  HW  HW  EP  OW  HW  HW  EP  OW  HW  
HW  EP  OW  HW  HW  EP  OW  HW  HW  EP  OW  HW  HW  EP  OW  HW  HW  EP  OW  HW  
HW  EP  OW  HW  HW  EP  OW  HW  HW  EP  OW  HW  HW  EP  OW  HW  HW  EP  OW  HW  
HW  EP  OW  HW  HW  EP  OW  HW  HW  EP  OW  HW  HW  EP  OW  HW  HW  EP  OW  HW  
HW  EP  OW  HW  HW  EP  OW  HW  HW  EP  OW  HW  HW  EP  OW  HW  HW  EP  OW  HW  
HW  EP  OW  HW  HW  EP  OW  HW  HW  EP  OW  HW  HW  EP  OW  HW  HW  EP  OW  HW  
HW  EP  OW  HW  HW  EP  OW  HW  HW  EP  OW  HW  HW  EP  OW  HW  HW  EP  OW  HW  
HW  EP  OW  HW  HW  EP  OW  HW  HW  EP  OW  HW  HW  EP  OW  HW  HW  EP  OW  HW  
HW  EP  OW  HW  HW  EP  OW  HW  HW  EP  OW  HW  HW  EP  OW  HW  HW  EP  OW  HW  
HW  EP  OW  HW  HW  EP  OW  HW  HW  EP  OW  HW  HW  EP  OW  HW  HW  EP  OW  HW  
HW  EP  OW  HW  HW  EP  OW  HW  HW  EP  OW  HW  HW  EP  OW  HW  HW  EP  OW  HW  
HW  EP  OW  HW  HW  EP  OW  HW  HW  EP  OW  HW  HW  EP  OW  HW  HW  EP  OW  HW  
HW  EP  OW  HW  HW  EP  OW  HW  HW  EP  OW  HW  HW  EP  OW  HW  HW  EP  OW  HW  
HW  EP  OW  HW  HW  EP  OW  HW  HW  EP  OW  HW  HW  EP  OW  HW  HW  EP  OW  HW  
HW  EP  OW  HW  HW  EP  OW  HW  HW  EP  OW  HW  HW  EP  OW  HW  HW  EP  OW  HW  
HW  EP  OW  HW  HW  EP  OW  HW  HW  EP  OW  HW  HW  EP  OW  HW  HW  EP  OW  HW  
HW  EP  OW  HW  HW  EP  OW  HW  HW  EP  OW  HW  HW  EP  OW  HW  HW  EP  OW  HW  
HW  EP  OW  HW  HW  EP  OW  HW  HW  EP  OW  HW  HW  EP  OW  HW  HW  EP  OW  HW  
HW  EP  OW  HW  HW  EP  OW  HW  HW  EP  OW  HW  HW  EP  OW  HW  HW  EP  OW  HW  
HW  EP  OW  HW  HW  EP  OW  HW  HW  EP  OW  HW  HW  EP  OW  HW  HW  EP  OW  HW  
HW  EP  OW  HW  HW  EP  OW  HW  HW  EP  OW  HW  HW  EP  OW  HW  HW  EP  OW  HW  
HW  EP  OW  HW  HW  EP  OW  HW  HW  EP  OW  HW  HW  EP  OW  HW  HW  EP  OW  HW  
HW  EP  OW  HW  HW  EP  OW  HW  HW  EP  OW  HW  HW  EP  OW  HW  HW  EP  OW  HW  
HW  EP  OW  HW  HW  EP  OW  HW  HW  EP  OW  HW  HW  EP  OW  HW  HW  EP  OW  HW  
HW  EP  OW  HW  HW  EP  OW  HW  HW  EP  OW  HW  HW  EP  OW  HW  HW  EP  OW  HW  
HW  EP  OW  HW  HW  EP  OW  HW  HW  EP  OW  HW  HW  EP  OW  HW  HW  EP  OW  HW  
HW  EP  OW  HW  HW  EP  OW  HW  HW  EP  OW  HW  HW  EP  OW  HW  HW  EP  OW  HW  
HW  EP  OW  HW  HW  EP  OW  HW  HW  EP  OW  HW  HW  EP  OW  HW  HW  EP  OW  HW  
HW  EP  OW  HW  HW  EP  OW  HW  HW  EP  OW  HW  HW  EP  OW  HW  HW  EP  OW  HW  
HW  EP  OW  HW  HW  EP  OW  HW  HW  EP  OW  HW  HW  EP  OW  HW  HW  EP  OW  HW  
HW  EP  OW  HW  HW  EP  OW  HW  HW  EP  OW  HW  HW  EP  OW  HW  HW  EP  OW  HW  
HW  EP  OW  HW  HW  EP  OW  HW  HW  EP  OW  HW  HW  EP  OW  HW  HW  EP  OW  HW  
HW  EP  OW  HW  HW  EP  OW  HW  HW  EP  OW  HW  HW  EP  OW  HW  HW  EP  OW  HW  
HW  EP  OW  HW  HW  EP  OW  HW  HW  EP  OW  HW  HW  EP  OW  HW  HW  EP  OW  HW  
HW  EP  OW  HW  HW  EP  OW  HW  HW  EP  OW  HW  HW  EP  OW  HW  HW  EP  OW  HW  
HW  EP  OW  HW  HW  EP  OW  HW  HW  EP  OW  HW  HW  EP  OW  HW  HW  EP  OW  HW  
HW  EP  OW  HW  HW  EP  OW  HW  HW  EP  OW  HW  HW  EP  OW  HW  HW  EP  OW  HW  
HW  EP  OW  HW  HW  EP  OW  HW  HW  EP  OW  HW  HW  EP  OW  HW  HW  EP  OW  HW  
HW  EP  OW  HW  HW  EP  OW  HW  HW  EP  OW  HW  HW  EP  OW  HW  HW  EP  OW  HW  
HW  EP  OW  HW  HW  EP  OW  HW  HW  EP  OW  HW  HW  EP  OW  HW  HW  EP  OW  HW  
HW  EP  OW  HW  HW  EP  OW  HW  HW  EP  OW  HW  HW  EP  OW  HW  HW  EP  OW  HW  
HW  EP  OW  HW  HW  EP  OW  HW  HW  EP  OW  HW  HW  EP  OW  HW  HW  EP  OW  HW  
HW  EP  OW  HW  HW  EP  OW  HW  HW  EP  OW  HW  HW  EP  OW  HW  HW  EP  OW  HW  
HW  EP  OW  HW  HW  EP  OW  HW  HW  EP  OW  HW  HW  EP  OW  HW  HW  EP  OW  HW  
HW  EP  OW  HW  HW  EP  OW  HW  HW  EP  OW  HW  HW  EP  OW  HW  HW  EP  OW  HW  
HW  EP  OW  HW  HW  EP  OW  HW  HW  EP  OW  HW  HW  EP  OW  HW  HW  EP  OW  HW  
HW  EP  OW  HW  HW  EP  OW  HW  HW  EP  OW  HW  HW  EP  OW  HW  HW  EP  OW  HW  
HW  EP  OW  HW  HW  EP  OW  HW  HW  EP  OW  HW  HW  EP  OW  HW  HW  EP  OW  HW  
HW  EP  OW  HW  HW  EP  OW  HW  HW  EP  OW  HW  HW  EP  OW  HW  HW  EP  OW  HW  
HW  EP  OW  HW  HW  EP  OW  HW  HW  EP  OW  HW  HW  EP  OW  HW  HW  EP  OW  HW  
HW  EP  OW  HW  HW  EP  OW  HW  HW  EP  OW  HW  HW  EP  OW  HW  HW  EP  OW  HW  
HW  EP  OW  HW  HW  EP  OW  HW  HW  EP  OW  HW  HW  EP  OW  HW  HW  EP  OW  HW  
HW  EP  OW  HW  HW  EP  OW  HW  HW  EP  OW  HW  HW  EP  OW  HW  HW  EP  OW  HW  
HW  EP  OW  HW  HW  EP  OW  HW  HW  EP  OW  HW  HW  EP  OW  HW  HW  EP  OW  HW  
HW  EP  OW  HW  HW  EP  OW  HW  HW  EP  OW  HW  HW  EP  OW  HW  HW  EP  OW  HW  
HW  EP  OW  HW  HW  EP  OW  HW  HW  EP  OW  HW  HW  EP  OW  HW  HW  EP  OW  HW  
HW  EP  OW  HW  HW  EP  OW  HW  HW  EP  OW  HW  HW  EP  OW  HW  HW  EP  OW  HW  
HW  EP  OW  HW  HW  EP  OW  HW  HW  EP  OW  HW  HW  EP  OW  HW  HW  EP  OW  HW  
HW  EP  OW  HW  HW  EP  OW  HW  HW  EP  OW  HW  HW  EP  OW  HW  HW  EP  OW  HW  
HW  EP  OW  HW  HW  EP  OW  HW  HW  EP  OW  HW  HW  EP  OW  HW  HW  EP  OW  HW  
HW  EP  OW  HW  HW  EP  OW  HW  HW  EP  OW  HW  HW  EP  OW  HW  HW  EP  OW  HW  
HW  EP  OW  HW  HW  EP  OW  HW  HW  EP  OW  HW  HW  EP  OW  HW  HW  EP  OW  HW  
HW  EP  OW  HW  HW  EP  OW  HW  HW  EP  OW  HW  HW  EP  OW  HW  HW  EP  OW  HW  
HW  EP  OW  HW  HW  EP  OW  HW  HW  EP  OW  HW  HW  EP  OW  HW  HW  EP  OW  HW  
HW  EP  OW  HW  HW  EP  OW  HW  HW  EP  OW  HW  HW  EP  OW  HW  HW  EP  OW  HW  
HW  EP  OW  HW  HW  EP  OW  HW  HW  EP  OW  HW  HW  EP  OW  HW  HW  EP  OW  HW  
HW  EP  OW  HW  HW  EP  OW  HW  HW  EP  OW  HW  HW  EP  OW  HW  HW  EP  OW  HW  
HW  EP  OW  HW  HW  EP  OW  HW  HW  EP  OW  HW  HW  EP  OW  HW  HW  EP  OW  HW  
HW  EP  OW  HW  HW  EP  OW  HW  HW  EP  OW  HW  HW  EP  OW  HW  HW  EP  OW  HW  
HW  EP  OW  HW  HW  EP  OW  HW  HW  EP  OW  HW  HW  EP  OW  HW  HW  EP  OW  HW  
HW  EP  OW  HW  HW  EP  OW  HW  HW  EP  OW  HW  HW  EP  OW  HW  HW  EP  OW  HW  
HW  EP  OW  HW  HW  EP  OW  HW  HW  EP  OW  HW  HW  EP  OW  HW  HW  EP  OW  HW  
HW  EP  OW  HW  HW  EP  OW  HW  HW  EP  OW  HW  HW  EP  OW  HW  HW  EP  OW  HW  
HW  EP  OW  HW  HW  EP  OW  HW  HW  EP  OW  HW  HW  EP  OW  HW  HW  EP  OW  HW  
HW  EP  OW  HW  HW  EP  OW  HW  HW  EP  OW  HW  HW  EP  OW  HW  HW  EP  OW  HW  
HW  EP  OW  HW  HW  EP  OW  HW  HW  EP  OW  HW  HW  EP  OW  HW  HW  EP  OW  HW  
HW  EP  OW  HW  HW  EP  OW  HW  HW  EP  OW  HW  HW  EP  OW  HW  HW  EP  OW  HW  
HW  EP  OW  HW  HW  EP  OW  HW  HW  EP  OW  HW  HW  EP  OW  HW  HW  EP  OW  HW  
HW  EP  OW  HW  HW  EP  OW  HW  HW  EP  OW  HW  HW  EP  OW  HW  HW  EP  OW  HW  
HW  EP  OW  HW  HW  EP  OW  HW  HW  EP  OW  HW  HW  EP  OW  HW  HW  EP  OW  HW  
HW  EP  OW  HW  HW  EP  OW  HW  HW  EP  OW  HW  HW  EP  OW  HW  HW  EP  OW  HW  
HW  EP  OW  HW  HW  EP  OW  HW  HW  EP  OW  HW  HW  EP  OW  HW  HW  EP  OW  HW  
HW  EP  OW  HW  HW  EP  OW  HW  HW  EP  OW  HW  HW  EP  OW  HW  HW  EP  OW  HW  
HW  EP  OW  HW  HW  EP  OW  HW  HW  EP  OW  HW  HW  EP  OW  HW  HW  EP  OW  HW  
HW  EP  OW  HW  HW  EP  OW  HW  HW  EP  OW  HW  HW  EP  OW  HW  HW  EP  OW  HW  
HW  EP  OW  HW  HW  EP  OW  HW  HW  EP  OW  HW  HW  EP  OW  HW  HW  EP  OW  HW  
HW  EP  OW  HW  HW  EP  OW  HW  HW  EP  OW  HW  HW  EP  OW  HW  HW  EP  OW  HW  
HW  EP  OW  HW  HW  EP  OW  HW  HW  EP  OW  HW  HW  EP  OW  HW  HW  EP  OW  HW  
HW  EP  OW  HW  HW  EP  OW  HW  HW  EP  OW  HW  HW  EP  OW  HW  HW  EP  OW  HW  
HW  EP  OW  HW  HW  EP  OW  HW  HW  EP  OW  HW  HW  EP  OW  HW  HW  EP  OW  HW  
HW  EP  OW  HW  HW  EP  OW  HW  HW  EP  OW  HW  HW  EP  OW  HW  HW  EP  OW  HW  
HW  EP  OW  HW  HW  EP  OW  HW  HW  EP  OW  HW  HW  EP  OW  HW  HW  EP  OW  HW  
HW  EP  OW  HW  HW  EP  OW  HW  HW  EP  OW  HW  HW  EP  OW  HW  HW  EP  OW  HW  
HW  EP  OW  HW  HW  EP  OW  HW  HW  EP  OW  HW  HW  EP  OW  HW  HW  EP  OW  HW  
HW  EP  OW  HW  HW  EP  OW  HW  HW  EP  OW  HW  HW  EP  OW  HW  HW  EP  OW  HW  
HW  EP  OW  HW  HW  EP  OW  HW  HW  EP  OW  HW  HW  EP  OW  HW  HW  EP  OW  HW  
HW  EP  OW  HW  HW  EP  OW  HW  HW  EP  OW  HW  HW  EP  OW  HW  HW  EP  OW  HW  
HW  EP  OW  HW  HW  EP  OW  HW  HW  EP  OW  HW  HW  EP  OW  HW  HW  EP  OW  HW  
HW  EP  OW  HW  HW  EP  OW  HW  HW  EP  OW  HW  HW  EP  OW  HW  HW  EP  OW  HW  
HW  EP  OW  HW  HW  EP  OW  HW  HW  EP  OW  HW  HW  EP  OW  HW  HW  EP  OW  HW  
HW  EP  OW  HW  HW  EP  OW  HW  HW  EP  OW  HW  HW  EP  OW  HW  HW  EP  OW  HW  
HW  EP  OW  HW  HW  EP  OW  HW  HW  EP  OW  HW  HW  EP  OW  HW  HW  EP  OW  HW  
HW  EP  OW  HW  HW  EP  OW  HW  HW  EP  OW  HW  HW  EP  OW  HW  HW  EP  OW  HW  
HW  EP  OW  HW  HW  EP  OW  HW  HW  EP  OW  HW  HW  EP  OW  HW  HW  EP  OW  HW  
HW  EP  OW  HW  HW  EP  OW  HW  HW  EP  OW  HW  HW  EP  OW  HW  HW  EP  OW  HW  
HW  EP  OW  HW  HW  EP  OW  HW  HW  EP  OW  HW  HW  EP  OW  HW  HW  EP  OW  HW  
HW  EP  OW  HW  HW  EP  OW  HW  HW  EP  OW  HW  HW  EP  OW  HW  HW  EP  OW  HW  
HW  EP  OW  HW  HW  EP  OW  HW  HW  EP  OW  HW  HW  EP  OW  HW  HW  EP  OW  HW  
HW  EP  OW  HW  HW  EP  OW  HW  HW  EP  OW  HW  HW  EP  OW  HW  HW  EP  OW  HW  
HW  EP  OW  HW  HW  EP  OW  HW  HW  EP  OW  HW  HW  EP  OW  HW  HW  EP  OW  HW  
HW  EP  OW  HW  HW  EP  OW  HW  HW  EP  OW  HW  HW  EP  OW  HW  HW  EP  OW  HW  
HW  EP  OW  HW  HW  EP  OW  HW  HW  EP  OW  HW  HW  EP  OW  HW  HW  EP  OW  HW  
HW  EP  OW  HW  HW  EP  OW  HW  HW  EP  OW  HW  HW  EP  OW  HW  HW  EP  OW  HW  
HW  EP  OW  HW  HW  EP  OW  HW  HW  EP  OW  HW  HW  EP  OW  HW  HW  EP  OW  HW  
HW  EP  OW  HW  HW  EP  OW  HW  HW  EP  OW  HW  HW  EP  OW  HW  HW  EP  OW  HW  
HW  EP  OW  HW  HW  EP  OW  HW  HW  EP  OW  HW  HW  EP  OW  HW  HW  EP  OW  HW  
HW  EP  OW  HW  HW  EP  OW  HW  HW  EP  OW  HW  HW  EP  OW  HW  HW  EP  OW  HW  
HW  EP  OW  HW  HW  EP  OW  HW  HW  EP  OW  HW  HW  EP  OW  HW  HW  EP  OW  HW  
HW  EP  OW  HW  HW  EP  OW  HW  HW  EP  OW  HW  HW  EP  OW  HW  HW  EP  OW  HW  
HW  EP  OW  HW  HW  EP  OW  HW  HW  EP  OW  HW  HW  EP  OW  HW  HW  EP  OW  HW  
HW  EP  OW  HW  HW  EP  OW  HW  HW  EP  OW  HW  HW  EP  OW  HW  HW  EP  OW  HW  
HW  EP  OW  HW  HW  EP  OW  HW  HW  EP  OW  HW  HW  EP  OW  HW  HW  EP  OW  HW  
HW  EP  OW  HW  HW  EP  OW  HW  HW  EP  OW  HW  HW  EP  OW  HW  HW  EP  OW  HW  
HW  EP  OW  HW  HW  EP  OW  HW  HW  EP  OW  HW  HW  EP  OW  HW  HW  EP  OW  HW  
HW  EP  OW  HW  HW  EP  OW  HW  HW  EP  OW  HW  HW  EP  OW  HW  HW  EP  OW  HW  
HW  EP  OW  HW  HW  EP  OW  HW  HW  EP  OW  HW  HW  EP  OW  HW  HW  EP  OW  HW  
HW  EP  OW  HW  HW  EP  OW  HW  HW  EP  OW  HW  HW  EP  OW  HW  HW  EP  OW  HW  
HW  EP  OW  HW  HW  EP  OW  HW  HW  EP  OW  HW  HW  EP  OW  HW  HW  EP  OW  HW  
HW  EP  OW  HW  HW  EP  OW  HW  HW  EP  OW  HW  HW  EP  OW  HW  HW  EP  OW  HW  
HW  EP  OW  HW  HW  EP  OW  HW  HW  EP  OW  HW  HW  EP  OW  HW  HW  EP  OW  HW  
HW  EP  OW  HW  HW  EP  OW  HW  HW  EP  OW  HW  HW  EP  OW  HW  HW  EP  OW  HW  
HW  EP  OW  HW  HW  EP  OW  HW  HW  EP  OW  HW  HW  EP  OW  HW  HW  EP  OW  HW  
HW  EP  OW  HW  HW  EP  OW  HW  HW  EP  OW  HW  HW  EP  OW  HW  HW  EP  OW  HW  
HW  EP  OW  HW  HW  EP  OW  HW  HW  EP  OW  HW  HW  EP  OW  HW  HW  EP  OW  HW  
HW  EP  OW  HW  HW  EP  OW  HW  HW  EP  OW  HW  HW  EP  OW  HW  HW  EP  OW  HW  
HW  EP  OW  HW  HW  EP  OW  HW  HW  EP  OW  HW  HW  EP  OW  HW  HW  EP  OW  HW  
HW  EP  OW  HW  HW  EP  OW  HW  HW  EP  OW  HW  HW  EP  OW  HW  HW  EP  OW  HW  
HW  EP  OW  HW  HW  EP  OW  HW  HW  EP  OW  HW  HW  EP  OW  HW  HW  EP  OW  HW  
HW  EP  OW  HW  HW  EP  OW  HW  HW  EP  OW  HW  HW  EP  OW  HW  HW  EP  OW  HW  
HW  EP  OW  HW  HW  EP  OW  HW  HW  EP  OW  HW  HW  EP  OW  HW  HW  EP  OW  HW  
HW  EP  OW  HW  HW  EP  OW  HW  HW  EP  OW  HW  HW  EP  OW  HW  HW  EP  OW  HW  
HW  EP  OW  HW  HW  EP  OW  HW  HW  EP  OW  HW  HW  EP  OW  HW  HW  EP  OW  HW  
HW  EP  OW  HW  HW  EP  OW  HW  HW  EP  OW  HW  HW  EP  OW  HW  HW  EP  OW  HW  
HW  EP  OW  HW  HW  EP  OW  HW  HW  EP  OW  HW  HW  EP  OW  HW  HW  EP  OW  HW  
HW  EP  OW  HW  HW  EP  OW  HW  HW  EP  OW  HW  HW  EP  OW  HW  HW  EP  OW  HW  
HW  EP  OW  HW  HW  EP  OW  HW  HW  EP  OW  HW  HW  EP  OW  HW  HW  EP  OW  HW  
HW  EP  OW  HW  HW  EP  OW  HW  HW  EP  OW  HW  HW  EP  OW  HW  HW  EP  OW  HW  
HW  EP  OW  HW  HW  EP  OW  HW  HW  EP  OW  HW  HW  EP  OW  HW  HW  EP  OW  HW  
HW  EP  OW  HW  HW  EP  OW  HW  HW  EP  OW  HW  HW  EP  OW  HW  HW  EP  OW  HW  
HW  EP  OW  HW  HW  EP  OW  HW  HW  EP  OW  HW  HW  EP  OW  HW  HW  EP  OW  HW  
HW  EP  OW  HW  HW  EP  OW  HW  HW  EP  OW  HW  HW  EP  OW  HW  HW  EP  OW  HW  
HW  EP  OW  HW  HW  EP  OW  HW  HW  EP  OW  HW  HW  EP  OW  HW  HW  EP  OW  HW  
HW  EP  OW  HW  HW  EP  OW  HW  HW  EP  OW  HW  HW  EP  OW  HW  HW  EP  OW  HW  
HW  EP  OW  HW  HW  EP  OW  HW  HW  EP  OW  HW  HW  EP  OW  HW  HW  EP  OW  HW  
HW  EP  OW  HW  HW  EP  OW  HW  HW  EP  OW  HW  HW  EP  OW  HW  HW  EP  OW  HW  
HW  EP  OW  HW  HW  EP  OW  HW  HW  EP  OW  HW  HW  EP  OW  HW  HW  EP  OW  HW  
HW  EP  OW  HW  HW  EP  OW  HW  HW  EP  OW  HW  HW  EP  OW  HW  HW  EP  OW  HW  
HW  EP  OW  HW  HW  EP  OW  HW  HW  EP  OW  HW  HW  EP  OW  HW  HW  EP  OW  HW  
HW  EP  OW  HW  HW  EP  OW  HW  HW  EP  OW  HW  HW  EP  OW  HW  HW  EP  OW  HW  
HW  EP  OW  HW  HW  EP  OW  HW  HW  EP  OW  HW  HW  EP  OW  HW  HW  EP  OW  HW  
HW  EP  OW  HW  HW  EP  OW  HW  HW  EP  OW  HW  HW  EP  OW  HW  HW  EP  OW  HW  
HW  EP  OW  HW  HW  EP  OW  HW  HW  EP  OW  HW  HW  EP  OW  HW  HW  EP  OW  HW  
HW  EP  OW  HW  HW  EP  OW  HW  HW  EP  OW  HW  HW  EP  OW  HW  HW  EP  OW  HW  
HW  EP  OW  HW  HW  EP  OW  HW  HW  EP  OW  HW  HW  EP  OW  HW  HW  EP  OW  HW  
HW  EP  OW  HW  HW  EP  OW  HW  HW  EP  OW  HW  HW  EP  OW  HW  HW  EP  OW  HW  
HW  EP  OW  HW  HW  EP  OW  HW  HW  EP  OW  HW  HW  EP  OW  HW  HW  EP  OW  HW  
HW  EP  OW  HW  HW  EP  OW  HW  HW  EP  OW  HW  HW  EP  OW  HW  HW  EP  OW  HW  
HW  EP  OW  HW  HW  EP  OW  HW  HW  EP  OW  HW  HW  EP  OW  HW  HW  EP  OW  HW  
HW  EP  OW  HW  HW  EP  OW  HW  HW  EP  OW  HW  HW  EP  OW  HW  HW  EP  OW  HW  
HW  EP  OW  HW  HW  EP  OW  HW  HW  EP  OW  HW  HW  EP  OW  HW  HW  EP  OW  HW  
HW  EP  OW  HW  HW  EP  OW  HW  HW  EP  OW  HW  HW  EP  OW  HW  HW  EP  OW  HW  
HW  EP  OW  HW  HW  EP  OW  HW  HW  EP  OW  HW  HW  EP  OW  HW  HW  EP  OW  HW  
HW  EP  OW  HW  HW  EP  OW  HW  HW  EP  OW  HW  HW  EP  OW  HW  HW  EP  OW  HW  
HW  EP  OW  HW  HW  EP  OW  HW  HW  EP  OW  HW  HW  EP  OW  HW  HW  EP  OW  HW  
HW  EP  OW  HW  HW  EP  OW  HW  HW  EP  OW  HW  HW  EP  OW  HW  HW  EP  OW  HW  
HW  EP  OW  HW  HW  EP  OW  HW  HW  EP  OW  HW  HW  EP  OW  HW  HW  EP  OW  HW  
HW  EP  OW  HW  HW  EP  OW  HW  HW  EP  OW  HW  HW  EP  OW  HW  HW  EP  OW  HW  
HW  EP  OW  HW  HW  EP  OW  HW  HW  EP  OW  HW  HW  EP  OW  HW  HW  EP  OW  HW  
HW  EP  OW  HW  HW  EP  OW  HW  HW  EP  OW  HW  HW  EP  OW  HW  HW  EP  OW  HW  
HW  EP  OW  HW  HW  EP  OW  HW  HW  EP  OW  HW  HW  EP  OW  HW  HW  EP  OW  HW  
HW  EP  OW  HW  HW  EP  OW  HW  HW  EP  OW  HW  HW  EP  OW  HW  HW  EP  OW  HW  
HW  EP  OW  HW  HW  EP  OW  HW  HW  EP  OW  HW  HW  EP  OW  HW  HW  EP  OW  HW  
HW  EP  OW  HW  HW  EP  OW  HW  HW  EP  OW  HW  HW  EP  OW  HW  HW  EP  OW  HW  
HW  EP  OW  HW  HW  EP  OW  HW  HW  EP  OW  HW  HW  EP  OW  HW  HW  EP  OW  HW  
HW  EP  OW  HW  HW  EP  OW  HW  HW  EP  OW  HW  HW  EP  OW  HW  HW  EP  OW  HW  
HW  EP  OW  HW  HW  EP  OW  HW  HW  EP  OW  HW  HW  EP  OW  HW  HW  EP  OW  HW  
HW  EP  OW  HW  HW  EP  OW  HW  HW  EP  OW  HW  HW  EP  OW  HW  HW  EP  OW  HW  
HW  EP  OW  HW  HW  EP  OW  HW  HW  EP  OW  HW  HW  EP  OW  HW  HW  EP  OW  HW  
HW  EP  OW  HW  HW  EP  OW  HW  HW  EP  OW  HW  HW  EP  OW  HW  HW  EP  OW  HW  
HW  EP  OW  HW  HW  EP  OW  HW  HW  EP  OW  HW  HW  EP  OW  HW  HW  EP  OW  HW  
HW  EP  OW  HW  HW  EP  OW  HW  HW  EP  OW  HW  HW  EP  OW  HW  HW  EP  OW  HW  
HW  EP  OW  HW  HW  EP  OW  HW  HW  EP  OW  HW  HW  EP  OW  HW  HW  EP  OW  HW  
HW  EP  OW  HW  HW  EP  OW  HW  HW  EP  OW  HW  HW  EP  OW  HW  HW  EP  OW  HW  
HW  EP  OW  HW  HW  EP  OW  HW  HW  EP  OW  HW  HW  EP  OW  HW  HW  EP  OW  HW  
HW  EP  OW  HW  HW  EP  OW  HW  HW  EP  OW  HW  HW  EP  OW  HW  HW  EP  OW  HW  
HW  EP  OW  HW  HW  EP  OW  HW  HW  EP  OW  HW  HW  EP  OW  HW  HW  EP  OW  HW  
HW  EP  OW  HW  HW  EP  OW  HW  HW  EP  OW  HW  HW  EP  OW  HW  HW  EP  OW  HW  
HW  EP  OW  HW  HW  EP  OW  HW  HW  EP  OW  HW  HW  EP  OW  HW  HW  EP  OW  HW  
HW  EP  OW  HW  HW  EP  OW  HW  HW  EP  OW  HW  HW  EP  OW  HW  HW  EP  OW  HW  
HW  EP  OW  HW  HW  EP  OW  HW  HW  EP  OW  HW  HW  EP  OW  HW  HW  EP  OW  HW  
HW  EP  OW  HW  HW  EP  OW  HW  HW  EP  OW  HW  HW  EP  OW  HW  HW  EP  OW  HW  
HW  EP  OW  HW  HW  EP  OW  HW  HW  EP  OW  HW  HW  EP  OW  HW  HW  EP  OW  HW  
HW  EP  OW  HW  HW  EP  OW  HW  HW  EP  OW  HW  HW  EP  OW  HW  HW  EP  OW  HW  
HW  EP  OW  HW  HW  EP  OW  HW  HW  EP  OW  HW  HW  EP  OW  HW  HW  EP  OW  HW  
HW  EP  OW  HW  HW  EP  OW  HW  HW  EP  OW  HW  HW  EP  OW  HW  HW  EP  OW  HW  
HW  EP  OW  HW  HW  EP  OW  HW  HW  EP  OW  HW  HW  EP  OW  HW  HW  EP  OW  HW  
HW  EP  OW  HW  HW  EP  OW  HW  HW  EP  OW  HW  HW  EP  OW  HW  HW  EP  OW  HW  
HW  EP  OW  HW  HW  EP  OW  HW  HW  EP  OW  HW  HW  EP  OW  HW  HW  EP  OW  HW  
HW  EP  OW  HW  HW  EP  OW  HW  HW  EP  OW  HW  HW  EP  OW  HW  HW  EP  OW  HW  
HW  EP  OW  HW  HW  EP  OW  HW  HW  EP  OW  HW  HW  EP  OW  HW  HW  EP  OW  HW  
HW  EP  OW  HW  HW  EP  OW  HW  HW  EP  OW  HW  HW  EP  OW  HW  HW  EP  OW  HW  
HW  EP  OW  HW  HW  EP  OW  HW  HW  EP  OW  HW  HW  EP  OW  HW  HW  EP  OW  HW  
HW  EP  OW  HW  HW  EP  OW  HW  HW  EP  OW  HW  HW  EP  OW  HW  HW  EP  OW  HW  
HW  EP  OW  HW  HW  EP  OW  HW  HW  EP  OW  HW  HW  EP  OW  HW  HW  EP  OW  HW  
HW  EP  OW  HW  HW  EP  OW  HW  HW  EP  OW  HW  HW  EP  OW  HW  HW  EP  OW  HW  
HW  EP  OW  HW  HW  EP  OW  HW  HW  EP  OW  HW  HW  EP  OW  HW  HW  EP  OW  HW  
HW  EP  OW  HW  HW  EP  OW  HW  HW  EP  OW  HW  HW  EP  OW  HW  HW  EP  OW  HW  
HW  EP  OW  HW  HW  EP  OW  HW  HW  EP  OW  HW  HW  EP  OW  HW  HW  EP  OW  HW  
HW  EP  OW  HW  HW  EP  OW  HW  HW  EP  OW  HW  HW  EP  OW  HW  HW  EP  OW  HW  
HW  EP  OW  HW  HW  EP  OW  HW  HW  EP  OW  HW  HW  EP  OW  HW  HW  EP  OW  HW  
HW  EP  OW  HW  HW  EP  OW  HW  HW  EP  OW  HW  HW  EP  OW  HW  HW  EP  OW  HW  
HW  EP  OW  HW  HW  EP  OW  HW  HW  EP  OW  HW  HW  EP  OW  HW  HW  EP  OW  HW  
HW  EP  OW  HW  HW  EP  OW  HW  HW  EP  OW  HW  HW  EP  OW  HW  HW  EP  OW  HW  
HW  EP  OW  HW  HW  EP  OW  HW  HW  EP  OW  HW  HW  EP  OW  HW  HW  EP  OW  HW  
HW  EP  OW  HW  HW  EP  OW  HW  HW  EP  OW  HW  HW  EP  OW  HW  HW  EP  OW  HW  
HW  EP  OW  HW  HW  EP  OW  HW  HW  EP  OW  HW  HW  EP  OW  HW  HW  EP  OW  HW  
HW  EP  OW  HW  HW  EP  OW  HW  HW  EP  OW  HW  HW  EP  OW  HW  HW  EP  OW  HW  
HW  EP  OW  HW  HW  EP  OW  HW  HW  EP  OW  HW  HW  EP  OW  HW  HW  EP  OW  HW  
HW  EP  OW  HW  HW  EP  OW  HW  HW  EP  OW  HW  HW  EP  OW  HW  HW  EP  OW  HW  
HW  EP  OW  HW  HW  EP  OW  HW  HW  EP  OW  HW  HW  EP  OW  HW  HW  EP  OW  HW  
HW  EP  OW  HW  HW  EP  OW  HW  HW  EP  OW  HW  HW  EP  OW  HW  HW  EP  OW  HW  
HW  EP  OW  HW  HW  EP  OW  HW  HW  EP  OW  HW  HW  EP  OW  HW  HW  EP  OW  HW  
HW  EP  OW  HW  HW  EP  OW  HW  HW  EP  OW  HW  HW  EP  OW  HW  HW  EP  OW  HW  
HW  EP  OW  HW  HW  EP  OW  HW  HW  EP  OW  HW  HW  EP  OW  HW  HW  EP  OW  HW  
HW  EP  OW  HW  HW  EP  OW  HW  HW  EP  OW  HW  HW  EP  OW  HW  HW  EP  OW  HW  
HW  EP  OW  HW  HW  EP  OW  HW  HW  EP  OW  HW  HW  EP  OW  HW  HW  EP  OW  HW  
HW  EP  OW  HW  HW  EP  OW  HW  HW  EP  OW  HW  HW  EP  OW  HW  HW  EP  OW  HW  
HW  EP  OW  HW  HW  EP  OW  HW  HW  EP  OW  HW  HW  EP  OW  HW  HW  EP  OW  HW  
HW  EP  OW  HW  HW  EP  OW  HW  HW  EP  OW  HW  HW  EP  OW  HW  HW  EP  OW  HW  
HW  EP  OW  HW  HW  EP  OW  HW  HW  EP  OW  HW  HW  EP  OW  HW  HW  EP  OW  HW  
HW  EP  OW  HW  HW  EP  OW  HW  HW  EP  OW  HW  HW  EP  OW  HW  HW  EP  OW  HW  
HW  EP  OW  HW  HW  EP  OW  HW  HW  EP  OW  HW  HW  EP  OW  HW  HW  EP  OW  HW  
HW  EP  OW  HW  HW  EP  OW  HW  HW  EP  OW  HW  HW  EP  OW  HW  HW  EP  OW  HW  
HW  EP  OW  HW  HW  EP  OW  HW  HW  EP  OW  HW  HW  EP  OW  HW  HW  EP  OW  HW  
HW  EP  OW  HW  HW  EP  OW  HW  HW  EP  OW  HW  HW  EP  OW  HW  HW  EP  OW  HW  
HW  EP  OW  HW  HW  EP  OW  HW  HW  EP  OW  HW  HW  EP  OW  HW  HW  EP  OW  HW  
HW  EP  OW  HW  HW  EP  OW  HW  HW  EP  OW  HW  HW  EP  OW  HW  HW  EP  OW  HW  
HW  EP  OW  HW  HW  EP  OW  HW  HW  EP  OW  HW  HW  EP  OW  HW  HW  EP  OW  HW  
HW  EP  OW  HW  HW  EP  OW  HW  HW  EP  OW  HW  HW  EP  OW  HW  HW  EP  OW  HW  
HW  EP  OW  HW  HW  EP  OW  HW  HW  EP  OW  HW  HW  EP  OW  HW  HW  EP  OW  HW  
HW  EP  OW  HW  HW  EP  OW  HW  HW  EP  OW  HW  HW  EP  OW  HW  HW  EP  OW  HW  
HW  EP  OW  HW  HW  EP  OW  HW  HW  EP  OW  HW  HW  EP  OW  HW  HW  EP  OW  HW  
HW  EP  OW  HW  HW  EP  OW  HW  HW  EP  OW  HW  HW  EP  OW  HW  HW  EP  OW  HW  
HW  EP  OW  HW  HW  EP  OW  HW  HW  EP  OW  HW  HW  EP  OW  HW  HW  EP  OW  HW  
HW  EP  OW  HW  HW  EP  OW  HW  HW  EP  OW  HW  HW  EP  OW  HW  HW  EP  OW  HW  
HW  EP  OW  HW  HW  EP  OW  HW  HW  EP  OW  HW  HW  EP  OW  HW  HW  EP  OW  HW  
HW  EP  OW  HW  HW  EP  OW  HW  HW  EP  OW  HW  HW  EP  OW  HW  HW  EP  OW  HW  
HW  EP  OW  HW  HW  EP  OW  HW  HW  EP  OW  HW  HW  EP  OW  HW  HW  EP  OW  HW  
HW  EP  OW  HW  HW  EP  OW  HW  HW  EP  OW  HW  HW  EP  OW  HW  HW  EP  OW  HW  
HW  EP  OW  HW  HW  EP  OW  HW  HW  EP  OW  HW  HW  EP  OW  HW  HW  EP  OW  HW  
HW  EP  OW  HW  HW  EP  OW  HW  HW  EP  OW  HW  HW  EP  OW  HW  HW  EP  OW  HW  
HW  EP  OW  HW  HW  EP  OW  HW  HW  EP  OW  HW  HW  EP  OW  HW  HW  EP  OW  HW  
HW  EP  OW  HW  HW  EP  OW  HW  HW  EP  OW  HW  HW  EP  OW  HW  HW  EP  OW  HW  
HW  EP  OW  HW  HW  EP  OW  HW  HW  EP  OW  HW  HW  EP  OW  HW  HW  EP  OW  HW  
HW  EP  OW  HW  HW  EP  OW  HW  HW  EP  OW  HW  HW  EP  OW  HW  HW  EP  OW  HW  
HW  EP  OW  HW  HW  EP  OW  HW  HW  EP  OW  HW  HW  EP  OW  HW  HW  EP  OW  HW  
HW  EP  OW  HW  HW  EP  OW  HW  HW  EP  OW  HW  HW  EP  OW  HW  HW  EP  OW  HW  
HW  EP  OW  HW  HW  EP  OW  HW  HW  EP  OW  HW  HW  EP  OW  HW  HW  EP  OW  HW  
HW  EP  OW  HW  HW  EP  OW  HW  HW  EP  OW  HW  HW  EP  OW  HW  HW  EP  OW  HW  
HW  EP  OW  HW  HW  EP  OW  HW  HW  EP  OW  HW  HW  EP  OW  HW  HW  EP  OW  HW  
HW  EP  OW  HW  HW  EP  OW  HW  HW  EP  OW  HW  HW  EP  OW  HW  HW  EP  OW  HW  
HW  EP  OW  HW  HW  EP  OW  HW  HW  EP  OW  HW  HW  EP  OW  HW  HW  EP  OW  HW  
HW  EP  OW  HW  HW  EP  OW  HW  HW  EP  OW  HW  HW  EP  OW  HW  HW  EP  OW  HW  
HW  EP  OW  HW  HW  EP  OW  HW  HW  EP  OW  HW  HW  EP  OW  HW  HW  EP  OW  HW  
HW  EP  OW  HW  HW  EP  OW  HW  HW  EP  OW  HW  HW  EP  OW  HW  HW  EP  OW  HW  
HW  EP  OW  HW  HW  EP  OW  HW  HW  EP  OW  HW  HW  EP  OW  HW  HW  EP  OW  HW  
HW  EP  OW  HW  HW  EP  OW  HW  HW  EP  OW  HW  HW  EP  OW  HW  HW  EP  OW  HW  
HW  EP  OW  HW  HW  EP  OW  HW  HW  EP  OW  HW  HW  EP  OW  HW  HW  EP  OW  HW  
HW  EP  OW  HW  HW  EP  OW  HW  HW  EP  OW  HW  HW  EP  OW  HW  HW  EP  OW  HW  
HW  EP  OW  HW  HW  EP  OW  HW  HW  EP  OW  HW  HW  EP  OW  HW  HW  EP  OW  HW  
HW  EP  OW  HW  HW  EP  OW  HW  HW  EP  OW  HW  HW  EP  OW  HW  HW  EP  OW  HW  
HW  EP  OW  HW  HW  EP  OW  HW  HW  EP  OW  HW  HW  EP  OW  HW  HW  EP  OW  HW  
HW  EP  OW  HW  HW  EP  OW  HW  HW  EP  OW  HW  HW  EP  OW  HW  HW  EP  OW  HW  
HW  EP  OW  HW  HW  EP  OW  HW  HW  EP  OW  HW  HW  EP  OW  HW  HW  EP  OW  HW  
HW  EP  OW  HW  HW  EP  OW  HW  HW  EP  OW  HW  HW  EP  OW  HW  HW  EP  OW  HW  
HW  EP  OW  HW  HW  EP  OW  HW  HW  EP  OW  HW  HW  EP  OW  HW  HW  EP  OW  HW  
HW  EP  OW  HW  HW  EP  OW  HW  HW  EP  OW  HW  HW  EP  OW  HW  HW  EP  OW  HW  
HW  EP  OW  HW  HW  EP  OW  HW  HW  EP  OW  HW  HW  EP  OW  HW  HW  EP  OW  HW  
HW  EP  OW  HW  HW  EP  OW  HW  HW  EP  OW  HW  HW  EP  OW  HW  HW  EP  OW  HW  
HW  EP  OW  HW  HW  EP  OW  HW  HW  EP  OW  HW  HW  EP  OW  HW  HW  EP  OW  HW  
HW  EP  OW  HW  HW  EP  OW  HW  HW  EP  OW  HW  HW  EP  OW  HW  HW  EP  OW  HW  
HW  EP  OW  HW  HW  EP  OW  HW  HW  EP  OW  HW  HW  EP  OW  HW  HW  EP  OW  HW  
HW  EP  OW  HW  HW  EP  OW  HW  HW  EP  OW  HW  HW  EP  OW  HW  HW  EP  OW  HW  
HW  EP  OW  HW  HW  EP  OW  HW  HW  EP  OW  HW  HW  EP  OW  HW  HW  EP  OW  HW  
HW  EP  OW  HW  HW  EP  OW  HW  HW  EP  OW  HW  HW  EP  OW  HW  HW  EP  OW  HW  
HW  EP  OW  HW  HW  EP  OW  HW  HW  EP  OW  HW  HW  EP  OW  HW  HW  EP  OW  HW  
HW  EP  OW  HW  HW  EP  OW  HW  HW  EP  OW  HW  HW  EP  OW  HW  HW  EP  OW  HW  
HW  EP  OW  HW  HW  EP  OW  HW  HW  EP  OW  HW  HW  EP  OW  HW  HW  EP  OW  HW  
HW  EP  OW  HW  HW  EP  OW  HW  HW  EP  OW  HW  HW  EP  OW  HW  HW  EP  OW  HW  
HW  EP  OW  HW  HW  EP  OW  HW  HW  EP  OW  HW  HW  EP  OW  HW  HW  EP  OW  HW  
HW  EP  OW  HW  HW  EP  OW  HW  HW  EP  OW  HW  HW  EP  OW  HW  HW  EP  OW  HW  
HW  EP  OW  HW  HW  EP  OW  HW  HW  EP  OW  HW  HW  EP  OW  HW  HW  EP  OW  HW  
HW  EP  OW  HW  HW  EP  OW  HW  HW  EP  OW  HW  HW  EP  OW  HW  HW  EP  OW  HW  
HW  EP  OW  HW  HW  EP  OW  HW  HW  EP  OW  HW  HW  EP  OW  HW  HW  EP  OW  HW  
HW  EP  OW  HW  HW  EP  OW  HW  HW  EP  OW  HW  HW  EP  OW  HW  HW  EP  OW  HW  
HW  EP  OW  HW  HW  EP  OW  HW  HW  EP  OW  HW  HW  EP  OW  HW  HW  EP  OW  HW  
HW  EP  OW  HW  HW  EP  OW  HW  HW  EP  OW  HW  HW  EP  OW  HW  HW  EP  OW  HW  
HW  EP  OW  HW  HW  EP  OW  HW  HW  EP  OW  HW  HW  EP  OW  HW  HW  EP  OW  HW  
HW  EP  OW  HW  HW  EP  OW  HW  HW  EP  OW  HW  HW  EP  OW  HW  HW  EP  OW  HW  
HW  EP  OW  HW  HW  EP  OW  HW  HW  EP  OW  HW  HW  EP  OW  HW  HW  EP  OW  HW  
HW  EP  OW  HW  HW  EP  OW  HW  HW  EP  OW  HW  HW  EP  OW  HW  HW  EP  OW  HW  
HW  EP  OW  HW  HW  EP  OW  HW  HW  EP  OW  HW  HW  EP  OW  HW  HW  EP  OW  HW  
HW  EP  OW  HW  HW  EP  OW  HW  HW  EP  OW  HW  HW  EP  OW  HW  HW  EP  OW  HW  
HW  EP  OW  HW  HW  EP  
%FLAG TREE_CHAIN_CLASSIFICATION                                                 
%FORMAT(20a4)                                                                   
M   M   M   E   E   M   E   S   3   E   B   S   E   E   B   B   E   B   E   S   
B   E   E   E   B   M   E   B   E   S   E   M   M   E   E   M   M   E   E   M   
E   S   3   E   B   S   E   E   B   B   E   B   E   S   B   E   E   E   B   M   
E   B   E   S   E   M   M   E   E   M   M   E   E   M   E   S   3   E   B   S   
E   E   B   B   B   E   E   S   S   E   E   B   M   E   B   E   S   E   M   M   
E   E   M   M   E   E   M   E   S   3   E   B   S   E   S   E   B   E   B   E   
B   E   M   E   B   E   S   E   M   M   E   E   M   M   E   E   M   E   S   3   
E   B   S   E   S   E   B   B   E   E   S   B   E   M   E   B   E   S   E   M   
M   E   E   M   M   E   E   M   E   S   3   E   B   S   E   E   B   B   B   E   
E   S   S   E   E   B   M   E   B   E   S   E   M   M   E   E   M   M   E   E   
M   E   S   3   E   B   S   E   S   E   B   E   B   E   B   E   M   E   B   E   
S   E   M   M   E   E   M   M   E   E   M   E   S   3   E   B   S   E   E   B   
B   B   E   E   S   S   E   E   B   M   E   B   E   S   E   M   M   E   E   M   
M   E   E   M   E   S   3   E   B   S   E   S   E   B   E   B   E   B   E   M   
E   B   E   S   E   M   M   E   E   M   M   E   E   M   E   S   3   E   B   S   
E   E   B   B   B   E   E   S   S   E   E   B   M   E   B   E   S   E   M   M   
E   E   M   M   E   E   M   E   S   3   E   B   S   E   E   B   B   B   E   E   
S   S   E   E   B   M   E   B   E   S   E   M   M   E   E   M   M   E   E   M   
E   S   3   E   B   S   E   S   E   B   E   B   E   B   E   M   E   B   E   S   
E   M   M   E   E   M   M   E   E   M   E   S   3   E   B   S   E   S   E   B   
B   E   E   S   B   E   M   E   B   E   S   E   M   M   E   E   M   M   E   E   
M   E   S   3   E   B   S   E   E   B   B   E   B   E   S   B   E   E   E   B   
M   E   B   E   S   E   M   M   E   E   M   M   E   E   M   E   S   3   E   B   
S   E   S   E   B   B   E   E   S   B   E   M   E   B   E   S   E   M   M   E   
E   M   M   E   E   M   E   S   3   E   B   S   E   E   B   B   E   B   E   S   
B   E   E   E   B   M   E   B   E   S   E   M   M   E   E   M   M   E   E   M   
E   S   3   E   B   S   E   S   E   B   E   B   E   B   E   M   E   B   E   S   
E   M   M   E   E   M   M   E   E   M   E   S   3   E   B   S   E   E   B   B   
E   B   E   S   B   E   E   E   B   M   E   B   E   S   E   M   M   E   E   M   
M   E   E   M   E   S   3   E   B   S   E   E   B   B   E   B   E   S   B   E   
E   E   B   M   E   B   E   S   E   M   M   E   E   M   M   E   E   M   E   S   
3   E   B   S   E   E   B   B   B   E   E   S   S   E   E   B   M   E   B   E   
S   E   M   M   E   E   M   M   E   E   M   E   S   3   E   B   S   E   S   E   
B   E   B   E   B   E   M   E   B   E   S   E   M   M   E   E   M   M   E   E   
M   E   S   3   E   B   S   E   E   B   B   B   E   E   S   S   E   E   B   M   
E   B   E   S   E   M   M   E   E   M   M   E   E   M   E   S   3   E   B   S   
E   S   E   B   E   B   E   B   E   M   E   B   E   S   E   M   M   E   E   M   
M   E   E   M   E   S   3   E   B   S   E   E   B   B   E   B   E   S   B   E   
E   E   B   M   E   B   E   S   E   M   M   E   E   M   M   E   E   M   E   S   
3   E   B   S   E   E   B   B   E   B   E   S   B   E   E   E   B   M   E   B   
E   S   E   M   M   E   E   M   M   E   E   M   E   S   3   E   B   S   E   S   
E   B   B   E   E   S   B   E   M   E   B   E   S   E   M   M   E   E   M   M   
E   E   M   E   S   3   E   B   S   E   E   B   B   B   E   E   S   S   E   E   
B   M   E   B   E   S   E   M   M   E   E   M   M   E   E   M   E   S   3   E   
B   S   E   S   E   B   B   E   E   S   B   E   M   E   B   E   S   E   M   M   
E   E   M   M   E   E   M   E   S   3   E   B   S   E   E   B   B   E   B   E   
S   B   E   E   E   B   M   E   B   E   S   E   M   M   E   E   M   M   E   E   
M   E   S   3   E   B   S   E   S   E   B   B   E   E   S   B   E   M   E   B   
E   S   E   M   M   E   E   M   M   E   E   M   E   S   3   E   B   S   E   E   
B   B   B   E   E   S   S   E   E   B   M   E   B   E   S   E   M   M   E   E   
M   M   E   E   M   E   S   3   E   B   S   E   E   B   B   B   E   E   S   S   
E   E   B   M   E   B   E   S   E   M   M   E   E   M   M   E   E   M   E   S   
3   E   B   S   E   E   B   B   E   B   E   S   B   E   E   E   B   M   E   B   
E   S   E   M   M   E   E   M   M   E   E   M   E   S   3   E   B   S   E   S   
E   B   E   B   E   B   E   M   E   B   E   S   E   M   M   E   E   M   M   E   
E   M   E   S   3   E   B   S   E   S   E   B   E   B   E   B   E   M   E   B   
E   S   E   M   M   E   E   M   M   E   E   M   E   S   3   E   B   S   E   S   
E   B   E   B   E   B   E   M   E   B   E   S   E   M   M   E   E   M   M   E   
E   M   E   S   3   E   B   S   E   S   E   B   B   E   E   S   B   E   M   E   
B   E   S   E   M   M   E   E   M   M   E   E   M   E   S   3   E   B   S   E   
S   E   B   E   B   E   B   E   M   E   B   E   S   E   M   M   E   E   M   M   
E   E   M   E   S   3   E   B   S   E   E   B   B   B   E   E   S   S   E   E   
B   M   E   B   E   S   E   M   M   E   E   M   M   E   E   M   E   S   3   E   
B   S   E   S   E   B   B   E   E   S   B   E   M   E   B   E   S   E   M   M   
E   E   M   M   E   E   M   E   S   3   E   B   S   E   S   E   B   B   E   E   
S   B   E   M   E   B   E   S   E   M   M   E   E   M   M   E   E   M   E   S   
3   E   B   S   E   E   B   B   E   B   E   S   B   E   E   E   B   M   E   B   
E   S   E   M   M   E   E   M   M   E   E   M   E   S   3   E   B   S   E   E   
B   B   E   B   E   S   B   E   E   E   B   M   E   B   E   S   E   M   M   E   
E   M   M   E   E   M   E   S   3   E   B   S   E   E   B   B   E   B   E   S   
B   E   E   E   B   M   E   B   E   S   E   M   M   E   E   M   M   E   E   M   
E   S   3   E   B   S   E   S   E   B   B   E   E   S   B   E   M   E   B   E   
S   E   M   M   E   E   M   M   E   E   M   E   S   3   E   B   S   E   E   B   
B   B   E   E   S   S   E   E   B   M   E   B   E   S   E   M   M   E   E   M   
M   E   E   M   E   S   3   E   B   S   E   S   E   B   B   E   E   S   B   E   
M   E   B   E   S   E   M   M   E   E   M   M   E   E   M   E   S   3   E   B   
S   E   S   E   B   B   E   E   S   B   E   M   E   B   E   S   E   M   M   E   
E   M   M   E   E   M   E   S   3   E   B   S   E   E   B   B   E   B   E   S   
B   E   E   E   B   M   E   B   E   S   E   M   M   E   E   M   M   E   E   M   
E   S   3   E   B   S   E   S   E   B   E   B   E   B   E   M   E   B   E   S   
E   M   M   E   E   M   M   E   E   M   E   S   3   E   B   S   E   E   B   B   
B   E   E   S   S   E   E   B   M   E   B   E   S   E   M   M   E   E   M   M   
E   E   M   E   S   3   E   B   S   E   E   B   B   B   E   E   S   S   E   E   
B   M   E   B   E   S   E   M   M   E   E   M   M   E   E   M   E   S   3   E   
B   S   E   E   B   B   B   E   E   S   S   E   E   B   M   E   B   E   S   E   
M   M   E   E   M   M   E   E   M   E   S   3   E   B   S   E   S   E   B   E   
B   E   B   E   M   E   B   E   S   E   M   M   E   E   M   M   E   E   M   E   
S   3   E   B   S   E   E   B   B   E   B   E   S   B   E   E   E   B   M   E   
B   E   S   E   M   M   E   E   M   M   E   E   M   E   S   3   E   B   S   E   
S   E   B   E   B   E   B   E   M   E   B   E   S   E   M   M   E   E   M   M   
E   E   M   E   S   3   E   B   S   E   S   E   B   B   E   E   S   B   E   M   
E   B   E   S   E   M   M   E   E   M   M   E   E   M   E   S   3   E   B   S   
E   S   E   B   B   E   E   S   B   E   M   E   B   E   S   E   M   M   E   E   
M   M   E   E   M   E   S   3   E   B   S   E   E   B   B   E   B   E   S   B   
E   E   E   B   M   E   B   E   S   E   M   M   E   E   M   M   E   E   M   E   
S   3   E   B   S   E   E   B   B   B   E   E   S   S   E   E   B   M   E   B   
E   S   E   M   M   E   E   M   M   E   E   M   E   S   3   E   B   S   E   S   
E   B   B   E   E   S   B   E   M   E   B   E   S   E   M   M   E   E   M   M   
E   E   M   E   S   3   E   B   S   E   S   E   B   E   B   E   B   E   M   E   
B   E   S   E   M   M   E   E   M   M   E   E   M   E   S   3   E   B   S   E   
E   B   B   B   E   E   S   S   E   E   B   M   E   B   E   S   E   M   M   E   
E   M   M   E   E   M   E   S   3   E   B   S   E   S   E   B   E   B   E   B   
E   M   E   B   E   S   E   M   M   E   E   M   M   E   E   M   E   S   3   E   
B   S   E   E   B   B   E   B   E   S   B   E   E   E   B   M   E   B   E   S   
E   M   M   E   E   M   M   E   E   M   E   S   3   E   B   S   E   E   B   B   
E   B   E   S   B   E   E   E   B   M   E   B   E   S   E   M   M   E   E   M   
M   E   E   M   E   S   3   E   B   S   E   S   E   B   E   B   E   B   E   M   
E   B   E   S   E   M   M   E   E   M   M   E   E   M   E   S   3   E   B   S   
E   S   E   B   B   E   E   S   B   E   M   E   B   E   S   E   M   M   M   M   
M   M   M   M   M   M   M   M   M   M   M   M   M   M   M   M   M   M   M   M   
M   M   M   M   M   M   M   M   M   M   M   M   M   M   M   M   M   M   M   M   
M   M   M   M   M   M   M   M   M   M   M   M   M   M   M   M   M   M   M   M   
M   M   M   M   M   M   M   M   M   M   M   M   M   M   M   M   M   M   M   M   
M   M   M   M   M   M   M   M   M   M   M   M   M   M   M   M   M   M   M   M   
M   M   M   M   M   M   M   M   M   M   M   M   M   M   M   M   M   M   M   M   
M   M   M   M   M   M   M   M   M   BLA BLA BLA BLA BLA BLA BLA BLA BLA BLA BLA 
BLA BLA BLA BLA BLA BLA BLA BLA BLA BLA BLA BLA BLA BLA BLA BLA BLA BLA BLA BLA 
BLA BLA BLA BLA BLA BLA BLA BLA BLA BLA BLA BLA BLA BLA BLA BLA BLA BLA BLA BLA 
BLA BLA BLA BLA BLA BLA BLA BLA BLA BLA BLA BLA BLA BLA BLA BLA BLA BLA BLA BLA 
BLA BLA BLA BLA BLA BLA BLA BLA BLA BLA BLA BLA BLA BLA BLA BLA BLA BLA BLA BLA 
BLA BLA BLA BLA BLA BLA BLA BLA BLA BLA BLA BLA BLA BLA BLA BLA BLA BLA BLA BLA 
BLA BLA BLA BLA BLA BLA BLA BLA BLA BLA BLA BLA BLA BLA BLA BLA BLA BLA BLA BLA 
BLA BLA BLA BLA BLA BLA BLA BLA BLA BLA BLA BLA BLA BLA BLA BLA BLA BLA BLA BLA 
BLA BLA BLA BLA BLA BLA BLA BLA BLA BLA BLA BLA BLA BLA BLA BLA BLA BLA BLA BLA 
BLA BLA BLA BLA BLA BLA BLA BLA BLA BLA BLA BLA BLA BLA BLA BLA BLA BLA BLA BLA 
BLA BLA BLA BLA BLA BLA BLA BLA BLA BLA BLA BLA BLA BLA BLA BLA BLA BLA BLA BLA 
BLA BLA BLA BLA BLA BLA BLA BLA BLA BLA BLA BLA BLA BLA BLA BLA BLA BLA BLA BLA 
BLA BLA BLA BLA BLA BLA BLA BLA BLA BLA BLA BLA BLA BLA BLA BLA BLA BLA BLA BLA 
BLA BLA BLA BLA BLA BLA BLA BLA BLA BLA BLA BLA BLA BLA BLA BLA BLA BLA BLA BLA 
BLA BLA BLA BLA BLA BLA BLA BLA BLA BLA BLA BLA BLA BLA BLA BLA BLA BLA BLA BLA 
BLA BLA BLA BLA BLA BLA BLA BLA BLA BLA BLA BLA BLA BLA BLA BLA BLA BLA BLA BLA 
BLA BLA BLA BLA BLA BLA BLA BLA BLA BLA BLA BLA BLA BLA BLA BLA BLA BLA BLA BLA 
BLA BLA BLA BLA BLA BLA BLA BLA BLA BLA BLA BLA BLA BLA BLA BLA BLA BLA BLA BLA 
BLA BLA BLA BLA BLA BLA BLA BLA BLA BLA BLA BLA BLA BLA BLA BLA BLA BLA BLA BLA 
BLA BLA BLA BLA BLA BLA BLA BLA BLA BLA BLA BLA BLA BLA BLA BLA BLA BLA BLA BLA 
BLA BLA BLA BLA BLA BLA BLA BLA BLA BLA BLA BLA BLA BLA BLA BLA BLA BLA BLA BLA 
BLA BLA BLA BLA BLA BLA BLA BLA BLA BLA BLA BLA BLA BLA BLA BLA BLA BLA BLA BLA 
BLA BLA BLA BLA BLA BLA BLA BLA BLA BLA BLA BLA BLA BLA BLA BLA BLA BLA BLA BLA 
BLA BLA BLA BLA BLA BLA BLA BLA BLA BLA BLA BLA BLA BLA BLA BLA BLA BLA BLA BLA 
BLA BLA BLA BLA BLA BLA BLA BLA BLA BLA BLA BLA BLA BLA BLA BLA BLA BLA BLA BLA 
BLA BLA BLA BLA BLA BLA BLA BLA BLA BLA BLA BLA BLA BLA BLA BLA BLA BLA BLA BLA 
BLA BLA BLA BLA BLA BLA BLA BLA BLA BLA BLA BLA BLA BLA BLA BLA BLA BLA BLA BLA 
BLA BLA BLA BLA BLA BLA BLA BLA BLA BLA BLA BLA BLA BLA BLA BLA BLA BLA BLA BLA 
BLA BLA BLA BLA BLA BLA BLA BLA BLA BLA BLA BLA BLA BLA BLA BLA BLA BLA BLA BLA 
BLA BLA BLA BLA BLA BLA BLA BLA BLA BLA BLA BLA BLA BLA BLA BLA BLA BLA BLA BLA 
BLA BLA BLA BLA BLA BLA BLA BLA BLA BLA BLA BLA BLA BLA BLA BLA BLA BLA BLA BLA 
BLA BLA BLA BLA BLA BLA BLA BLA BLA BLA BLA BLA BLA BLA BLA BLA BLA BLA BLA BLA 
BLA BLA BLA BLA BLA BLA BLA BLA BLA BLA BLA BLA BLA BLA BLA BLA BLA BLA BLA BLA 
BLA BLA BLA BLA BLA BLA BLA BLA BLA BLA BLA BLA BLA BLA BLA BLA BLA BLA BLA BLA 
BLA BLA BLA BLA BLA BLA BLA BLA BLA BLA BLA BLA BLA BLA BLA BLA BLA BLA BLA BLA 
BLA BLA BLA BLA BLA BLA BLA BLA BLA BLA BLA BLA BLA BLA BLA BLA BLA BLA BLA BLA 
BLA BLA BLA BLA BLA BLA BLA BLA BLA BLA BLA BLA BLA BLA BLA BLA BLA BLA BLA BLA 
BLA BLA BLA BLA BLA BLA BLA BLA BLA BLA BLA BLA BLA BLA BLA BLA BLA BLA BLA BLA 
BLA BLA BLA BLA BLA BLA BLA BLA BLA BLA BLA BLA BLA BLA BLA BLA BLA BLA BLA BLA 
BLA BLA BLA BLA BLA BLA BLA BLA BLA BLA BLA BLA BLA BLA BLA BLA BLA BLA BLA BLA 
BLA BLA BLA BLA BLA BLA BLA BLA BLA BLA BLA BLA BLA BLA BLA BLA BLA BLA BLA BLA 
BLA BLA BLA BLA BLA BLA BLA BLA BLA BLA BLA BLA BLA BLA BLA BLA BLA BLA BLA BLA 
BLA BLA BLA BLA BLA BLA BLA BLA BLA BLA BLA BLA BLA BLA BLA BLA BLA BLA BLA BLA 
BLA BLA BLA BLA BLA BLA BLA BLA BLA BLA BLA BLA BLA BLA BLA BLA BLA BLA BLA BLA 
BLA BLA BLA BLA BLA BLA BLA BLA BLA BLA BLA BLA BLA BLA BLA BLA BLA BLA BLA BLA 
BLA BLA BLA BLA BLA BLA BLA BLA BLA BLA BLA BLA BLA BLA BLA BLA BLA BLA BLA BLA 
BLA BLA BLA BLA BLA BLA BLA BLA BLA BLA BLA BLA BLA BLA BLA BLA BLA BLA BLA BLA 
BLA BLA BLA BLA BLA BLA BLA BLA BLA BLA BLA BLA BLA BLA BLA BLA BLA BLA BLA BLA 
BLA BLA BLA BLA BLA BLA BLA BLA BLA BLA BLA BLA BLA BLA BLA BLA BLA BLA BLA BLA 
BLA BLA BLA BLA BLA BLA BLA BLA BLA BLA BLA BLA BLA BLA BLA BLA BLA BLA BLA BLA 
BLA BLA BLA BLA BLA BLA BLA BLA BLA BLA BLA BLA BLA BLA BLA BLA BLA BLA BLA BLA 
BLA BLA BLA BLA BLA BLA BLA BLA BLA BLA BLA BLA BLA BLA BLA BLA BLA BLA BLA BLA 
BLA BLA BLA BLA BLA BLA BLA BLA BLA BLA BLA BLA BLA BLA BLA BLA BLA BLA BLA BLA 
BLA BLA BLA BLA BLA BLA BLA BLA BLA BLA BLA BLA BLA BLA BLA BLA BLA BLA BLA BLA 
BLA BLA BLA BLA BLA BLA BLA BLA BLA BLA BLA BLA BLA BLA BLA BLA BLA BLA BLA BLA 
BLA BLA BLA BLA BLA BLA BLA BLA BLA BLA BLA BLA BLA BLA BLA BLA BLA BLA BLA BLA 
BLA BLA BLA BLA BLA BLA BLA BLA BLA BLA BLA BLA BLA BLA BLA BLA BLA BLA BLA BLA 
BLA BLA BLA BLA BLA BLA BLA BLA BLA BLA BLA BLA BLA BLA BLA BLA BLA BLA BLA BLA 
BLA BLA BLA BLA BLA BLA BLA BLA BLA BLA BLA BLA BLA BLA BLA BLA BLA BLA BLA BLA 
BLA BLA BLA BLA BLA BLA BLA BLA BLA BLA BLA BLA BLA BLA BLA BLA BLA BLA BLA BLA 
BLA BLA BLA BLA BLA BLA BLA BLA BLA BLA BLA BLA BLA BLA BLA BLA BLA BLA BLA BLA 
BLA BLA BLA BLA BLA BLA BLA BLA BLA BLA BLA BLA BLA BLA BLA BLA BLA BLA BLA BLA 
BLA BLA BLA BLA BLA BLA BLA BLA BLA BLA BLA BLA BLA BLA BLA BLA BLA BLA BLA BLA 
BLA BLA BLA BLA BLA BLA BLA BLA BLA BLA BLA BLA BLA BLA BLA BLA BLA BLA BLA BLA 
BLA BLA BLA BLA BLA BLA BLA BLA BLA BLA BLA BLA BLA BLA BLA BLA BLA BLA BLA BLA 
BLA BLA BLA BLA BLA BLA BLA BLA BLA BLA BLA BLA BLA BLA BLA BLA BLA BLA BLA BLA 
BLA BLA BLA BLA BLA BLA BLA BLA BLA BLA BLA BLA BLA BLA BLA BLA BLA BLA BLA BLA 
BLA BLA BLA BLA BLA BLA BLA BLA BLA BLA BLA BLA BLA BLA BLA BLA BLA BLA BLA BLA 
BLA BLA BLA BLA BLA BLA BLA BLA BLA BLA BLA BLA BLA BLA BLA BLA BLA BLA BLA BLA 
BLA BLA BLA BLA BLA BLA BLA BLA BLA BLA BLA BLA BLA BLA BLA BLA BLA BLA BLA BLA 
BLA BLA BLA BLA BLA BLA BLA BLA BLA BLA BLA BLA BLA BLA BLA BLA BLA BLA BLA BLA 
BLA BLA BLA BLA BLA BLA BLA BLA BLA BLA BLA BLA BLA BLA BLA BLA BLA BLA BLA BLA 
BLA BLA BLA BLA BLA BLA BLA BLA BLA BLA BLA BLA BLA BLA BLA BLA BLA BLA BLA BLA 
BLA BLA BLA BLA BLA BLA BLA BLA BLA BLA BLA BLA BLA BLA BLA BLA BLA BLA BLA BLA 
BLA BLA BLA BLA BLA BLA BLA BLA BLA BLA BLA BLA BLA BLA BLA BLA BLA BLA BLA BLA 
BLA BLA BLA BLA BLA BLA BLA BLA BLA BLA BLA BLA BLA BLA BLA BLA BLA BLA BLA BLA 
BLA BLA BLA BLA BLA BLA BLA BLA BLA BLA BLA BLA BLA BLA BLA BLA BLA BLA BLA BLA 
BLA BLA BLA BLA BLA BLA BLA BLA BLA BLA BLA BLA BLA BLA BLA BLA BLA BLA BLA BLA 
BLA BLA BLA BLA BLA BLA BLA BLA BLA BLA BLA BLA BLA BLA BLA BLA BLA BLA BLA BLA 
BLA BLA BLA BLA BLA BLA BLA BLA BLA BLA BLA BLA BLA BLA BLA BLA BLA BLA BLA BLA 
BLA BLA BLA BLA BLA BLA BLA BLA BLA BLA BLA BLA BLA BLA BLA BLA BLA BLA BLA BLA 
BLA BLA BLA BLA BLA BLA BLA BLA BLA BLA BLA BLA BLA BLA BLA BLA BLA BLA BLA BLA 
BLA BLA BLA BLA BLA BLA BLA BLA BLA BLA BLA BLA BLA BLA BLA BLA BLA BLA BLA BLA 
BLA BLA BLA BLA BLA BLA BLA BLA BLA BLA BLA BLA BLA BLA BLA BLA BLA BLA BLA BLA 
BLA BLA BLA BLA BLA BLA BLA BLA BLA BLA BLA BLA BLA BLA BLA BLA BLA BLA BLA BLA 
BLA BLA BLA BLA BLA BLA BLA BLA BLA BLA BLA BLA BLA BLA BLA BLA BLA BLA BLA BLA 
BLA BLA BLA BLA BLA BLA BLA BLA BLA BLA BLA BLA BLA BLA BLA BLA BLA BLA BLA BLA 
BLA BLA BLA BLA BLA BLA BLA BLA BLA BLA BLA BLA BLA BLA BLA BLA BLA BLA BLA BLA 
BLA BLA BLA BLA BLA BLA BLA BLA BLA BLA BLA BLA BLA BLA BLA BLA BLA BLA BLA BLA 
BLA BLA BLA BLA BLA BLA BLA BLA BLA BLA BLA BLA BLA BLA BLA BLA BLA BLA BLA BLA 
BLA BLA BLA BLA BLA BLA BLA BLA BLA BLA BLA BLA BLA BLA BLA BLA BLA BLA BLA BLA 
BLA BLA BLA BLA BLA BLA BLA BLA BLA BLA BLA BLA BLA BLA BLA BLA BLA BLA BLA BLA 
BLA BLA BLA BLA BLA BLA BLA BLA BLA BLA BLA BLA BLA BLA BLA BLA BLA BLA BLA BLA 
BLA BLA BLA BLA BLA BLA BLA BLA BLA BLA BLA BLA BLA BLA BLA BLA BLA BLA BLA BLA 
BLA BLA BLA BLA BLA BLA BLA BLA BLA BLA BLA BLA BLA BLA BLA BLA BLA BLA BLA BLA 
BLA BLA BLA BLA BLA BLA BLA BLA BLA BLA BLA BLA BLA BLA BLA BLA BLA BLA BLA BLA 
BLA BLA BLA BLA BLA BLA BLA BLA BLA BLA BLA BLA BLA BLA BLA BLA BLA BLA BLA BLA 
BLA BLA BLA BLA BLA BLA BLA BLA BLA BLA BLA BLA BLA BLA BLA BLA BLA BLA BLA BLA 
BLA BLA BLA BLA BLA BLA BLA BLA BLA BLA BLA BLA BLA BLA BLA BLA BLA BLA BLA BLA 
BLA BLA BLA BLA BLA BLA BLA BLA BLA BLA BLA BLA BLA BLA BLA BLA BLA BLA BLA BLA 
BLA BLA BLA BLA BLA BLA BLA BLA BLA BLA BLA BLA BLA BLA BLA BLA BLA BLA BLA BLA 
BLA BLA BLA BLA BLA BLA BLA BLA BLA BLA BLA BLA BLA BLA BLA BLA BLA BLA BLA BLA 
BLA BLA BLA BLA BLA BLA BLA BLA BLA BLA BLA BLA BLA BLA BLA BLA BLA BLA BLA BLA 
BLA BLA BLA BLA BLA BLA BLA BLA BLA BLA BLA BLA BLA BLA BLA BLA BLA BLA BLA BLA 
BLA BLA BLA BLA BLA BLA BLA BLA BLA BLA BLA BLA BLA BLA BLA BLA BLA BLA BLA BLA 
BLA BLA BLA BLA BLA BLA BLA BLA BLA BLA BLA BLA BLA BLA BLA BLA BLA BLA BLA BLA 
BLA BLA BLA BLA BLA BLA BLA BLA BLA BLA BLA BLA BLA BLA BLA BLA BLA BLA BLA BLA 
BLA BLA BLA BLA BLA BLA BLA BLA BLA BLA BLA BLA BLA BLA BLA BLA BLA BLA BLA BLA 
BLA BLA BLA BLA BLA BLA BLA BLA BLA BLA BLA BLA BLA BLA BLA BLA BLA BLA BLA BLA 
BLA BLA BLA BLA BLA BLA BLA BLA BLA BLA BLA BLA BLA BLA BLA BLA BLA BLA BLA BLA 
BLA BLA BLA BLA BLA BLA BLA BLA BLA BLA BLA BLA BLA BLA BLA BLA BLA BLA BLA BLA 
BLA BLA BLA BLA BLA BLA BLA BLA BLA BLA BLA BLA BLA BLA BLA BLA BLA BLA BLA BLA 
BLA BLA BLA BLA BLA BLA BLA BLA BLA BLA BLA BLA BLA BLA BLA BLA BLA BLA BLA BLA 
BLA BLA BLA BLA BLA BLA BLA BLA BLA BLA BLA BLA BLA BLA BLA BLA BLA BLA BLA BLA 
BLA BLA BLA BLA BLA BLA BLA BLA BLA BLA BLA BLA BLA BLA BLA BLA BLA BLA BLA BLA 
BLA BLA BLA BLA BLA BLA BLA BLA BLA BLA BLA BLA BLA BLA BLA BLA BLA BLA BLA BLA 
BLA BLA BLA BLA BLA BLA BLA BLA BLA BLA BLA BLA BLA BLA BLA BLA BLA BLA BLA BLA 
BLA BLA BLA BLA BLA BLA BLA BLA BLA BLA BLA BLA BLA BLA BLA BLA BLA BLA BLA BLA 
BLA BLA BLA BLA BLA BLA BLA BLA BLA BLA BLA BLA BLA BLA BLA BLA BLA BLA BLA BLA 
BLA BLA BLA BLA BLA BLA BLA BLA BLA BLA BLA BLA BLA BLA BLA BLA BLA BLA BLA BLA 
BLA BLA BLA BLA BLA BLA BLA BLA BLA BLA BLA BLA BLA BLA BLA BLA BLA BLA BLA BLA 
BLA BLA BLA BLA BLA BLA BLA BLA BLA BLA BLA BLA BLA BLA BLA BLA BLA BLA BLA BLA 
BLA BLA BLA BLA BLA BLA BLA BLA BLA BLA BLA BLA BLA BLA BLA BLA BLA BLA BLA BLA 
BLA BLA BLA BLA BLA BLA BLA BLA BLA BLA BLA BLA BLA BLA BLA BLA BLA BLA BLA BLA 
BLA BLA BLA BLA BLA BLA BLA BLA BLA BLA BLA BLA BLA BLA BLA BLA BLA BLA BLA BLA 
BLA BLA BLA BLA BLA BLA BLA BLA BLA BLA BLA BLA BLA BLA BLA BLA BLA BLA BLA BLA 
BLA BLA BLA BLA BLA BLA BLA BLA BLA BLA BLA BLA BLA BLA BLA BLA BLA BLA BLA BLA 
BLA BLA BLA BLA BLA BLA BLA BLA BLA BLA BLA BLA BLA BLA BLA BLA BLA BLA BLA BLA 
BLA BLA BLA BLA BLA BLA BLA BLA BLA BLA BLA BLA BLA BLA BLA BLA BLA BLA BLA BLA 
BLA BLA BLA BLA BLA BLA BLA BLA BLA BLA BLA BLA BLA BLA BLA BLA BLA BLA BLA BLA 
BLA BLA BLA BLA BLA BLA BLA BLA BLA BLA BLA BLA BLA BLA BLA BLA BLA BLA BLA BLA 
BLA BLA BLA BLA BLA BLA BLA BLA BLA BLA BLA BLA BLA BLA BLA BLA BLA BLA BLA BLA 
BLA BLA BLA BLA BLA BLA BLA BLA BLA BLA BLA BLA BLA BLA BLA BLA BLA BLA BLA BLA 
BLA BLA BLA BLA BLA BLA BLA BLA BLA BLA BLA BLA BLA BLA BLA BLA BLA BLA BLA BLA 
BLA BLA BLA BLA BLA BLA BLA BLA BLA BLA BLA BLA BLA BLA BLA BLA BLA BLA BLA BLA 
BLA BLA BLA BLA BLA BLA BLA BLA BLA BLA BLA BLA BLA BLA BLA BLA BLA BLA BLA BLA 
BLA BLA BLA BLA BLA BLA BLA BLA BLA BLA BLA BLA BLA BLA BLA BLA BLA BLA BLA BLA 
BLA BLA BLA BLA BLA BLA BLA BLA BLA BLA BLA BLA BLA BLA BLA BLA BLA BLA BLA BLA 
BLA BLA BLA BLA BLA BLA BLA BLA BLA BLA BLA BLA BLA BLA BLA BLA BLA BLA BLA BLA 
BLA BLA BLA BLA BLA BLA BLA BLA BLA BLA BLA BLA BLA BLA BLA BLA BLA BLA BLA BLA 
BLA BLA BLA BLA BLA BLA BLA BLA BLA BLA BLA BLA BLA BLA BLA BLA BLA BLA BLA BLA 
BLA BLA BLA BLA BLA BLA BLA BLA BLA BLA BLA BLA BLA BLA BLA BLA BLA BLA BLA BLA 
BLA BLA BLA BLA BLA BLA BLA BLA BLA BLA BLA BLA BLA BLA BLA BLA BLA BLA BLA BLA 
BLA BLA BLA BLA BLA BLA BLA BLA BLA BLA BLA BLA BLA BLA BLA BLA BLA BLA BLA BLA 
BLA BLA BLA BLA BLA BLA BLA BLA BLA BLA BLA BLA BLA BLA BLA BLA BLA BLA BLA BLA 
BLA BLA BLA BLA BLA BLA BLA BLA BLA BLA BLA BLA BLA BLA BLA BLA BLA BLA BLA BLA 
BLA BLA BLA BLA BLA BLA BLA BLA BLA BLA BLA BLA BLA BLA BLA BLA BLA BLA BLA BLA 
BLA BLA BLA BLA BLA BLA BLA BLA BLA BLA BLA BLA BLA BLA BLA BLA BLA BLA BLA BLA 
BLA BLA BLA BLA BLA BLA BLA BLA BLA BLA BLA BLA BLA BLA BLA BLA BLA BLA BLA BLA 
BLA BLA BLA BLA BLA BLA BLA BLA BLA BLA BLA BLA BLA BLA BLA BLA BLA BLA BLA BLA 
BLA BLA BLA BLA BLA BLA BLA BLA BLA BLA BLA BLA BLA BLA BLA BLA BLA BLA BLA BLA 
BLA BLA BLA BLA BLA BLA BLA BLA BLA BLA BLA BLA BLA BLA BLA BLA BLA BLA BLA BLA 
BLA BLA BLA BLA BLA BLA BLA BLA BLA BLA BLA BLA BLA BLA BLA BLA BLA BLA BLA BLA 
BLA BLA BLA BLA BLA BLA BLA BLA BLA BLA BLA BLA BLA BLA BLA BLA BLA BLA BLA BLA 
BLA BLA BLA BLA BLA BLA BLA BLA BLA BLA BLA BLA BLA BLA BLA BLA BLA BLA BLA BLA 
BLA BLA BLA BLA BLA BLA BLA BLA BLA BLA BLA BLA BLA BLA BLA BLA BLA BLA BLA BLA 
BLA BLA BLA BLA BLA BLA BLA BLA BLA BLA BLA BLA BLA BLA BLA BLA BLA BLA BLA BLA 
BLA BLA BLA BLA BLA BLA BLA BLA BLA BLA BLA BLA BLA BLA BLA BLA BLA BLA BLA BLA 
BLA BLA BLA BLA BLA BLA BLA BLA BLA BLA BLA BLA BLA BLA BLA BLA BLA BLA BLA BLA 
BLA BLA BLA BLA BLA BLA BLA BLA BLA BLA BLA BLA BLA BLA BLA BLA BLA BLA BLA BLA 
BLA BLA BLA BLA BLA BLA BLA BLA BLA BLA BLA BLA BLA BLA BLA BLA BLA BLA BLA BLA 
BLA BLA BLA BLA BLA BLA BLA BLA BLA BLA BLA BLA BLA BLA BLA BLA BLA BLA BLA BLA 
BLA BLA BLA BLA BLA BLA BLA BLA BLA BLA BLA BLA BLA BLA BLA BLA BLA BLA BLA BLA 
BLA BLA BLA BLA BLA BLA BLA BLA BLA BLA BLA BLA BLA BLA BLA BLA BLA BLA BLA BLA 
BLA BLA BLA BLA BLA BLA BLA BLA BLA BLA BLA BLA BLA BLA BLA BLA BLA BLA BLA BLA 
BLA BLA BLA BLA BLA BLA BLA BLA BLA BLA BLA BLA BLA BLA BLA BLA BLA BLA BLA BLA 
BLA BLA BLA BLA BLA BLA BLA BLA BLA BLA BLA BLA BLA BLA BLA BLA BLA BLA BLA BLA 
BLA BLA BLA BLA BLA BLA BLA BLA BLA BLA BLA BLA BLA BLA BLA BLA BLA BLA BLA BLA 
BLA BLA BLA BLA BLA BLA BLA BLA BLA BLA BLA BLA BLA BLA BLA BLA BLA BLA BLA BLA 
BLA BLA BLA BLA BLA BLA BLA BLA BLA BLA BLA BLA BLA BLA BLA BLA BLA BLA BLA BLA 
BLA BLA BLA BLA BLA BLA BLA BLA BLA BLA BLA BLA BLA BLA BLA BLA BLA BLA BLA BLA 
BLA BLA BLA BLA BLA BLA BLA BLA BLA BLA BLA BLA BLA BLA BLA BLA BLA BLA BLA BLA 
BLA BLA BLA BLA BLA BLA BLA BLA BLA BLA BLA BLA BLA BLA BLA BLA BLA BLA BLA BLA 
BLA BLA BLA BLA BLA BLA BLA BLA BLA BLA BLA BLA BLA BLA BLA BLA BLA BLA BLA BLA 
BLA BLA BLA BLA BLA BLA BLA BLA BLA BLA BLA BLA BLA BLA BLA BLA BLA BLA BLA BLA 
BLA BLA BLA BLA BLA BLA BLA BLA BLA BLA BLA BLA BLA BLA BLA BLA BLA BLA BLA BLA 
BLA BLA BLA BLA BLA BLA BLA BLA BLA BLA BLA BLA BLA BLA BLA BLA BLA BLA BLA BLA 
BLA BLA BLA BLA BLA BLA BLA BLA BLA BLA BLA BLA BLA BLA BLA BLA BLA BLA BLA BLA 
BLA BLA BLA BLA BLA BLA BLA BLA BLA BLA BLA BLA BLA BLA BLA BLA BLA BLA BLA BLA 
BLA BLA BLA BLA BLA BLA BLA BLA BLA BLA BLA BLA BLA BLA BLA BLA BLA BLA BLA BLA 
BLA BLA BLA BLA BLA BLA BLA BLA BLA BLA BLA BLA BLA BLA BLA BLA BLA BLA BLA BLA 
BLA BLA BLA BLA BLA BLA BLA BLA BLA BLA BLA BLA BLA BLA BLA BLA BLA BLA BLA BLA 
BLA BLA BLA BLA BLA BLA BLA BLA BLA BLA BLA BLA BLA BLA BLA BLA BLA BLA BLA BLA 
BLA BLA BLA BLA BLA BLA BLA BLA BLA BLA BLA BLA BLA BLA BLA BLA BLA BLA BLA BLA 
BLA BLA BLA BLA BLA BLA BLA BLA BLA BLA BLA BLA BLA BLA BLA BLA BLA BLA BLA BLA 
BLA BLA BLA BLA BLA BLA BLA BLA BLA BLA BLA BLA BLA BLA BLA BLA BLA BLA BLA BLA 
BLA BLA BLA BLA BLA BLA BLA BLA BLA BLA BLA BLA BLA BLA BLA BLA BLA BLA BLA BLA 
BLA BLA BLA BLA BLA BLA BLA BLA BLA BLA BLA BLA BLA BLA BLA BLA BLA BLA BLA BLA 
BLA BLA BLA BLA BLA BLA BLA BLA BLA BLA BLA BLA BLA BLA BLA BLA BLA BLA BLA BLA 
BLA BLA BLA BLA BLA BLA BLA BLA BLA BLA BLA BLA BLA BLA BLA BLA BLA BLA BLA BLA 
BLA BLA BLA BLA BLA BLA BLA BLA BLA BLA BLA BLA BLA BLA BLA BLA BLA BLA BLA BLA 
BLA BLA BLA BLA BLA BLA BLA BLA BLA BLA BLA BLA BLA BLA BLA BLA BLA BLA BLA BLA 
BLA BLA BLA BLA BLA BLA BLA BLA BLA BLA BLA BLA BLA BLA BLA BLA BLA BLA BLA BLA 
BLA BLA BLA BLA BLA BLA BLA BLA BLA BLA BLA BLA BLA BLA BLA BLA BLA BLA BLA BLA 
BLA BLA BLA BLA BLA BLA BLA BLA BLA BLA BLA BLA BLA BLA BLA BLA BLA BLA BLA BLA 
BLA BLA BLA BLA BLA BLA BLA BLA BLA BLA BLA BLA BLA BLA BLA BLA BLA BLA BLA BLA 
BLA BLA BLA BLA BLA BLA BLA BLA BLA BLA BLA BLA BLA BLA BLA BLA BLA BLA BLA BLA 
BLA BLA BLA BLA BLA BLA BLA BLA BLA BLA BLA BLA BLA BLA BLA BLA BLA BLA BLA BLA 
BLA BLA BLA BLA BLA BLA BLA BLA BLA BLA BLA BLA BLA BLA BLA BLA BLA BLA BLA BLA 
BLA BLA BLA BLA BLA BLA BLA BLA BLA BLA BLA BLA BLA BLA BLA BLA BLA BLA BLA BLA 
BLA BLA BLA BLA BLA BLA BLA BLA BLA BLA BLA BLA BLA BLA BLA BLA BLA BLA BLA BLA 
BLA BLA BLA BLA BLA BLA BLA BLA BLA BLA BLA BLA BLA BLA BLA BLA BLA BLA BLA BLA 
BLA BLA BLA BLA BLA BLA BLA BLA BLA BLA BLA BLA BLA BLA BLA BLA BLA BLA BLA BLA 
BLA BLA BLA BLA BLA BLA BLA BLA BLA BLA BLA BLA BLA BLA BLA BLA BLA BLA BLA BLA 
BLA BLA BLA BLA BLA BLA BLA BLA BLA BLA BLA BLA BLA BLA BLA BLA BLA BLA BLA BLA 
BLA BLA BLA BLA BLA BLA BLA BLA BLA BLA BLA BLA BLA BLA BLA BLA BLA BLA BLA BLA 
BLA BLA BLA BLA BLA BLA BLA BLA BLA BLA BLA BLA BLA BLA BLA BLA BLA BLA BLA BLA 
BLA BLA BLA BLA BLA BLA BLA BLA BLA BLA BLA BLA BLA BLA BLA BLA BLA BLA BLA BLA 
BLA BLA BLA BLA BLA BLA BLA BLA BLA BLA BLA BLA BLA BLA BLA BLA BLA BLA BLA BLA 
BLA BLA BLA BLA BLA BLA BLA BLA BLA BLA BLA BLA BLA BLA BLA BLA BLA BLA BLA BLA 
BLA BLA BLA BLA BLA BLA BLA BLA BLA BLA BLA BLA BLA BLA BLA BLA BLA BLA BLA BLA 
BLA BLA BLA BLA BLA BLA BLA BLA BLA BLA BLA BLA BLA BLA BLA BLA BLA BLA BLA BLA 
BLA BLA BLA BLA BLA BLA BLA BLA BLA BLA BLA BLA BLA BLA BLA BLA BLA BLA BLA BLA 
BLA BLA BLA BLA BLA BLA BLA BLA BLA BLA BLA BLA BLA BLA BLA BLA BLA BLA BLA BLA 
BLA BLA BLA BLA BLA BLA BLA BLA BLA BLA BLA BLA BLA BLA BLA BLA BLA BLA BLA BLA 
BLA BLA BLA BLA BLA BLA BLA BLA BLA BLA BLA BLA BLA BLA BLA BLA BLA BLA BLA BLA 
BLA BLA BLA BLA BLA BLA BLA BLA BLA BLA BLA BLA BLA BLA BLA BLA BLA BLA BLA BLA 
BLA BLA BLA BLA BLA BLA BLA BLA BLA BLA BLA BLA BLA BLA BLA BLA BLA BLA BLA BLA 
BLA BLA BLA BLA BLA BLA BLA BLA BLA BLA BLA BLA BLA BLA BLA BLA BLA BLA BLA BLA 
BLA BLA BLA BLA BLA BLA BLA BLA BLA BLA BLA BLA BLA BLA BLA BLA BLA BLA BLA BLA 
BLA BLA BLA BLA BLA BLA BLA BLA BLA BLA BLA BLA BLA BLA BLA BLA BLA BLA BLA BLA 
BLA BLA BLA BLA BLA BLA BLA BLA BLA BLA BLA BLA BLA BLA BLA BLA BLA BLA BLA BLA 
BLA BLA BLA BLA BLA BLA BLA BLA BLA BLA BLA BLA BLA BLA BLA BLA BLA BLA BLA BLA 
BLA BLA BLA BLA BLA BLA BLA BLA BLA BLA BLA BLA BLA BLA BLA BLA BLA BLA BLA BLA 
BLA BLA BLA BLA BLA BLA BLA BLA BLA BLA BLA BLA BLA BLA BLA BLA BLA BLA BLA BLA 
BLA BLA BLA BLA BLA BLA BLA BLA BLA BLA BLA BLA BLA BLA BLA BLA BLA BLA BLA BLA 
BLA BLA BLA BLA BLA BLA BLA BLA BLA BLA BLA BLA BLA BLA BLA BLA BLA BLA BLA BLA 
BLA BLA BLA BLA BLA BLA BLA BLA BLA BLA BLA BLA BLA BLA BLA BLA BLA BLA BLA BLA 
BLA BLA BLA BLA BLA BLA BLA BLA BLA BLA BLA BLA BLA BLA BLA BLA BLA BLA BLA BLA 
BLA BLA BLA BLA BLA BLA BLA BLA BLA BLA BLA BLA BLA BLA BLA BLA BLA BLA BLA BLA 
BLA BLA BLA BLA BLA BLA BLA BLA BLA BLA BLA BLA BLA BLA BLA BLA BLA BLA BLA BLA 
BLA BLA BLA BLA BLA BLA BLA BLA BLA BLA BLA BLA BLA BLA BLA BLA BLA BLA BLA BLA 
BLA BLA BLA BLA BLA BLA BLA BLA BLA BLA BLA BLA BLA BLA BLA BLA BLA BLA BLA BLA 
BLA BLA BLA BLA BLA BLA BLA BLA BLA BLA BLA BLA BLA BLA BLA BLA BLA BLA BLA BLA 
BLA BLA BLA BLA BLA BLA BLA BLA BLA BLA BLA BLA BLA BLA BLA BLA BLA BLA BLA BLA 
BLA BLA BLA BLA BLA BLA BLA BLA BLA BLA BLA BLA BLA BLA BLA BLA BLA BLA BLA BLA 
BLA BLA BLA BLA BLA BLA BLA BLA BLA BLA BLA BLA BLA BLA BLA BLA BLA BLA BLA BLA 
BLA BLA BLA BLA BLA BLA BLA BLA BLA BLA BLA BLA BLA BLA BLA BLA BLA BLA BLA BLA 
BLA BLA BLA BLA BLA BLA BLA BLA BLA BLA BLA BLA BLA BLA BLA BLA BLA BLA BLA BLA 
BLA BLA BLA BLA BLA BLA BLA BLA BLA BLA BLA BLA BLA BLA BLA BLA BLA BLA BLA BLA 
BLA BLA BLA BLA BLA BLA BLA BLA BLA BLA BLA BLA BLA BLA BLA BLA BLA BLA BLA BLA 
BLA BLA BLA BLA BLA BLA BLA BLA BLA BLA BLA BLA BLA BLA BLA BLA BLA BLA BLA BLA 
BLA BLA BLA BLA BLA BLA BLA BLA BLA BLA BLA BLA BLA BLA BLA BLA BLA BLA BLA BLA 
BLA BLA BLA BLA BLA BLA BLA BLA BLA BLA BLA BLA BLA BLA BLA BLA BLA BLA BLA BLA 
BLA BLA BLA BLA BLA BLA BLA BLA BLA BLA BLA BLA BLA BLA BLA BLA BLA BLA BLA BLA 
BLA BLA BLA BLA BLA BLA BLA BLA BLA BLA BLA BLA BLA BLA BLA BLA BLA BLA BLA BLA 
BLA BLA BLA BLA BLA BLA BLA BLA BLA BLA BLA BLA BLA BLA BLA BLA BLA BLA BLA BLA 
BLA BLA BLA BLA BLA BLA BLA BLA BLA BLA BLA BLA BLA BLA BLA BLA BLA BLA BLA BLA 
BLA BLA BLA BLA BLA BLA BLA BLA BLA BLA BLA BLA BLA BLA BLA BLA BLA BLA BLA BLA 
BLA BLA BLA BLA BLA BLA BLA BLA BLA BLA BLA BLA BLA BLA BLA BLA BLA BLA BLA BLA 
BLA BLA BLA BLA BLA BLA BLA BLA BLA BLA BLA BLA BLA BLA BLA BLA BLA BLA BLA BLA 
BLA BLA BLA BLA BLA BLA BLA BLA BLA BLA BLA BLA BLA BLA BLA BLA BLA BLA BLA BLA 
BLA BLA BLA BLA BLA BLA BLA BLA BLA BLA BLA BLA BLA BLA BLA BLA BLA BLA BLA BLA 
BLA BLA BLA BLA BLA BLA BLA BLA BLA BLA BLA BLA BLA BLA BLA BLA BLA BLA BLA BLA 
BLA BLA BLA BLA BLA BLA BLA BLA BLA BLA BLA BLA BLA BLA BLA BLA BLA BLA BLA BLA 
BLA BLA BLA BLA BLA BLA BLA BLA BLA BLA BLA BLA BLA BLA BLA BLA BLA BLA BLA BLA 
BLA BLA BLA BLA BLA BLA BLA BLA BLA BLA BLA BLA BLA BLA BLA BLA BLA BLA BLA BLA 
BLA BLA BLA BLA BLA BLA BLA BLA BLA BLA BLA BLA BLA BLA BLA BLA BLA BLA BLA BLA 
BLA BLA BLA BLA BLA BLA BLA BLA BLA BLA BLA BLA BLA BLA BLA BLA BLA BLA BLA BLA 
BLA BLA BLA BLA BLA BLA BLA BLA BLA BLA BLA BLA BLA BLA BLA BLA BLA BLA BLA BLA 
BLA BLA BLA BLA BLA BLA BLA BLA BLA BLA BLA BLA BLA BLA BLA BLA BLA BLA BLA BLA 
BLA BLA BLA BLA BLA BLA BLA BLA BLA BLA BLA BLA BLA BLA BLA BLA BLA BLA BLA BLA 
BLA BLA BLA BLA BLA BLA BLA BLA BLA BLA BLA BLA BLA BLA BLA BLA BLA BLA BLA BLA 
BLA BLA BLA BLA BLA BLA BLA BLA BLA BLA BLA BLA BLA BLA BLA BLA BLA BLA BLA BLA 
BLA BLA BLA BLA BLA BLA BLA BLA BLA BLA BLA BLA BLA BLA BLA BLA BLA BLA BLA BLA 
BLA BLA BLA BLA BLA BLA BLA BLA BLA BLA BLA BLA BLA BLA BLA BLA BLA BLA BLA BLA 
BLA BLA BLA BLA BLA BLA BLA BLA BLA BLA BLA BLA BLA BLA BLA BLA BLA BLA BLA BLA 
BLA BLA BLA BLA BLA BLA BLA BLA BLA BLA BLA BLA BLA BLA BLA BLA BLA BLA BLA BLA 
BLA BLA BLA BLA BLA BLA BLA BLA BLA BLA BLA BLA BLA BLA BLA BLA BLA BLA BLA BLA 
BLA BLA BLA BLA BLA BLA BLA BLA BLA BLA BLA BLA BLA BLA BLA BLA BLA BLA BLA BLA 
BLA BLA BLA BLA BLA BLA BLA BLA BLA BLA BLA BLA BLA BLA BLA BLA BLA BLA BLA BLA 
BLA BLA BLA BLA BLA BLA BLA BLA BLA BLA BLA BLA BLA BLA BLA BLA BLA BLA BLA BLA 
BLA BLA BLA BLA BLA BLA BLA BLA BLA BLA BLA BLA BLA BLA BLA BLA BLA BLA BLA BLA 
BLA BLA BLA BLA BLA BLA BLA BLA BLA BLA BLA BLA BLA BLA BLA BLA BLA BLA BLA BLA 
BLA BLA BLA BLA BLA BLA BLA BLA BLA BLA BLA BLA BLA BLA BLA BLA BLA BLA BLA BLA 
BLA BLA BLA BLA BLA BLA BLA BLA BLA BLA BLA BLA BLA BLA BLA BLA BLA BLA BLA BLA 
BLA BLA BLA BLA BLA BLA BLA BLA BLA BLA BLA BLA BLA BLA BLA BLA BLA BLA BLA BLA 
BLA BLA BLA BLA BLA BLA BLA BLA BLA BLA BLA BLA BLA BLA BLA BLA BLA BLA BLA BLA 
BLA BLA BLA BLA BLA BLA BLA BLA BLA BLA BLA BLA BLA BLA BLA BLA BLA BLA BLA BLA 
BLA BLA BLA BLA BLA BLA BLA BLA BLA BLA BLA BLA BLA BLA BLA BLA BLA BLA BLA BLA 
BLA BLA BLA BLA BLA BLA BLA BLA BLA BLA BLA BLA BLA BLA BLA BLA BLA BLA BLA BLA 
BLA BLA BLA BLA BLA BLA BLA BLA BLA BLA BLA BLA BLA BLA BLA BLA BLA BLA BLA BLA 
BLA BLA BLA BLA BLA BLA BLA BLA BLA BLA BLA BLA BLA BLA BLA BLA BLA BLA BLA BLA 
BLA BLA BLA BLA BLA BLA BLA BLA BLA BLA BLA BLA BLA BLA BLA BLA BLA BLA BLA BLA 
BLA BLA BLA BLA BLA BLA BLA BLA BLA BLA BLA BLA BLA BLA BLA BLA BLA BLA BLA BLA 
BLA BLA BLA BLA BLA BLA BLA BLA BLA BLA BLA BLA BLA BLA BLA BLA BLA BLA BLA BLA 
BLA BLA BLA BLA BLA BLA BLA BLA BLA BLA BLA BLA BLA BLA BLA BLA BLA BLA BLA BLA 
BLA BLA BLA BLA BLA BLA BLA BLA BLA BLA BLA BLA BLA BLA BLA BLA BLA BLA BLA BLA 
BLA BLA BLA BLA BLA BLA BLA BLA BLA BLA BLA BLA BLA BLA BLA BLA BLA BLA BLA BLA 
BLA BLA BLA BLA BLA BLA BLA BLA BLA BLA BLA BLA BLA BLA BLA BLA BLA BLA BLA BLA 
BLA BLA BLA BLA BLA BLA BLA BLA BLA BLA BLA BLA BLA BLA BLA BLA BLA BLA BLA BLA 
BLA BLA BLA BLA BLA BLA BLA BLA BLA BLA BLA BLA BLA BLA BLA BLA BLA BLA BLA BLA 
BLA BLA BLA BLA BLA BLA BLA BLA BLA BLA BLA BLA BLA BLA BLA BLA BLA BLA BLA BLA 
BLA BLA BLA BLA BLA BLA BLA BLA BLA BLA BLA BLA BLA BLA BLA BLA BLA BLA BLA BLA 
BLA BLA BLA BLA BLA BLA BLA BLA BLA BLA BLA BLA BLA BLA BLA BLA BLA BLA BLA BLA 
BLA BLA BLA BLA BLA BLA BLA BLA BLA BLA BLA BLA BLA BLA BLA BLA BLA BLA BLA BLA 
BLA BLA BLA BLA BLA BLA BLA BLA BLA BLA BLA BLA BLA BLA BLA BLA BLA BLA BLA BLA 
BLA BLA BLA BLA BLA BLA BLA BLA BLA BLA BLA BLA BLA BLA BLA BLA BLA BLA BLA BLA 
BLA BLA BLA BLA BLA BLA BLA BLA BLA BLA BLA BLA BLA BLA BLA BLA BLA BLA BLA BLA 
BLA BLA BLA BLA BLA BLA BLA BLA BLA BLA BLA BLA BLA BLA BLA BLA BLA BLA BLA BLA 
BLA BLA BLA BLA BLA BLA BLA BLA BLA BLA BLA BLA BLA BLA BLA BLA BLA BLA BLA BLA 
BLA BLA BLA BLA BLA BLA BLA BLA BLA BLA BLA BLA BLA BLA BLA BLA BLA BLA BLA BLA 
BLA BLA BLA BLA BLA BLA BLA BLA BLA BLA BLA BLA BLA BLA BLA BLA BLA BLA BLA BLA 
BLA BLA BLA BLA BLA BLA BLA BLA BLA BLA BLA BLA BLA BLA BLA BLA BLA BLA BLA BLA 
BLA BLA BLA BLA BLA BLA BLA BLA BLA BLA BLA BLA BLA BLA BLA BLA BLA BLA BLA BLA 
BLA BLA BLA BLA BLA BLA BLA BLA BLA BLA BLA BLA BLA BLA BLA BLA BLA BLA BLA BLA 
BLA BLA BLA BLA BLA BLA BLA BLA BLA BLA BLA BLA BLA BLA BLA BLA BLA BLA BLA BLA 
BLA BLA BLA BLA BLA BLA BLA BLA BLA BLA BLA BLA BLA BLA BLA BLA BLA BLA BLA BLA 
BLA BLA BLA BLA BLA BLA BLA BLA BLA BLA BLA BLA BLA BLA BLA BLA BLA BLA BLA BLA 
BLA BLA BLA BLA BLA BLA BLA BLA BLA BLA BLA BLA BLA BLA BLA BLA BLA BLA BLA BLA 
BLA BLA BLA BLA BLA BLA BLA BLA BLA BLA BLA BLA BLA BLA BLA BLA BLA BLA BLA BLA 
BLA BLA BLA BLA BLA BLA BLA BLA BLA BLA BLA BLA BLA BLA BLA BLA BLA BLA BLA BLA 
BLA BLA BLA BLA BLA BLA BLA BLA BLA BLA BLA BLA BLA BLA BLA BLA BLA BLA BLA BLA 
BLA BLA BLA BLA BLA BLA BLA BLA BLA BLA BLA BLA BLA BLA BLA BLA BLA BLA BLA BLA 
BLA BLA BLA BLA BLA BLA BLA BLA BLA BLA BLA BLA BLA BLA BLA BLA BLA BLA BLA BLA 
BLA BLA BLA BLA BLA BLA BLA BLA BLA BLA BLA BLA BLA BLA BLA BLA BLA BLA BLA BLA 
BLA BLA BLA BLA BLA BLA BLA BLA BLA BLA BLA BLA BLA BLA BLA BLA BLA BLA BLA BLA 
BLA BLA BLA BLA BLA BLA BLA BLA BLA BLA BLA BLA BLA BLA BLA BLA BLA BLA BLA BLA 
BLA BLA BLA BLA BLA BLA BLA BLA BLA BLA BLA BLA BLA BLA BLA BLA BLA BLA BLA BLA 
BLA BLA BLA BLA BLA BLA BLA BLA BLA BLA BLA BLA BLA BLA BLA BLA BLA BLA BLA BLA 
BLA BLA BLA BLA BLA BLA BLA BLA BLA BLA BLA BLA BLA BLA BLA BLA BLA BLA BLA BLA 
BLA BLA BLA BLA BLA BLA BLA BLA BLA BLA BLA BLA BLA BLA BLA BLA BLA BLA BLA BLA 
BLA BLA BLA BLA BLA BLA BLA BLA BLA BLA BLA BLA BLA BLA BLA BLA BLA BLA BLA BLA 
BLA BLA BLA BLA BLA BLA BLA BLA BLA BLA BLA BLA BLA BLA BLA BLA BLA BLA BLA BLA 
BLA BLA BLA BLA BLA BLA BLA BLA BLA BLA BLA BLA BLA BLA BLA BLA BLA BLA BLA BLA 
BLA BLA BLA BLA BLA BLA BLA BLA BLA BLA BLA BLA BLA BLA BLA BLA BLA BLA BLA BLA 
BLA BLA BLA BLA BLA BLA BLA BLA BLA BLA BLA BLA BLA BLA BLA BLA BLA BLA BLA BLA 
BLA BLA BLA BLA BLA BLA BLA BLA BLA BLA BLA BLA BLA BLA BLA BLA BLA BLA BLA BLA 
BLA BLA BLA BLA BLA BLA BLA BLA BLA BLA BLA BLA BLA BLA BLA BLA BLA BLA BLA BLA 
BLA BLA BLA BLA BLA BLA BLA BLA BLA BLA BLA BLA BLA BLA BLA BLA BLA BLA BLA BLA 
BLA BLA BLA BLA BLA BLA BLA BLA BLA BLA BLA BLA BLA BLA BLA BLA BLA BLA BLA BLA 
BLA BLA BLA BLA BLA BLA BLA BLA BLA BLA BLA BLA BLA BLA BLA BLA BLA BLA BLA BLA 
BLA BLA BLA BLA BLA BLA BLA BLA BLA BLA BLA BLA BLA BLA BLA BLA BLA BLA BLA BLA 
BLA BLA BLA BLA BLA BLA BLA BLA BLA BLA BLA BLA BLA BLA BLA BLA BLA BLA BLA BLA 
BLA BLA BLA BLA BLA BLA BLA BLA BLA BLA BLA BLA BLA BLA BLA BLA BLA BLA BLA BLA 
BLA BLA BLA BLA BLA BLA BLA BLA BLA BLA BLA BLA BLA BLA BLA BLA BLA BLA BLA BLA 
BLA BLA BLA BLA BLA BLA BLA BLA BLA BLA BLA BLA BLA BLA BLA BLA BLA BLA BLA BLA 
BLA BLA BLA BLA BLA BLA BLA BLA BLA BLA BLA BLA BLA BLA BLA BLA BLA BLA BLA BLA 
BLA BLA BLA BLA BLA BLA BLA BLA BLA BLA BLA BLA BLA BLA BLA BLA BLA BLA BLA BLA 
BLA BLA BLA BLA BLA BLA BLA BLA BLA BLA BLA BLA BLA BLA BLA BLA BLA BLA BLA BLA 
BLA BLA BLA BLA BLA BLA BLA BLA BLA BLA BLA BLA BLA BLA BLA BLA BLA BLA BLA BLA 
BLA BLA BLA BLA BLA BLA BLA BLA BLA BLA BLA BLA BLA BLA BLA BLA BLA BLA BLA BLA 
BLA BLA BLA BLA BLA BLA BLA BLA BLA BLA BLA BLA BLA BLA BLA BLA BLA BLA BLA BLA 
BLA BLA BLA BLA BLA BLA BLA BLA BLA BLA BLA BLA BLA BLA BLA BLA BLA BLA BLA BLA 
BLA BLA BLA BLA BLA BLA BLA BLA BLA BLA BLA BLA BLA BLA BLA BLA BLA BLA BLA BLA 
BLA BLA BLA BLA BLA BLA BLA BLA BLA BLA BLA BLA BLA BLA BLA BLA BLA BLA BLA BLA 
BLA BLA BLA BLA BLA BLA BLA BLA BLA BLA BLA BLA BLA BLA BLA BLA BLA BLA BLA BLA 
BLA BLA BLA BLA BLA BLA BLA BLA BLA BLA BLA BLA BLA BLA BLA BLA BLA BLA BLA BLA 
BLA BLA BLA BLA BLA BLA BLA BLA BLA BLA BLA BLA BLA BLA BLA BLA BLA BLA BLA BLA 
BLA BLA BLA BLA BLA BLA BLA BLA BLA BLA BLA BLA BLA BLA BLA BLA BLA BLA BLA BLA 
BLA BLA BLA BLA BLA BLA BLA BLA BLA BLA BLA BLA BLA BLA BLA BLA BLA BLA BLA BLA 
BLA BLA BLA BLA BLA BLA BLA BLA BLA BLA BLA BLA BLA BLA BLA BLA BLA BLA BLA BLA 
BLA BLA BLA BLA BLA BLA BLA BLA BLA BLA BLA BLA BLA BLA BLA BLA BLA BLA BLA BLA 
BLA BLA BLA BLA BLA BLA BLA BLA BLA BLA BLA BLA BLA BLA BLA BLA BLA BLA BLA BLA 
BLA BLA BLA BLA BLA BLA BLA BLA BLA BLA BLA BLA BLA BLA BLA BLA BLA BLA BLA BLA 
BLA BLA BLA BLA BLA BLA BLA BLA BLA BLA BLA BLA BLA BLA BLA BLA BLA BLA BLA BLA 
BLA BLA BLA BLA BLA BLA BLA BLA BLA BLA BLA BLA BLA BLA BLA BLA BLA BLA BLA BLA 
BLA BLA BLA BLA BLA BLA BLA BLA BLA BLA BLA BLA BLA BLA BLA BLA BLA BLA BLA BLA 
BLA BLA BLA BLA BLA BLA BLA BLA BLA BLA BLA BLA BLA BLA BLA BLA BLA BLA BLA BLA 
BLA BLA BLA BLA BLA BLA BLA BLA BLA BLA BLA BLA BLA BLA BLA BLA BLA BLA BLA BLA 
BLA BLA BLA BLA BLA BLA BLA BLA BLA BLA BLA BLA BLA BLA BLA BLA BLA BLA BLA BLA 
BLA BLA BLA BLA BLA BLA BLA BLA BLA BLA BLA BLA BLA BLA BLA BLA BLA BLA BLA BLA 
BLA BLA BLA BLA BLA BLA BLA BLA BLA BLA BLA BLA BLA BLA BLA BLA BLA BLA BLA BLA 
BLA BLA BLA BLA BLA BLA BLA BLA BLA BLA BLA BLA BLA BLA BLA BLA BLA BLA BLA BLA 
BLA BLA BLA BLA BLA BLA BLA BLA BLA BLA BLA BLA BLA BLA BLA BLA BLA BLA BLA BLA 
BLA BLA BLA BLA BLA BLA BLA BLA BLA BLA BLA BLA BLA BLA BLA BLA BLA BLA BLA BLA 
BLA BLA BLA BLA BLA BLA BLA BLA BLA BLA BLA BLA BLA BLA BLA BLA BLA BLA BLA BLA 
BLA BLA BLA BLA BLA BLA BLA BLA BLA BLA BLA BLA BLA BLA BLA BLA BLA BLA BLA BLA 
BLA BLA BLA BLA BLA BLA BLA BLA BLA BLA BLA BLA BLA BLA BLA BLA BLA BLA BLA BLA 
BLA BLA BLA BLA BLA BLA BLA BLA BLA BLA BLA BLA BLA BLA BLA BLA BLA BLA BLA BLA 
BLA BLA BLA BLA BLA BLA BLA BLA BLA BLA BLA BLA BLA BLA BLA BLA BLA BLA BLA BLA 
BLA BLA BLA BLA BLA BLA BLA BLA BLA BLA BLA BLA BLA BLA BLA BLA BLA BLA BLA BLA 
BLA BLA BLA BLA BLA BLA BLA BLA BLA BLA BLA BLA BLA BLA BLA BLA BLA BLA BLA BLA 
BLA BLA BLA BLA BLA BLA BLA BLA BLA BLA BLA BLA BLA BLA BLA BLA BLA BLA BLA BLA 
BLA BLA BLA BLA BLA BLA BLA BLA BLA BLA BLA BLA BLA BLA BLA BLA BLA BLA BLA BLA 
BLA BLA BLA BLA BLA BLA BLA BLA BLA BLA BLA BLA BLA BLA BLA BLA BLA BLA BLA BLA 
BLA BLA BLA BLA BLA BLA BLA BLA BLA BLA BLA BLA BLA BLA BLA BLA BLA BLA BLA BLA 
BLA BLA BLA BLA BLA BLA BLA BLA BLA BLA BLA BLA BLA BLA BLA BLA BLA BLA BLA BLA 
BLA BLA BLA BLA BLA BLA BLA BLA BLA BLA BLA BLA BLA BLA BLA BLA BLA BLA BLA BLA 
BLA BLA BLA BLA BLA BLA BLA BLA BLA BLA BLA BLA BLA BLA BLA BLA BLA BLA BLA BLA 
BLA BLA BLA BLA BLA BLA BLA BLA BLA BLA BLA BLA BLA BLA BLA BLA BLA BLA BLA BLA 
BLA BLA BLA BLA BLA BLA BLA BLA BLA BLA BLA BLA BLA BLA BLA BLA BLA BLA BLA BLA 
BLA BLA BLA BLA BLA BLA BLA BLA BLA BLA BLA BLA BLA BLA BLA BLA BLA BLA BLA BLA 
BLA BLA BLA BLA BLA BLA BLA BLA BLA BLA BLA BLA BLA BLA BLA BLA BLA BLA BLA BLA 
BLA BLA BLA BLA BLA BLA BLA BLA BLA BLA BLA BLA BLA BLA BLA BLA BLA BLA BLA BLA 
BLA BLA BLA BLA BLA BLA BLA BLA BLA BLA BLA BLA BLA BLA BLA BLA BLA BLA BLA BLA 
BLA BLA BLA BLA BLA BLA BLA BLA BLA BLA BLA BLA BLA BLA BLA BLA BLA BLA BLA BLA 
BLA BLA BLA BLA BLA BLA BLA BLA BLA BLA BLA BLA BLA BLA BLA BLA BLA BLA BLA BLA 
BLA BLA BLA BLA BLA BLA BLA BLA BLA BLA BLA BLA BLA BLA BLA BLA BLA BLA BLA BLA 
BLA BLA BLA BLA BLA BLA BLA BLA BLA BLA BLA BLA BLA BLA BLA BLA BLA BLA BLA BLA 
BLA BLA BLA BLA BLA BLA BLA BLA BLA BLA BLA BLA BLA BLA BLA BLA BLA BLA BLA BLA 
BLA BLA BLA BLA BLA BLA BLA BLA BLA BLA BLA BLA BLA BLA BLA BLA BLA BLA BLA BLA 
BLA BLA BLA BLA BLA BLA BLA BLA BLA BLA BLA BLA BLA BLA BLA BLA BLA BLA BLA BLA 
BLA BLA BLA BLA BLA BLA BLA BLA BLA BLA BLA BLA BLA BLA BLA BLA BLA BLA BLA BLA 
BLA BLA BLA BLA BLA BLA BLA BLA BLA BLA BLA BLA BLA BLA BLA BLA BLA BLA BLA BLA 
BLA BLA BLA BLA BLA BLA BLA BLA BLA BLA BLA BLA BLA BLA BLA BLA BLA BLA BLA BLA 
BLA BLA BLA BLA BLA BLA BLA BLA BLA BLA BLA BLA BLA BLA BLA BLA BLA BLA BLA BLA 
BLA BLA BLA BLA BLA BLA BLA BLA BLA BLA BLA BLA BLA BLA BLA BLA BLA BLA BLA BLA 
BLA BLA BLA BLA BLA BLA BLA BLA BLA BLA BLA BLA BLA BLA BLA BLA BLA BLA BLA BLA 
BLA BLA BLA BLA BLA BLA BLA BLA BLA BLA BLA BLA BLA BLA BLA BLA BLA BLA BLA BLA 
BLA BLA BLA BLA BLA BLA BLA BLA BLA BLA BLA BLA BLA BLA BLA BLA BLA BLA BLA BLA 
BLA BLA BLA BLA BLA BLA BLA BLA BLA BLA BLA BLA BLA BLA BLA BLA BLA BLA BLA BLA 
BLA BLA BLA BLA BLA BLA BLA BLA BLA BLA BLA BLA BLA BLA BLA BLA BLA BLA BLA BLA 
BLA BLA BLA BLA BLA BLA BLA BLA BLA BLA BLA BLA BLA BLA BLA BLA BLA BLA BLA BLA 
BLA BLA BLA BLA BLA BLA BLA BLA BLA BLA BLA BLA BLA BLA BLA BLA BLA BLA BLA BLA 
BLA BLA BLA BLA BLA BLA BLA BLA BLA BLA BLA BLA BLA BLA BLA BLA BLA BLA BLA BLA 
BLA BLA BLA BLA BLA BLA BLA BLA BLA BLA BLA BLA BLA BLA BLA BLA BLA BLA BLA BLA 
BLA BLA BLA BLA BLA BLA BLA BLA BLA BLA BLA BLA BLA BLA BLA BLA BLA BLA BLA BLA 
BLA BLA BLA BLA BLA BLA BLA BLA BLA BLA BLA BLA BLA BLA BLA BLA BLA BLA BLA BLA 
BLA BLA BLA BLA BLA BLA BLA BLA BLA BLA BLA BLA BLA BLA BLA BLA BLA BLA BLA BLA 
BLA BLA BLA BLA BLA BLA BLA BLA BLA BLA BLA BLA BLA BLA BLA BLA BLA BLA BLA BLA 
BLA BLA BLA BLA BLA BLA BLA BLA BLA BLA BLA BLA BLA BLA BLA BLA BLA BLA BLA BLA 
BLA BLA BLA BLA BLA BLA BLA BLA BLA BLA BLA BLA BLA BLA BLA BLA BLA BLA BLA BLA 
BLA BLA BLA BLA BLA BLA BLA BLA BLA BLA BLA BLA BLA BLA BLA BLA BLA BLA BLA BLA 
BLA BLA BLA BLA BLA BLA BLA BLA BLA BLA BLA BLA BLA BLA BLA BLA BLA BLA BLA BLA 
BLA BLA BLA BLA BLA BLA BLA BLA BLA BLA BLA BLA BLA BLA BLA BLA BLA BLA BLA BLA 
BLA BLA BLA BLA BLA BLA BLA BLA BLA BLA BLA BLA BLA BLA BLA BLA BLA BLA BLA BLA 
BLA BLA BLA BLA BLA BLA BLA BLA BLA BLA BLA BLA BLA BLA BLA BLA BLA BLA BLA BLA 
BLA BLA BLA BLA BLA BLA BLA BLA BLA BLA BLA BLA BLA BLA BLA BLA BLA BLA BLA BLA 
BLA BLA BLA BLA BLA BLA BLA BLA BLA BLA BLA BLA BLA BLA BLA BLA BLA BLA BLA BLA 
BLA BLA BLA BLA BLA BLA BLA BLA BLA BLA BLA BLA BLA BLA BLA BLA BLA BLA BLA BLA 
BLA BLA BLA BLA BLA BLA BLA BLA BLA BLA BLA BLA BLA BLA BLA BLA BLA BLA BLA BLA 
BLA BLA BLA BLA BLA BLA BLA BLA BLA BLA BLA BLA BLA BLA BLA BLA BLA BLA BLA BLA 
BLA BLA BLA BLA BLA BLA BLA BLA BLA BLA BLA BLA BLA BLA BLA BLA BLA BLA BLA BLA 
BLA BLA BLA BLA BLA BLA BLA BLA BLA BLA BLA BLA BLA BLA BLA BLA BLA BLA BLA BLA 
BLA BLA BLA BLA BLA BLA BLA BLA BLA BLA BLA BLA BLA BLA BLA BLA BLA BLA BLA BLA 
BLA BLA BLA BLA BLA BLA BLA BLA BLA BLA BLA BLA BLA BLA BLA BLA BLA BLA BLA BLA 
BLA BLA BLA BLA BLA BLA BLA BLA BLA BLA BLA BLA BLA BLA BLA BLA BLA BLA BLA BLA 
BLA BLA BLA BLA BLA BLA BLA BLA BLA BLA BLA BLA BLA BLA BLA BLA BLA BLA BLA BLA 
BLA BLA BLA BLA BLA BLA BLA BLA BLA BLA BLA BLA BLA BLA BLA BLA BLA BLA BLA BLA 
BLA BLA BLA BLA BLA BLA BLA BLA BLA BLA BLA BLA BLA BLA BLA BLA BLA BLA BLA BLA 
BLA BLA BLA BLA BLA BLA BLA BLA BLA BLA BLA BLA BLA BLA BLA BLA BLA BLA BLA BLA 
BLA BLA BLA BLA BLA BLA BLA BLA BLA BLA BLA BLA BLA BLA BLA BLA BLA BLA BLA BLA 
BLA BLA BLA BLA BLA BLA BLA BLA BLA BLA BLA BLA BLA BLA BLA BLA BLA BLA BLA BLA 
BLA BLA BLA BLA BLA BLA BLA BLA BLA BLA BLA BLA BLA BLA BLA BLA BLA BLA BLA BLA 
BLA BLA BLA BLA BLA BLA BLA BLA BLA BLA BLA BLA BLA BLA BLA BLA BLA BLA BLA BLA 
BLA BLA BLA BLA BLA BLA BLA BLA BLA BLA BLA BLA BLA BLA BLA BLA BLA BLA BLA BLA 
BLA BLA BLA BLA BLA BLA BLA BLA BLA BLA BLA BLA BLA BLA BLA BLA BLA BLA BLA BLA 
BLA BLA BLA BLA BLA BLA BLA BLA BLA BLA BLA BLA BLA BLA BLA BLA BLA BLA BLA BLA 
BLA BLA BLA BLA BLA BLA BLA BLA BLA BLA BLA BLA BLA BLA BLA BLA BLA BLA BLA BLA 
BLA BLA BLA BLA BLA BLA BLA BLA BLA BLA BLA BLA BLA BLA BLA BLA BLA BLA BLA BLA 
BLA BLA BLA BLA BLA BLA BLA BLA BLA BLA BLA BLA BLA BLA BLA BLA BLA BLA BLA BLA 
BLA BLA BLA BLA BLA BLA BLA BLA BLA BLA BLA BLA BLA BLA BLA BLA BLA BLA BLA BLA 
BLA BLA BLA BLA BLA BLA BLA BLA BLA BLA BLA BLA BLA BLA BLA BLA BLA BLA BLA BLA 
BLA BLA BLA BLA BLA BLA BLA BLA BLA BLA BLA BLA BLA BLA BLA BLA BLA BLA BLA BLA 
BLA BLA BLA BLA BLA BLA BLA BLA BLA BLA BLA BLA BLA BLA BLA BLA BLA BLA BLA BLA 
BLA BLA BLA BLA BLA BLA BLA BLA BLA BLA BLA BLA BLA BLA BLA BLA BLA BLA BLA BLA 
BLA BLA BLA BLA BLA BLA BLA BLA BLA BLA BLA BLA BLA BLA BLA BLA BLA BLA BLA BLA 
BLA BLA BLA BLA BLA BLA BLA BLA BLA BLA BLA BLA BLA BLA BLA BLA BLA BLA BLA BLA 
BLA BLA BLA BLA BLA BLA BLA BLA BLA BLA BLA BLA BLA BLA BLA BLA BLA BLA BLA BLA 
BLA BLA BLA BLA BLA BLA BLA BLA BLA BLA BLA BLA BLA BLA BLA BLA BLA BLA BLA BLA 
BLA BLA BLA BLA BLA BLA BLA BLA BLA BLA BLA BLA BLA BLA BLA BLA BLA BLA BLA BLA 
BLA BLA BLA BLA BLA BLA BLA BLA BLA BLA BLA BLA BLA BLA BLA BLA BLA BLA BLA BLA 
BLA BLA BLA BLA BLA BLA BLA BLA BLA BLA BLA BLA BLA BLA BLA BLA BLA BLA BLA BLA 
BLA BLA BLA BLA BLA BLA BLA BLA BLA BLA BLA BLA BLA BLA BLA BLA BLA BLA BLA BLA 
BLA BLA BLA BLA BLA BLA BLA BLA BLA BLA BLA BLA BLA BLA BLA BLA BLA BLA BLA BLA 
BLA BLA BLA BLA BLA BLA BLA BLA BLA BLA BLA BLA BLA BLA BLA BLA BLA BLA BLA BLA 
BLA BLA BLA BLA BLA BLA BLA BLA BLA BLA BLA BLA BLA BLA BLA BLA BLA BLA BLA BLA 
BLA BLA BLA BLA BLA BLA BLA BLA BLA BLA BLA BLA BLA BLA BLA BLA BLA BLA BLA BLA 
BLA BLA BLA BLA BLA BLA BLA BLA BLA BLA BLA BLA BLA BLA BLA BLA BLA BLA BLA BLA 
BLA BLA BLA BLA BLA BLA BLA BLA BLA BLA BLA BLA BLA BLA BLA BLA BLA BLA BLA BLA 
BLA BLA BLA BLA BLA BLA BLA BLA BLA BLA BLA BLA BLA BLA BLA BLA BLA BLA BLA BLA 
BLA BLA BLA BLA BLA BLA BLA BLA BLA BLA BLA BLA BLA BLA BLA BLA BLA BLA BLA BLA 
BLA BLA BLA BLA BLA BLA BLA BLA BLA BLA BLA BLA BLA BLA BLA BLA BLA BLA BLA BLA 
BLA BLA BLA BLA BLA BLA BLA BLA BLA BLA BLA BLA BLA BLA BLA BLA BLA BLA BLA BLA 
BLA BLA BLA BLA BLA BLA BLA BLA BLA BLA BLA BLA BLA BLA BLA BLA BLA BLA BLA BLA 
BLA BLA BLA BLA BLA BLA BLA BLA BLA BLA BLA BLA BLA BLA BLA BLA BLA BLA BLA BLA 
BLA BLA BLA BLA BLA BLA BLA BLA BLA BLA BLA BLA BLA BLA BLA BLA BLA BLA BLA BLA 
BLA BLA BLA BLA BLA BLA BLA BLA BLA BLA BLA BLA BLA BLA BLA BLA BLA BLA BLA BLA 
BLA BLA BLA BLA BLA BLA BLA BLA BLA BLA BLA BLA BLA BLA BLA BLA BLA BLA BLA BLA 
BLA BLA BLA BLA BLA BLA BLA BLA BLA BLA BLA BLA BLA BLA BLA BLA BLA BLA BLA BLA 
BLA BLA BLA BLA BLA BLA BLA BLA BLA BLA BLA BLA BLA BLA BLA BLA BLA BLA BLA BLA 
BLA BLA BLA BLA BLA BLA BLA BLA BLA BLA BLA BLA BLA BLA BLA BLA BLA BLA BLA BLA 
BLA BLA BLA BLA BLA BLA BLA BLA BLA BLA BLA BLA BLA BLA BLA BLA BLA BLA BLA BLA 
BLA BLA BLA BLA BLA BLA BLA BLA BLA BLA BLA BLA BLA BLA BLA BLA BLA BLA BLA BLA 
BLA BLA BLA BLA BLA BLA BLA BLA BLA BLA BLA BLA BLA BLA BLA BLA BLA BLA BLA BLA 
BLA BLA BLA BLA BLA BLA BLA BLA BLA BLA BLA BLA BLA BLA BLA BLA BLA BLA BLA BLA 
BLA BLA BLA BLA BLA BLA BLA BLA BLA BLA BLA BLA BLA BLA BLA BLA BLA BLA BLA BLA 
BLA BLA BLA BLA BLA BLA BLA BLA BLA BLA BLA BLA BLA BLA BLA BLA BLA BLA BLA BLA 
BLA BLA BLA BLA BLA BLA BLA BLA BLA BLA BLA BLA BLA BLA BLA BLA BLA BLA BLA BLA 
BLA BLA BLA BLA BLA BLA BLA BLA BLA BLA BLA BLA BLA BLA BLA BLA BLA BLA BLA BLA 
BLA BLA BLA BLA BLA BLA BLA BLA BLA BLA BLA BLA BLA BLA BLA BLA BLA BLA BLA BLA 
BLA BLA BLA BLA BLA BLA BLA BLA BLA BLA BLA BLA BLA BLA BLA BLA BLA BLA BLA BLA 
BLA BLA BLA BLA BLA BLA BLA BLA BLA BLA BLA BLA BLA BLA BLA BLA BLA BLA BLA BLA 
BLA BLA BLA BLA BLA BLA BLA BLA BLA BLA BLA BLA BLA BLA BLA BLA BLA BLA BLA BLA 
BLA BLA BLA BLA BLA BLA BLA BLA BLA BLA BLA BLA BLA BLA BLA BLA BLA BLA BLA BLA 
BLA BLA BLA BLA BLA BLA BLA BLA BLA BLA BLA BLA BLA BLA BLA BLA BLA BLA BLA BLA 
BLA BLA BLA BLA BLA BLA BLA BLA BLA BLA BLA BLA BLA BLA BLA BLA BLA BLA BLA BLA 
BLA BLA BLA BLA BLA BLA BLA BLA BLA BLA BLA BLA BLA BLA BLA BLA BLA BLA BLA BLA 
BLA BLA BLA BLA BLA BLA BLA BLA BLA BLA BLA BLA BLA BLA BLA BLA BLA BLA BLA BLA 
BLA BLA BLA BLA BLA BLA BLA BLA BLA BLA BLA BLA BLA BLA BLA BLA BLA BLA BLA BLA 
BLA BLA BLA BLA BLA BLA BLA BLA BLA BLA BLA BLA BLA BLA BLA BLA BLA BLA BLA BLA 
BLA BLA BLA BLA BLA BLA BLA BLA BLA BLA BLA BLA BLA BLA BLA BLA BLA BLA BLA BLA 
BLA BLA BLA BLA BLA BLA BLA BLA BLA BLA BLA BLA BLA BLA BLA BLA BLA BLA BLA BLA 
BLA BLA BLA BLA BLA BLA BLA BLA BLA BLA BLA BLA BLA BLA BLA BLA BLA BLA BLA BLA 
BLA BLA BLA BLA BLA BLA BLA BLA BLA BLA BLA BLA BLA BLA BLA BLA BLA BLA BLA BLA 
BLA BLA BLA BLA BLA BLA BLA BLA BLA BLA BLA BLA BLA BLA BLA BLA BLA BLA BLA BLA 
BLA BLA BLA BLA BLA BLA BLA BLA BLA BLA BLA BLA BLA BLA BLA BLA BLA BLA BLA BLA 
BLA BLA BLA BLA BLA BLA BLA BLA BLA BLA BLA BLA BLA BLA BLA BLA BLA BLA BLA BLA 
BLA BLA BLA BLA BLA BLA BLA BLA BLA BLA BLA BLA BLA BLA BLA BLA BLA BLA BLA BLA 
BLA BLA BLA BLA BLA BLA BLA BLA BLA BLA BLA BLA BLA BLA BLA BLA BLA BLA BLA BLA 
BLA BLA BLA BLA BLA BLA BLA BLA BLA BLA BLA BLA BLA BLA BLA BLA BLA BLA BLA BLA 
BLA BLA BLA BLA BLA BLA BLA BLA BLA BLA BLA BLA BLA BLA BLA BLA BLA BLA BLA BLA 
BLA BLA BLA BLA BLA BLA BLA BLA BLA BLA BLA BLA BLA BLA BLA BLA BLA BLA BLA BLA 
BLA BLA BLA BLA BLA BLA BLA BLA BLA BLA BLA BLA BLA BLA BLA BLA BLA BLA BLA BLA 
BLA BLA BLA BLA BLA BLA BLA BLA BLA BLA BLA BLA BLA BLA BLA BLA BLA BLA BLA BLA 
BLA BLA BLA BLA BLA BLA BLA BLA BLA BLA BLA BLA BLA BLA BLA BLA BLA BLA BLA BLA 
BLA BLA BLA BLA BLA BLA BLA BLA BLA BLA BLA BLA BLA BLA BLA BLA BLA BLA BLA BLA 
BLA BLA BLA BLA BLA BLA BLA BLA BLA BLA BLA BLA BLA BLA BLA BLA BLA BLA BLA BLA 
BLA BLA BLA BLA BLA BLA BLA BLA BLA BLA BLA BLA BLA BLA BLA BLA BLA BLA BLA BLA 
BLA BLA BLA BLA BLA BLA BLA BLA BLA BLA BLA BLA BLA BLA BLA BLA BLA BLA BLA BLA 
BLA BLA BLA BLA BLA BLA BLA BLA BLA BLA BLA BLA BLA BLA BLA BLA BLA BLA BLA BLA 
BLA BLA BLA BLA BLA BLA BLA BLA BLA BLA BLA BLA BLA BLA BLA BLA BLA BLA BLA BLA 
BLA BLA BLA BLA BLA BLA BLA BLA BLA BLA BLA BLA BLA BLA BLA BLA BLA BLA BLA BLA 
BLA BLA BLA BLA BLA BLA BLA BLA BLA BLA BLA BLA BLA BLA BLA BLA BLA BLA BLA BLA 
BLA BLA BLA BLA BLA BLA BLA BLA BLA BLA BLA BLA BLA BLA BLA BLA BLA BLA BLA BLA 
BLA BLA BLA BLA BLA BLA BLA BLA BLA BLA BLA BLA BLA BLA BLA BLA BLA BLA BLA BLA 
BLA BLA BLA BLA BLA BLA BLA BLA BLA BLA BLA BLA BLA BLA BLA BLA BLA BLA BLA BLA 
BLA BLA BLA BLA BLA BLA BLA BLA BLA BLA BLA BLA BLA BLA BLA BLA BLA BLA BLA BLA 
BLA BLA BLA BLA BLA BLA BLA BLA BLA BLA BLA BLA BLA BLA BLA BLA BLA BLA BLA BLA 
BLA BLA BLA BLA BLA BLA BLA BLA BLA BLA BLA BLA BLA BLA BLA BLA BLA BLA BLA BLA 
BLA BLA BLA BLA BLA BLA BLA BLA BLA BLA BLA BLA BLA BLA BLA BLA BLA BLA BLA BLA 
BLA BLA BLA BLA BLA BLA BLA BLA BLA BLA BLA BLA BLA BLA BLA BLA BLA BLA BLA BLA 
BLA BLA BLA BLA BLA BLA BLA BLA BLA BLA BLA BLA BLA BLA BLA BLA BLA BLA BLA BLA 
BLA BLA BLA BLA BLA BLA BLA BLA BLA BLA BLA BLA BLA BLA BLA BLA BLA BLA BLA BLA 
BLA BLA BLA BLA BLA BLA BLA BLA BLA BLA BLA BLA BLA BLA BLA BLA BLA BLA BLA BLA 
BLA BLA BLA BLA BLA BLA BLA BLA BLA BLA BLA BLA BLA BLA BLA BLA BLA BLA BLA BLA 
BLA BLA BLA BLA BLA BLA BLA BLA BLA BLA BLA BLA BLA BLA BLA BLA BLA BLA BLA BLA 
BLA BLA BLA BLA BLA BLA BLA BLA BLA BLA BLA BLA BLA BLA BLA BLA BLA BLA BLA BLA 
BLA BLA BLA BLA BLA BLA BLA BLA BLA BLA BLA BLA BLA BLA BLA BLA BLA BLA BLA BLA 
BLA BLA BLA BLA BLA BLA BLA BLA BLA BLA BLA BLA BLA BLA BLA BLA BLA BLA BLA BLA 
BLA BLA BLA BLA BLA BLA BLA BLA BLA BLA BLA BLA BLA BLA BLA BLA BLA BLA BLA BLA 
BLA BLA BLA BLA BLA BLA BLA BLA BLA BLA BLA BLA BLA BLA BLA BLA BLA BLA BLA BLA 
BLA BLA BLA BLA BLA BLA BLA BLA BLA BLA BLA BLA BLA BLA BLA BLA BLA BLA BLA BLA 
BLA BLA BLA BLA BLA BLA BLA BLA BLA BLA BLA BLA BLA BLA BLA BLA BLA BLA BLA BLA 
BLA BLA BLA BLA BLA BLA BLA BLA BLA BLA BLA BLA BLA BLA BLA BLA BLA BLA BLA BLA 
BLA BLA BLA BLA BLA BLA BLA BLA BLA BLA BLA BLA BLA BLA BLA BLA BLA BLA BLA BLA 
BLA BLA BLA BLA BLA BLA BLA BLA BLA BLA BLA BLA BLA BLA BLA BLA BLA BLA BLA BLA 
BLA BLA BLA BLA BLA BLA BLA BLA BLA BLA BLA BLA BLA BLA BLA BLA BLA BLA BLA BLA 
BLA BLA BLA BLA BLA BLA BLA BLA BLA BLA BLA BLA BLA BLA BLA BLA BLA BLA BLA BLA 
BLA BLA BLA BLA BLA BLA BLA BLA BLA BLA BLA BLA BLA BLA BLA BLA BLA BLA BLA BLA 
BLA BLA BLA BLA BLA BLA BLA BLA BLA BLA BLA BLA BLA BLA BLA BLA BLA BLA BLA BLA 
BLA BLA BLA BLA BLA BLA BLA BLA BLA BLA BLA BLA BLA BLA BLA BLA BLA BLA BLA BLA 
BLA BLA BLA BLA BLA BLA BLA BLA BLA BLA BLA BLA BLA BLA BLA BLA BLA BLA BLA BLA 
BLA BLA BLA BLA BLA BLA BLA BLA BLA BLA BLA BLA BLA BLA BLA BLA BLA BLA BLA BLA 
BLA BLA BLA BLA BLA BLA BLA BLA BLA BLA BLA BLA BLA BLA BLA BLA BLA BLA BLA BLA 
BLA BLA BLA BLA BLA BLA BLA BLA BLA BLA BLA BLA BLA BLA BLA BLA BLA BLA BLA BLA 
BLA BLA BLA BLA BLA BLA BLA BLA BLA BLA BLA BLA BLA BLA BLA BLA BLA BLA BLA BLA 
BLA BLA BLA BLA BLA BLA BLA BLA BLA BLA BLA BLA BLA BLA BLA BLA BLA BLA BLA BLA 
BLA BLA BLA BLA BLA BLA BLA BLA BLA BLA BLA BLA BLA BLA BLA BLA BLA BLA BLA BLA 
BLA BLA BLA BLA BLA BLA BLA BLA BLA BLA BLA BLA BLA BLA BLA BLA BLA BLA BLA BLA 
BLA BLA BLA BLA BLA BLA BLA BLA BLA BLA BLA BLA BLA BLA BLA BLA BLA BLA BLA BLA 
BLA BLA BLA BLA BLA BLA BLA BLA BLA BLA BLA BLA BLA BLA BLA BLA BLA BLA BLA BLA 
BLA BLA BLA BLA BLA BLA BLA BLA BLA BLA BLA BLA BLA BLA BLA BLA BLA BLA BLA BLA 
BLA BLA BLA BLA BLA BLA BLA BLA BLA BLA BLA BLA BLA BLA BLA BLA BLA BLA BLA BLA 
BLA BLA BLA BLA BLA BLA BLA BLA BLA BLA BLA BLA BLA BLA BLA BLA BLA BLA BLA BLA 
BLA BLA BLA BLA BLA BLA BLA BLA BLA BLA BLA BLA BLA BLA BLA BLA BLA BLA BLA BLA 
BLA BLA BLA BLA BLA BLA BLA BLA BLA BLA BLA BLA BLA BLA BLA BLA BLA BLA BLA BLA 
BLA BLA BLA BLA BLA BLA BLA BLA BLA BLA BLA BLA BLA BLA BLA BLA BLA BLA BLA BLA 
BLA BLA BLA BLA BLA BLA BLA BLA BLA BLA BLA BLA BLA BLA BLA BLA BLA BLA BLA BLA 
BLA BLA BLA BLA BLA BLA BLA BLA BLA BLA BLA BLA BLA BLA BLA BLA BLA BLA BLA BLA 
BLA BLA BLA BLA BLA BLA BLA BLA BLA BLA BLA BLA BLA BLA BLA BLA BLA BLA BLA BLA 
BLA BLA BLA BLA BLA BLA BLA BLA BLA BLA BLA BLA BLA BLA BLA BLA BLA BLA BLA BLA 
BLA BLA BLA BLA BLA BLA BLA BLA BLA BLA BLA BLA BLA BLA BLA BLA BLA BLA BLA BLA 
BLA BLA BLA BLA BLA BLA BLA BLA BLA BLA BLA BLA BLA BLA BLA BLA BLA BLA BLA BLA 
BLA BLA BLA BLA BLA BLA BLA BLA BLA BLA BLA BLA BLA BLA BLA BLA BLA BLA BLA BLA 
BLA BLA BLA BLA BLA BLA BLA BLA BLA BLA BLA BLA BLA BLA BLA BLA BLA BLA BLA BLA 
BLA BLA BLA BLA BLA BLA BLA BLA BLA BLA BLA BLA BLA BLA BLA BLA BLA BLA BLA BLA 
BLA BLA BLA BLA BLA BLA BLA BLA BLA BLA BLA BLA BLA BLA BLA BLA BLA BLA BLA BLA 
BLA BLA BLA BLA BLA BLA BLA BLA BLA BLA BLA BLA BLA BLA BLA BLA BLA BLA BLA BLA 
BLA BLA BLA BLA BLA BLA BLA BLA BLA BLA BLA BLA BLA BLA BLA BLA BLA BLA BLA BLA 
BLA BLA BLA BLA BLA BLA BLA BLA BLA BLA BLA BLA BLA BLA BLA BLA BLA BLA BLA BLA 
BLA BLA BLA BLA BLA BLA BLA BLA BLA BLA BLA BLA BLA BLA BLA BLA BLA BLA BLA BLA 
BLA BLA BLA BLA BLA BLA BLA BLA BLA BLA BLA BLA BLA BLA BLA BLA BLA BLA BLA BLA 
BLA BLA BLA BLA BLA BLA BLA BLA BLA BLA BLA BLA BLA BLA BLA BLA BLA BLA BLA BLA 
BLA BLA BLA BLA BLA BLA BLA BLA BLA BLA BLA BLA BLA BLA BLA BLA BLA BLA BLA BLA 
BLA BLA BLA BLA BLA BLA BLA BLA BLA BLA BLA BLA BLA BLA BLA BLA BLA BLA BLA BLA 
BLA BLA BLA BLA BLA BLA BLA BLA BLA BLA BLA BLA BLA BLA BLA BLA BLA BLA BLA BLA 
BLA BLA BLA BLA BLA BLA BLA BLA BLA BLA BLA BLA BLA BLA BLA BLA BLA BLA BLA BLA 
BLA BLA BLA BLA BLA BLA BLA BLA BLA BLA BLA BLA BLA BLA BLA BLA BLA BLA BLA BLA 
BLA BLA BLA BLA BLA BLA BLA BLA BLA BLA BLA BLA BLA BLA BLA BLA BLA BLA BLA BLA 
BLA BLA BLA BLA BLA BLA BLA BLA BLA BLA BLA BLA BLA BLA BLA BLA BLA BLA BLA BLA 
BLA BLA BLA BLA BLA BLA BLA BLA BLA BLA BLA BLA BLA BLA BLA BLA BLA BLA BLA BLA 
BLA BLA BLA BLA BLA BLA BLA BLA BLA BLA BLA BLA BLA BLA BLA BLA BLA BLA BLA BLA 
BLA BLA BLA BLA BLA BLA BLA BLA BLA BLA BLA BLA BLA BLA BLA BLA BLA BLA BLA BLA 
BLA BLA BLA BLA BLA BLA BLA BLA BLA BLA BLA BLA BLA BLA BLA BLA BLA BLA BLA BLA 
BLA BLA BLA BLA BLA BLA BLA BLA BLA BLA BLA BLA BLA BLA BLA BLA BLA BLA BLA BLA 
BLA BLA BLA BLA BLA BLA BLA BLA BLA BLA BLA BLA BLA BLA BLA BLA BLA BLA BLA BLA 
BLA BLA BLA BLA BLA BLA BLA BLA BLA BLA BLA BLA BLA BLA BLA BLA BLA BLA BLA BLA 
BLA BLA BLA BLA BLA BLA BLA BLA BLA BLA BLA BLA BLA BLA BLA BLA BLA BLA BLA BLA 
BLA BLA BLA BLA BLA BLA BLA BLA BLA BLA BLA BLA BLA BLA BLA BLA BLA BLA BLA BLA 
BLA BLA BLA BLA BLA BLA BLA BLA BLA BLA BLA BLA BLA BLA BLA BLA BLA BLA BLA BLA 
BLA BLA BLA BLA BLA BLA BLA BLA BLA BLA BLA BLA BLA BLA BLA BLA BLA BLA BLA BLA 
BLA BLA BLA BLA BLA BLA BLA BLA BLA BLA BLA BLA BLA BLA BLA BLA BLA BLA BLA BLA 
BLA BLA BLA BLA BLA BLA BLA BLA BLA BLA BLA BLA BLA BLA BLA BLA BLA BLA BLA BLA 
BLA BLA BLA BLA BLA BLA BLA BLA BLA BLA BLA BLA BLA BLA BLA BLA BLA BLA BLA BLA 
BLA BLA BLA BLA BLA BLA BLA BLA BLA BLA BLA BLA BLA BLA BLA BLA BLA BLA BLA BLA 
BLA BLA BLA BLA BLA BLA BLA BLA BLA BLA BLA BLA BLA BLA BLA BLA BLA BLA BLA BLA 
BLA BLA BLA BLA BLA BLA BLA BLA BLA BLA BLA BLA BLA BLA BLA BLA BLA BLA BLA BLA 
BLA BLA BLA BLA BLA BLA BLA BLA BLA BLA BLA BLA BLA BLA BLA BLA BLA BLA BLA BLA 
BLA BLA BLA BLA BLA BLA BLA BLA BLA BLA BLA BLA BLA BLA BLA BLA BLA BLA BLA BLA 
BLA BLA BLA BLA BLA BLA BLA BLA BLA BLA BLA BLA BLA BLA BLA BLA BLA BLA BLA BLA 
BLA BLA BLA BLA BLA BLA BLA BLA BLA BLA BLA BLA BLA BLA BLA BLA BLA BLA BLA BLA 
BLA BLA BLA BLA BLA BLA BLA BLA BLA BLA BLA BLA BLA BLA BLA BLA BLA BLA BLA BLA 
BLA BLA BLA BLA BLA BLA BLA BLA BLA BLA BLA BLA BLA BLA BLA BLA BLA BLA BLA BLA 
BLA BLA BLA BLA BLA BLA BLA BLA BLA BLA BLA BLA BLA BLA BLA BLA BLA BLA BLA BLA 
BLA BLA BLA BLA BLA BLA BLA BLA BLA BLA BLA BLA BLA BLA BLA BLA BLA BLA BLA BLA 
BLA BLA BLA BLA BLA BLA BLA BLA BLA BLA BLA BLA BLA BLA BLA BLA BLA BLA BLA BLA 
BLA BLA BLA BLA BLA BLA BLA BLA BLA BLA BLA BLA BLA BLA BLA BLA BLA BLA BLA BLA 
BLA BLA BLA BLA BLA BLA BLA BLA BLA BLA BLA BLA BLA BLA BLA BLA BLA BLA BLA BLA 
BLA BLA BLA BLA BLA BLA BLA BLA BLA BLA BLA BLA BLA BLA BLA BLA BLA BLA BLA BLA 
BLA BLA BLA BLA BLA BLA BLA BLA BLA BLA BLA BLA BLA BLA BLA BLA BLA BLA BLA BLA 
BLA BLA BLA BLA BLA BLA BLA BLA BLA BLA BLA BLA BLA BLA BLA BLA BLA BLA BLA BLA 
BLA BLA BLA BLA BLA BLA BLA BLA BLA BLA BLA BLA BLA BLA BLA BLA BLA BLA BLA BLA 
BLA BLA BLA BLA BLA BLA BLA BLA BLA BLA BLA BLA BLA BLA BLA BLA BLA BLA BLA BLA 
BLA BLA BLA BLA BLA BLA BLA BLA BLA BLA BLA BLA BLA BLA BLA BLA BLA BLA BLA BLA 
BLA BLA BLA BLA BLA BLA BLA BLA BLA BLA BLA BLA BLA BLA BLA BLA BLA BLA BLA BLA 
BLA BLA BLA BLA BLA BLA BLA BLA BLA BLA BLA BLA BLA BLA BLA BLA BLA BLA BLA BLA 
BLA BLA BLA BLA BLA BLA BLA BLA BLA BLA BLA BLA BLA BLA BLA BLA BLA BLA BLA BLA 
BLA BLA BLA BLA BLA BLA BLA BLA BLA BLA BLA BLA BLA BLA BLA BLA BLA BLA BLA BLA 
BLA BLA BLA BLA BLA BLA BLA BLA BLA BLA BLA BLA BLA BLA BLA BLA BLA BLA BLA BLA 
BLA BLA BLA BLA BLA BLA BLA BLA BLA BLA BLA BLA BLA BLA BLA BLA BLA BLA BLA BLA 
BLA BLA BLA BLA BLA BLA BLA BLA BLA BLA BLA BLA BLA BLA BLA BLA BLA BLA BLA BLA 
BLA BLA BLA BLA BLA BLA BLA BLA BLA BLA BLA BLA BLA BLA BLA BLA BLA BLA BLA BLA 
BLA BLA BLA BLA BLA BLA BLA BLA BLA BLA BLA BLA BLA BLA BLA BLA BLA BLA BLA BLA 
BLA BLA BLA BLA BLA BLA BLA BLA BLA BLA BLA BLA BLA BLA BLA BLA BLA BLA BLA BLA 
BLA BLA BLA BLA BLA BLA BLA BLA BLA BLA BLA BLA BLA BLA BLA BLA BLA BLA BLA BLA 
BLA BLA BLA BLA BLA BLA BLA BLA BLA BLA BLA BLA BLA BLA BLA BLA BLA BLA BLA BLA 
BLA BLA BLA BLA BLA BLA BLA BLA BLA BLA BLA BLA BLA BLA BLA BLA BLA BLA BLA BLA 
BLA BLA BLA BLA BLA BLA BLA BLA BLA BLA BLA BLA BLA BLA BLA BLA BLA BLA BLA BLA 
BLA BLA BLA BLA BLA BLA BLA BLA BLA BLA BLA BLA BLA BLA BLA BLA BLA BLA BLA BLA 
BLA BLA BLA BLA BLA BLA BLA BLA BLA BLA BLA BLA BLA BLA BLA BLA BLA BLA BLA BLA 
BLA BLA BLA BLA BLA BLA BLA BLA BLA BLA BLA BLA BLA BLA BLA BLA BLA BLA BLA BLA 
BLA BLA BLA BLA BLA BLA BLA BLA BLA BLA BLA BLA BLA BLA BLA BLA BLA BLA BLA BLA 
BLA BLA BLA BLA BLA BLA BLA BLA BLA BLA BLA BLA BLA BLA BLA BLA BLA BLA BLA BLA 
BLA BLA BLA BLA BLA BLA BLA BLA BLA BLA BLA BLA BLA BLA BLA BLA BLA BLA BLA BLA 
BLA BLA BLA BLA BLA BLA BLA BLA BLA BLA BLA BLA BLA BLA BLA BLA BLA BLA BLA BLA 
BLA BLA BLA BLA BLA BLA BLA BLA BLA BLA BLA BLA BLA BLA BLA BLA BLA BLA BLA BLA 
BLA BLA BLA BLA BLA BLA BLA BLA BLA BLA BLA BLA BLA BLA BLA BLA BLA BLA BLA BLA 
BLA BLA BLA BLA BLA BLA BLA BLA BLA BLA BLA BLA BLA BLA BLA BLA BLA BLA BLA BLA 
BLA BLA BLA BLA BLA BLA BLA BLA BLA BLA BLA BLA BLA BLA BLA BLA BLA BLA BLA BLA 
BLA BLA BLA BLA BLA BLA BLA BLA BLA BLA BLA BLA BLA BLA BLA BLA BLA BLA BLA BLA 
BLA BLA BLA BLA BLA BLA BLA BLA BLA BLA BLA BLA BLA BLA BLA BLA BLA BLA BLA BLA 
BLA BLA BLA BLA BLA BLA BLA BLA BLA BLA BLA BLA BLA BLA BLA BLA BLA BLA BLA BLA 
BLA BLA BLA BLA BLA BLA BLA BLA BLA BLA BLA BLA BLA BLA BLA BLA BLA BLA BLA BLA 
BLA BLA BLA BLA BLA BLA BLA BLA BLA BLA BLA BLA BLA BLA BLA BLA BLA BLA BLA BLA 
BLA BLA BLA BLA BLA BLA BLA BLA BLA BLA BLA BLA BLA BLA BLA BLA BLA BLA BLA BLA 
BLA BLA BLA BLA BLA BLA BLA BLA BLA BLA BLA BLA BLA BLA BLA BLA BLA BLA BLA BLA 
BLA BLA BLA BLA BLA BLA BLA BLA BLA BLA BLA BLA BLA BLA BLA BLA BLA BLA BLA BLA 
BLA BLA BLA BLA BLA BLA BLA BLA BLA BLA BLA BLA BLA BLA BLA BLA BLA BLA BLA BLA 
BLA BLA BLA BLA BLA BLA BLA BLA BLA BLA BLA BLA BLA BLA BLA BLA BLA BLA BLA BLA 
BLA BLA BLA BLA BLA BLA BLA BLA BLA BLA BLA BLA BLA BLA BLA BLA BLA BLA BLA BLA 
BLA BLA BLA BLA BLA BLA BLA BLA BLA BLA BLA BLA BLA BLA BLA BLA BLA BLA BLA BLA 
BLA BLA BLA BLA BLA BLA BLA BLA BLA BLA BLA BLA BLA BLA BLA BLA BLA BLA BLA BLA 
BLA BLA BLA BLA BLA BLA BLA BLA BLA BLA BLA BLA BLA BLA BLA BLA BLA BLA BLA BLA 
BLA BLA BLA BLA BLA BLA BLA BLA BLA BLA BLA BLA BLA BLA BLA BLA BLA BLA BLA BLA 
BLA BLA BLA BLA BLA BLA BLA BLA BLA BLA BLA BLA BLA BLA BLA BLA BLA BLA BLA BLA 
BLA BLA BLA BLA BLA BLA BLA BLA BLA BLA BLA BLA BLA BLA BLA BLA BLA BLA BLA BLA 
BLA BLA BLA BLA BLA BLA BLA BLA BLA BLA BLA BLA BLA BLA BLA BLA BLA BLA BLA BLA 
BLA BLA BLA BLA BLA BLA BLA BLA BLA BLA BLA BLA BLA BLA BLA BLA BLA BLA BLA BLA 
BLA BLA BLA BLA BLA BLA BLA BLA BLA BLA BLA BLA BLA BLA BLA BLA BLA BLA BLA BLA 
BLA BLA BLA BLA BLA BLA BLA BLA BLA BLA BLA BLA BLA BLA BLA BLA BLA BLA BLA BLA 
BLA BLA BLA BLA BLA BLA BLA BLA BLA BLA BLA BLA BLA BLA BLA BLA BLA BLA BLA BLA 
BLA BLA BLA BLA BLA BLA BLA BLA BLA BLA BLA BLA BLA BLA BLA BLA BLA BLA BLA BLA 
BLA BLA BLA BLA BLA BLA BLA BLA BLA BLA BLA BLA BLA BLA BLA BLA BLA BLA BLA BLA 
BLA BLA BLA BLA BLA BLA BLA BLA BLA BLA BLA BLA BLA BLA BLA BLA BLA BLA BLA BLA 
BLA BLA BLA BLA BLA BLA BLA BLA BLA BLA BLA BLA BLA BLA BLA BLA BLA BLA BLA BLA 
BLA BLA BLA BLA BLA BLA BLA BLA BLA BLA BLA BLA BLA BLA BLA BLA BLA BLA BLA BLA 
BLA BLA BLA BLA BLA BLA BLA BLA BLA BLA BLA BLA BLA BLA BLA BLA BLA BLA BLA BLA 
BLA BLA BLA BLA BLA BLA BLA BLA BLA BLA BLA BLA BLA BLA BLA BLA BLA BLA BLA BLA 
BLA BLA BLA BLA BLA BLA BLA BLA BLA BLA BLA BLA BLA BLA BLA BLA BLA BLA BLA BLA 
BLA BLA BLA BLA BLA BLA BLA BLA BLA BLA BLA BLA BLA BLA BLA BLA BLA BLA BLA BLA 
BLA BLA BLA BLA BLA BLA BLA BLA BLA BLA BLA BLA BLA BLA BLA BLA BLA BLA BLA BLA 
BLA BLA BLA BLA BLA BLA BLA BLA BLA BLA BLA BLA BLA BLA BLA BLA BLA BLA BLA BLA 
BLA BLA BLA BLA BLA BLA BLA BLA BLA BLA BLA BLA BLA BLA BLA BLA BLA BLA BLA BLA 
BLA BLA BLA BLA BLA BLA BLA BLA BLA BLA BLA BLA BLA BLA BLA BLA BLA BLA BLA BLA 
BLA BLA BLA BLA BLA BLA BLA BLA BLA BLA BLA BLA BLA BLA BLA BLA BLA BLA BLA BLA 
BLA BLA BLA BLA BLA BLA BLA BLA BLA BLA BLA BLA BLA BLA BLA BLA BLA BLA BLA BLA 
BLA BLA BLA BLA BLA BLA BLA BLA BLA BLA BLA BLA BLA BLA BLA BLA BLA BLA BLA BLA 
BLA BLA BLA BLA BLA BLA BLA BLA BLA BLA BLA BLA BLA BLA BLA BLA BLA BLA BLA BLA 
BLA BLA BLA BLA BLA BLA BLA BLA BLA BLA BLA BLA BLA BLA BLA BLA BLA BLA BLA BLA 
BLA BLA BLA BLA BLA BLA BLA BLA BLA BLA BLA BLA BLA BLA BLA BLA BLA BLA BLA BLA 
BLA BLA BLA BLA BLA BLA BLA BLA BLA BLA BLA BLA BLA BLA BLA BLA BLA BLA BLA BLA 
BLA BLA BLA BLA BLA BLA BLA BLA BLA BLA BLA BLA BLA BLA BLA BLA BLA BLA BLA BLA 
BLA BLA BLA BLA BLA BLA BLA BLA BLA BLA BLA BLA BLA BLA BLA BLA BLA BLA BLA BLA 
BLA BLA BLA BLA BLA BLA BLA BLA BLA BLA BLA BLA BLA BLA BLA BLA BLA BLA BLA BLA 
BLA BLA BLA BLA BLA BLA BLA BLA BLA BLA BLA BLA BLA BLA BLA BLA BLA BLA BLA BLA 
BLA BLA BLA BLA BLA BLA BLA BLA BLA BLA BLA BLA BLA BLA BLA BLA BLA BLA BLA BLA 
BLA BLA BLA BLA BLA BLA BLA BLA BLA BLA BLA BLA BLA BLA BLA BLA BLA BLA BLA BLA 
BLA BLA BLA BLA BLA BLA BLA BLA BLA BLA BLA BLA BLA BLA BLA BLA BLA BLA BLA BLA 
BLA BLA BLA BLA BLA BLA BLA BLA BLA BLA BLA BLA BLA BLA BLA BLA BLA BLA BLA BLA 
BLA BLA BLA BLA BLA BLA BLA BLA BLA BLA BLA BLA BLA BLA BLA BLA BLA BLA BLA BLA 
BLA BLA BLA BLA BLA BLA BLA BLA BLA BLA BLA BLA BLA BLA BLA BLA BLA BLA BLA BLA 
BLA BLA BLA BLA BLA BLA BLA BLA BLA BLA BLA BLA BLA BLA BLA BLA BLA BLA BLA BLA 
BLA BLA BLA BLA BLA BLA BLA BLA BLA BLA BLA BLA BLA BLA BLA BLA BLA BLA BLA BLA 
BLA BLA BLA BLA BLA BLA BLA BLA BLA BLA BLA BLA BLA BLA BLA BLA BLA BLA BLA BLA 
BLA BLA BLA BLA BLA BLA BLA BLA BLA BLA BLA BLA BLA BLA BLA BLA BLA BLA BLA BLA 
BLA BLA BLA BLA BLA BLA BLA BLA BLA BLA BLA BLA BLA BLA BLA BLA BLA BLA BLA BLA 
BLA BLA BLA BLA BLA BLA BLA BLA BLA BLA BLA BLA BLA BLA BLA BLA BLA BLA BLA BLA 
BLA BLA BLA BLA BLA BLA BLA BLA BLA BLA BLA BLA BLA BLA BLA BLA BLA BLA BLA BLA 
BLA BLA BLA BLA BLA BLA BLA BLA BLA BLA BLA BLA BLA BLA BLA BLA BLA BLA BLA BLA 
BLA BLA BLA BLA BLA BLA BLA BLA BLA BLA BLA BLA BLA BLA BLA BLA BLA BLA BLA BLA 
BLA BLA BLA BLA BLA BLA BLA BLA BLA BLA BLA BLA BLA BLA BLA BLA BLA BLA BLA BLA 
BLA BLA BLA BLA BLA BLA BLA BLA BLA BLA BLA BLA BLA BLA BLA BLA BLA BLA BLA BLA 
BLA BLA BLA BLA BLA BLA BLA BLA BLA BLA BLA BLA BLA BLA BLA BLA BLA BLA BLA BLA 
BLA BLA BLA BLA BLA BLA BLA BLA BLA BLA BLA BLA BLA BLA BLA BLA BLA BLA BLA BLA 
BLA BLA BLA BLA BLA BLA BLA BLA BLA BLA BLA BLA BLA BLA BLA BLA BLA BLA BLA BLA 
BLA BLA BLA BLA BLA BLA BLA BLA BLA BLA BLA BLA BLA BLA BLA BLA BLA BLA BLA BLA 
BLA BLA BLA BLA BLA BLA BLA BLA BLA BLA BLA BLA BLA BLA BLA BLA BLA BLA BLA BLA 
BLA BLA BLA BLA BLA BLA BLA BLA BLA BLA BLA BLA BLA BLA BLA BLA BLA BLA BLA BLA 
BLA BLA BLA BLA BLA BLA BLA BLA BLA BLA BLA BLA BLA BLA BLA BLA BLA BLA BLA BLA 
BLA BLA BLA BLA BLA BLA BLA BLA BLA BLA BLA BLA BLA BLA BLA BLA BLA BLA BLA BLA 
BLA BLA BLA BLA BLA BLA BLA BLA BLA BLA BLA BLA BLA BLA BLA BLA BLA BLA BLA BLA 
BLA BLA BLA BLA BLA BLA BLA BLA BLA BLA BLA BLA BLA BLA BLA BLA BLA BLA BLA BLA 
BLA BLA BLA BLA BLA BLA BLA BLA BLA BLA BLA BLA BLA BLA BLA BLA BLA BLA BLA BLA 
BLA BLA BLA BLA BLA BLA BLA BLA BLA BLA BLA BLA BLA BLA BLA BLA BLA BLA BLA BLA 
BLA BLA BLA BLA BLA BLA BLA BLA BLA BLA BLA BLA BLA BLA BLA BLA BLA BLA BLA BLA 
BLA BLA BLA BLA BLA BLA BLA BLA BLA BLA BLA BLA BLA BLA BLA BLA BLA BLA BLA BLA 
BLA BLA BLA BLA BLA BLA BLA BLA BLA BLA BLA BLA BLA BLA BLA BLA BLA BLA BLA BLA 
BLA BLA BLA BLA BLA BLA BLA BLA BLA BLA BLA BLA BLA BLA BLA BLA BLA BLA BLA BLA 
BLA BLA BLA BLA BLA BLA BLA BLA BLA BLA BLA BLA BLA BLA BLA BLA BLA BLA BLA BLA 
BLA BLA BLA BLA BLA BLA BLA BLA BLA BLA BLA BLA BLA BLA BLA BLA BLA BLA BLA BLA 
BLA BLA BLA BLA BLA BLA BLA BLA BLA BLA BLA BLA BLA BLA BLA BLA BLA BLA BLA BLA 
BLA BLA BLA BLA BLA BLA BLA BLA BLA BLA BLA BLA BLA BLA BLA BLA BLA BLA BLA BLA 
BLA BLA BLA BLA BLA BLA BLA BLA BLA BLA BLA BLA BLA BLA BLA BLA BLA BLA BLA BLA 
BLA BLA BLA BLA BLA BLA BLA BLA BLA BLA BLA BLA BLA BLA BLA BLA BLA BLA BLA BLA 
BLA BLA BLA BLA BLA BLA BLA BLA BLA BLA BLA BLA BLA BLA BLA BLA BLA BLA BLA BLA 
BLA BLA BLA BLA BLA BLA BLA BLA BLA BLA BLA BLA BLA BLA BLA BLA BLA BLA BLA BLA 
BLA BLA BLA BLA BLA BLA BLA BLA BLA BLA BLA BLA BLA BLA BLA BLA BLA BLA BLA BLA 
BLA BLA BLA BLA BLA BLA BLA BLA BLA BLA BLA BLA BLA BLA BLA BLA BLA BLA BLA BLA 
BLA BLA BLA BLA BLA BLA BLA BLA BLA BLA BLA BLA BLA BLA BLA BLA BLA BLA BLA BLA 
BLA BLA BLA BLA BLA BLA BLA BLA BLA BLA BLA BLA BLA BLA BLA BLA BLA BLA BLA BLA 
BLA BLA BLA BLA BLA BLA BLA BLA BLA BLA BLA BLA BLA BLA BLA BLA BLA BLA BLA BLA 
BLA BLA BLA BLA BLA BLA BLA BLA BLA BLA BLA BLA BLA BLA BLA BLA BLA BLA BLA BLA 
BLA BLA BLA BLA BLA BLA BLA BLA BLA BLA BLA BLA BLA BLA BLA BLA BLA BLA BLA BLA 
BLA BLA BLA BLA BLA BLA BLA BLA BLA BLA BLA BLA BLA BLA BLA BLA BLA BLA BLA BLA 
BLA BLA BLA BLA BLA BLA BLA BLA BLA BLA BLA BLA BLA BLA BLA BLA BLA BLA BLA BLA 
BLA BLA BLA BLA BLA BLA BLA BLA BLA BLA BLA BLA BLA BLA BLA BLA BLA BLA BLA BLA 
BLA BLA BLA BLA BLA BLA BLA BLA BLA BLA BLA BLA BLA BLA BLA BLA BLA BLA BLA BLA 
BLA BLA BLA BLA BLA BLA BLA BLA BLA BLA BLA BLA BLA BLA BLA BLA BLA BLA BLA BLA 
BLA BLA BLA BLA BLA BLA BLA BLA BLA BLA BLA BLA BLA BLA BLA BLA BLA BLA BLA BLA 
BLA BLA BLA BLA BLA BLA BLA BLA BLA BLA BLA BLA BLA BLA BLA BLA BLA BLA BLA BLA 
BLA BLA BLA BLA BLA BLA BLA BLA BLA BLA BLA BLA BLA BLA BLA BLA BLA BLA BLA BLA 
BLA BLA BLA BLA BLA BLA BLA BLA BLA BLA BLA BLA BLA BLA BLA BLA BLA BLA BLA BLA 
BLA BLA BLA BLA BLA BLA BLA BLA BLA BLA BLA BLA BLA BLA BLA BLA BLA BLA BLA BLA 
BLA BLA BLA BLA BLA BLA BLA BLA BLA BLA BLA BLA BLA BLA BLA BLA BLA BLA BLA BLA 
BLA BLA BLA BLA BLA BLA BLA BLA BLA BLA BLA BLA BLA BLA BLA BLA BLA BLA BLA BLA 
BLA BLA BLA BLA BLA BLA BLA BLA BLA BLA BLA BLA BLA BLA BLA BLA BLA BLA BLA BLA 
BLA BLA BLA BLA BLA BLA BLA BLA BLA BLA BLA BLA BLA BLA BLA BLA BLA BLA BLA BLA 
BLA BLA BLA BLA BLA BLA BLA BLA BLA BLA BLA BLA BLA BLA BLA BLA BLA BLA BLA BLA 
BLA BLA BLA BLA BLA BLA BLA BLA BLA BLA BLA BLA BLA BLA BLA BLA BLA BLA BLA BLA 
BLA BLA BLA BLA BLA BLA BLA BLA BLA BLA BLA BLA BLA BLA BLA BLA BLA BLA BLA BLA 
BLA BLA BLA BLA BLA BLA BLA BLA BLA BLA BLA BLA BLA BLA BLA BLA BLA BLA BLA BLA 
BLA BLA BLA BLA BLA BLA BLA BLA BLA BLA BLA BLA BLA BLA BLA BLA BLA BLA BLA BLA 
BLA BLA BLA BLA BLA BLA BLA BLA BLA BLA BLA BLA BLA BLA BLA BLA BLA BLA BLA BLA 
BLA BLA BLA BLA BLA BLA BLA BLA BLA BLA BLA BLA BLA BLA BLA BLA BLA BLA BLA BLA 
BLA BLA BLA BLA BLA BLA BLA BLA BLA BLA BLA BLA BLA BLA BLA BLA BLA BLA BLA BLA 
BLA BLA BLA BLA BLA BLA BLA BLA BLA BLA BLA BLA BLA BLA BLA BLA BLA BLA BLA BLA 
BLA BLA BLA BLA BLA BLA BLA BLA BLA BLA BLA BLA BLA BLA BLA BLA BLA BLA BLA BLA 
BLA BLA BLA BLA BLA BLA BLA BLA BLA BLA BLA BLA BLA BLA BLA BLA BLA BLA BLA BLA 
BLA BLA BLA BLA BLA BLA BLA BLA BLA BLA BLA BLA BLA BLA BLA BLA BLA BLA BLA BLA 
BLA BLA BLA BLA BLA BLA BLA BLA BLA BLA BLA BLA BLA BLA BLA BLA BLA BLA BLA BLA 
BLA BLA BLA BLA BLA BLA BLA BLA BLA BLA BLA BLA BLA BLA BLA BLA BLA BLA BLA BLA 
BLA BLA BLA BLA BLA BLA BLA BLA BLA BLA BLA BLA BLA BLA BLA BLA BLA BLA BLA BLA 
BLA BLA BLA BLA BLA BLA BLA BLA BLA BLA BLA BLA BLA BLA BLA BLA BLA BLA BLA BLA 
BLA BLA BLA BLA BLA BLA BLA BLA BLA BLA BLA BLA BLA BLA BLA BLA BLA BLA BLA BLA 
BLA BLA BLA BLA BLA BLA BLA BLA BLA BLA BLA BLA BLA BLA BLA BLA BLA BLA BLA BLA 
BLA BLA BLA BLA BLA BLA BLA BLA BLA BLA BLA BLA BLA BLA BLA BLA BLA BLA BLA BLA 
BLA BLA BLA BLA BLA BLA BLA BLA BLA BLA BLA BLA BLA BLA BLA BLA BLA BLA BLA BLA 
BLA BLA BLA BLA BLA BLA BLA BLA BLA BLA BLA BLA BLA BLA BLA BLA BLA BLA BLA BLA 
BLA BLA BLA BLA BLA BLA BLA BLA BLA BLA BLA BLA BLA BLA BLA BLA BLA BLA BLA BLA 
BLA BLA BLA BLA BLA BLA BLA BLA BLA BLA BLA BLA BLA BLA BLA BLA BLA BLA BLA BLA 
BLA BLA BLA BLA BLA BLA BLA BLA BLA BLA BLA BLA BLA BLA BLA BLA BLA BLA BLA BLA 
BLA BLA BLA BLA BLA BLA BLA BLA BLA BLA BLA BLA BLA BLA BLA BLA BLA BLA BLA BLA 
BLA BLA BLA BLA BLA BLA BLA BLA BLA BLA BLA BLA BLA BLA BLA BLA BLA BLA BLA BLA 
BLA BLA BLA BLA BLA BLA BLA BLA BLA BLA BLA BLA BLA BLA BLA BLA BLA BLA BLA BLA 
BLA BLA BLA BLA BLA BLA BLA BLA BLA BLA BLA BLA BLA BLA BLA BLA BLA BLA BLA BLA 
BLA BLA BLA BLA BLA BLA BLA BLA BLA BLA BLA BLA BLA BLA BLA BLA BLA BLA BLA BLA 
BLA BLA BLA BLA BLA BLA BLA BLA BLA BLA BLA BLA BLA BLA BLA BLA BLA BLA BLA BLA 
BLA BLA BLA BLA BLA BLA BLA BLA BLA BLA BLA BLA BLA BLA BLA BLA BLA BLA BLA BLA 
BLA BLA BLA BLA BLA BLA BLA BLA BLA BLA BLA BLA BLA BLA BLA BLA BLA BLA BLA BLA 
BLA BLA BLA BLA BLA BLA BLA BLA BLA BLA BLA BLA BLA BLA BLA BLA BLA BLA BLA BLA 
BLA BLA BLA BLA BLA BLA BLA BLA BLA BLA BLA BLA BLA BLA BLA BLA BLA BLA BLA BLA 
BLA BLA BLA BLA BLA BLA BLA BLA BLA BLA BLA BLA BLA BLA BLA BLA BLA BLA BLA BLA 
BLA BLA BLA BLA BLA BLA BLA BLA BLA BLA BLA BLA BLA BLA BLA BLA BLA BLA BLA BLA 
BLA BLA BLA BLA BLA BLA BLA BLA BLA BLA BLA BLA BLA BLA BLA BLA BLA BLA BLA BLA 
BLA BLA BLA BLA BLA BLA BLA BLA BLA BLA BLA BLA BLA BLA BLA BLA BLA BLA BLA BLA 
BLA BLA BLA BLA BLA BLA BLA BLA BLA BLA BLA BLA BLA BLA BLA BLA BLA BLA BLA BLA 
BLA BLA BLA BLA BLA BLA BLA BLA BLA BLA BLA BLA BLA BLA BLA BLA BLA BLA BLA BLA 
BLA BLA BLA BLA BLA BLA BLA BLA BLA BLA BLA BLA BLA BLA BLA BLA BLA BLA BLA BLA 
BLA BLA BLA BLA BLA BLA BLA BLA BLA BLA BLA BLA BLA BLA BLA BLA BLA BLA BLA BLA 
BLA BLA BLA BLA BLA BLA BLA BLA BLA BLA BLA BLA BLA BLA BLA BLA BLA BLA BLA BLA 
BLA BLA BLA BLA BLA BLA BLA BLA BLA BLA BLA BLA BLA BLA BLA BLA BLA BLA BLA BLA 
BLA BLA BLA BLA BLA BLA BLA BLA BLA BLA BLA BLA BLA BLA BLA BLA BLA BLA BLA BLA 
BLA BLA BLA BLA BLA BLA BLA BLA BLA BLA BLA BLA BLA BLA BLA BLA BLA BLA BLA BLA 
BLA BLA BLA BLA BLA BLA BLA BLA BLA BLA BLA BLA BLA BLA BLA BLA BLA BLA BLA BLA 
BLA BLA BLA BLA BLA BLA BLA BLA BLA BLA BLA BLA BLA BLA BLA BLA BLA BLA BLA BLA 
BLA BLA BLA BLA BLA BLA BLA BLA BLA BLA BLA BLA BLA BLA BLA BLA BLA BLA BLA BLA 
BLA BLA BLA BLA BLA BLA BLA BLA BLA BLA BLA BLA BLA BLA BLA BLA BLA BLA BLA BLA 
BLA BLA BLA BLA BLA BLA BLA BLA BLA BLA BLA BLA BLA BLA BLA BLA BLA BLA BLA BLA 
BLA BLA BLA BLA BLA BLA BLA BLA BLA BLA BLA BLA BLA BLA BLA BLA BLA BLA BLA BLA 
BLA BLA BLA BLA BLA BLA BLA BLA BLA BLA BLA BLA BLA BLA BLA BLA BLA BLA BLA BLA 
BLA BLA BLA BLA BLA BLA BLA BLA BLA BLA BLA BLA BLA BLA BLA BLA BLA BLA BLA BLA 
BLA BLA BLA BLA BLA BLA BLA BLA BLA BLA BLA BLA BLA BLA BLA BLA BLA BLA BLA BLA 
BLA BLA BLA BLA BLA BLA BLA BLA BLA BLA BLA BLA BLA BLA BLA BLA BLA BLA BLA BLA 
BLA BLA BLA BLA BLA BLA BLA BLA BLA BLA BLA BLA BLA BLA BLA BLA BLA BLA BLA BLA 
BLA BLA BLA BLA BLA BLA BLA BLA BLA BLA BLA BLA BLA BLA BLA BLA BLA BLA BLA BLA 
BLA BLA BLA BLA BLA BLA BLA BLA BLA BLA BLA BLA BLA BLA BLA BLA BLA BLA BLA BLA 
BLA BLA BLA BLA BLA BLA BLA BLA BLA BLA BLA BLA BLA BLA BLA BLA BLA BLA BLA BLA 
BLA BLA BLA BLA BLA BLA BLA BLA BLA BLA BLA BLA BLA BLA BLA BLA BLA BLA BLA BLA 
BLA BLA BLA BLA BLA BLA BLA BLA BLA BLA BLA BLA BLA BLA BLA BLA BLA BLA BLA BLA 
BLA BLA BLA BLA BLA BLA BLA BLA BLA BLA BLA BLA BLA BLA BLA BLA BLA BLA BLA BLA 
BLA BLA BLA BLA BLA BLA BLA BLA BLA BLA BLA BLA BLA BLA BLA BLA BLA BLA BLA BLA 
BLA BLA BLA BLA BLA BLA BLA BLA BLA BLA BLA BLA BLA BLA BLA BLA BLA BLA BLA BLA 
BLA BLA BLA BLA BLA BLA BLA BLA BLA BLA BLA BLA BLA BLA BLA BLA BLA BLA BLA BLA 
BLA BLA BLA BLA BLA BLA BLA BLA BLA BLA BLA BLA BLA BLA BLA BLA BLA BLA BLA BLA 
BLA BLA BLA BLA BLA BLA BLA BLA BLA BLA BLA BLA BLA BLA BLA BLA BLA BLA BLA BLA 
BLA BLA BLA BLA BLA BLA BLA BLA BLA BLA BLA BLA BLA BLA BLA BLA BLA BLA BLA BLA 
BLA BLA BLA BLA BLA BLA BLA BLA BLA BLA BLA BLA BLA BLA BLA BLA BLA BLA BLA BLA 
BLA BLA BLA BLA BLA BLA BLA BLA BLA BLA BLA BLA BLA BLA BLA BLA BLA BLA BLA BLA 
BLA BLA BLA BLA BLA BLA BLA BLA BLA BLA BLA BLA BLA BLA BLA BLA BLA BLA BLA BLA 
BLA BLA BLA BLA BLA BLA BLA BLA BLA BLA BLA BLA BLA BLA BLA BLA BLA BLA BLA BLA 
BLA BLA BLA BLA BLA BLA BLA BLA BLA BLA BLA BLA BLA BLA BLA BLA BLA BLA BLA BLA 
BLA BLA BLA BLA BLA BLA BLA BLA BLA BLA BLA BLA BLA BLA BLA BLA BLA BLA BLA BLA 
BLA BLA BLA BLA BLA BLA BLA BLA BLA BLA BLA BLA BLA BLA BLA BLA BLA BLA BLA BLA 
BLA BLA BLA BLA BLA BLA BLA BLA BLA BLA BLA BLA BLA BLA BLA BLA BLA BLA BLA BLA 
BLA BLA BLA BLA BLA BLA BLA BLA BLA BLA BLA BLA BLA BLA BLA BLA BLA BLA BLA BLA 
BLA BLA BLA BLA BLA BLA BLA BLA BLA BLA BLA BLA BLA BLA BLA BLA BLA BLA BLA BLA 
BLA BLA BLA BLA BLA BLA BLA BLA BLA BLA BLA BLA BLA BLA BLA BLA BLA BLA BLA BLA 
BLA BLA BLA BLA BLA BLA BLA BLA BLA BLA BLA BLA BLA BLA BLA BLA BLA BLA BLA BLA 
BLA BLA BLA BLA BLA BLA BLA BLA BLA BLA BLA BLA BLA BLA BLA BLA BLA BLA BLA BLA 
BLA BLA BLA BLA BLA BLA BLA BLA BLA BLA BLA BLA BLA BLA BLA BLA BLA BLA BLA BLA 
BLA BLA BLA BLA BLA BLA BLA BLA BLA BLA BLA BLA BLA BLA BLA BLA BLA BLA BLA BLA 
BLA BLA BLA BLA BLA BLA BLA BLA BLA BLA BLA BLA BLA BLA BLA BLA BLA BLA BLA BLA 
BLA BLA BLA BLA BLA BLA BLA BLA BLA BLA BLA BLA BLA BLA BLA BLA BLA BLA BLA BLA 
BLA BLA BLA BLA BLA BLA BLA BLA BLA BLA BLA BLA BLA BLA BLA BLA BLA BLA BLA BLA 
BLA BLA BLA BLA BLA BLA BLA BLA BLA BLA BLA BLA BLA BLA BLA BLA BLA BLA BLA BLA 
BLA BLA BLA BLA BLA BLA BLA BLA BLA BLA BLA BLA BLA BLA BLA BLA BLA BLA BLA BLA 
BLA BLA BLA BLA BLA BLA BLA BLA BLA BLA BLA BLA BLA BLA BLA BLA BLA BLA BLA BLA 
BLA BLA BLA BLA BLA BLA BLA BLA BLA BLA BLA BLA BLA BLA BLA BLA BLA BLA BLA BLA 
BLA BLA BLA BLA BLA BLA BLA BLA BLA BLA BLA BLA BLA BLA BLA BLA BLA BLA BLA BLA 
BLA BLA BLA BLA BLA BLA BLA BLA BLA BLA BLA BLA BLA BLA BLA BLA BLA BLA BLA BLA 
BLA BLA BLA BLA BLA BLA BLA BLA BLA BLA BLA BLA BLA BLA BLA BLA BLA BLA BLA BLA 
BLA BLA BLA BLA BLA BLA BLA BLA BLA BLA BLA BLA BLA BLA BLA BLA BLA BLA BLA BLA 
BLA BLA BLA BLA BLA BLA BLA BLA BLA BLA BLA BLA BLA BLA BLA BLA BLA BLA BLA BLA 
BLA BLA BLA BLA BLA BLA BLA BLA BLA BLA BLA BLA BLA BLA BLA BLA BLA BLA BLA BLA 
BLA BLA BLA BLA BLA BLA BLA BLA BLA BLA BLA BLA BLA BLA BLA BLA BLA BLA BLA BLA 
BLA BLA BLA BLA BLA BLA BLA BLA BLA BLA BLA BLA BLA BLA BLA BLA BLA BLA BLA BLA 
BLA BLA BLA BLA BLA BLA BLA BLA BLA BLA BLA BLA BLA BLA BLA BLA BLA BLA BLA BLA 
BLA BLA BLA BLA BLA BLA BLA BLA BLA BLA BLA BLA BLA BLA BLA BLA BLA BLA BLA BLA 
BLA BLA BLA BLA BLA BLA BLA BLA BLA BLA BLA BLA BLA BLA BLA BLA BLA BLA BLA BLA 
BLA BLA BLA BLA BLA BLA BLA BLA BLA BLA BLA BLA BLA BLA BLA BLA BLA BLA BLA BLA 
BLA BLA BLA BLA BLA BLA BLA BLA BLA BLA BLA BLA BLA BLA BLA BLA BLA BLA BLA BLA 
BLA BLA BLA BLA BLA BLA BLA BLA BLA BLA BLA BLA BLA BLA BLA BLA BLA BLA BLA BLA 
BLA BLA BLA BLA BLA BLA BLA BLA BLA BLA BLA BLA BLA BLA BLA BLA BLA BLA BLA BLA 
BLA BLA BLA BLA BLA BLA BLA BLA BLA BLA BLA BLA BLA BLA BLA BLA BLA BLA BLA BLA 
BLA BLA BLA BLA BLA BLA BLA BLA BLA BLA BLA BLA BLA BLA BLA BLA BLA BLA BLA BLA 
BLA BLA BLA BLA BLA BLA BLA BLA BLA BLA BLA BLA BLA BLA BLA BLA BLA BLA BLA BLA 
BLA BLA BLA BLA BLA BLA BLA BLA BLA BLA BLA BLA BLA BLA BLA BLA BLA BLA BLA BLA 
BLA BLA BLA BLA BLA BLA BLA BLA BLA BLA BLA BLA BLA BLA BLA BLA BLA BLA BLA BLA 
BLA BLA BLA BLA BLA BLA BLA BLA BLA BLA BLA BLA BLA BLA BLA BLA BLA BLA BLA BLA 
BLA BLA BLA BLA BLA BLA BLA BLA BLA BLA BLA BLA BLA BLA BLA BLA BLA BLA BLA BLA 
BLA BLA BLA BLA BLA BLA BLA BLA BLA BLA BLA BLA BLA BLA BLA BLA BLA BLA BLA BLA 
BLA BLA BLA BLA BLA BLA BLA BLA BLA BLA BLA BLA BLA BLA BLA BLA BLA BLA BLA BLA 
BLA BLA BLA BLA BLA BLA BLA BLA BLA BLA BLA BLA BLA BLA BLA BLA BLA BLA BLA BLA 
BLA BLA BLA BLA BLA BLA BLA BLA BLA BLA BLA BLA BLA BLA BLA BLA BLA BLA BLA BLA 
BLA BLA BLA BLA BLA BLA BLA BLA BLA BLA BLA BLA BLA BLA BLA BLA BLA BLA BLA BLA 
BLA BLA BLA BLA BLA BLA BLA BLA BLA BLA BLA BLA BLA BLA BLA BLA BLA BLA BLA BLA 
BLA BLA BLA BLA BLA BLA BLA BLA BLA BLA BLA BLA BLA BLA BLA BLA BLA BLA BLA BLA 
BLA BLA BLA BLA BLA BLA BLA BLA BLA BLA BLA BLA BLA BLA BLA BLA BLA BLA BLA BLA 
BLA BLA BLA BLA BLA BLA BLA BLA BLA BLA BLA BLA BLA BLA BLA BLA BLA BLA BLA BLA 
BLA BLA BLA BLA BLA BLA BLA BLA BLA BLA BLA BLA BLA BLA BLA BLA BLA BLA BLA BLA 
BLA BLA BLA BLA BLA BLA BLA BLA BLA BLA BLA BLA BLA BLA BLA BLA BLA BLA BLA BLA 
BLA BLA BLA BLA BLA BLA BLA BLA BLA BLA BLA BLA BLA BLA BLA BLA BLA BLA BLA BLA 
BLA BLA BLA BLA BLA BLA BLA BLA BLA BLA BLA BLA BLA BLA BLA BLA BLA BLA BLA BLA 
BLA BLA BLA BLA BLA BLA BLA BLA BLA BLA BLA BLA BLA BLA BLA BLA BLA BLA BLA BLA 
BLA BLA BLA BLA BLA BLA BLA BLA BLA BLA BLA BLA BLA BLA BLA BLA BLA BLA BLA BLA 
BLA BLA BLA BLA BLA BLA BLA BLA BLA BLA BLA BLA BLA BLA BLA BLA BLA BLA BLA BLA 
BLA BLA BLA BLA BLA BLA BLA BLA BLA BLA BLA BLA BLA BLA BLA BLA BLA BLA BLA BLA 
BLA BLA BLA BLA BLA BLA BLA BLA BLA BLA BLA BLA BLA BLA BLA BLA BLA BLA BLA BLA 
BLA BLA BLA BLA BLA BLA BLA BLA BLA BLA BLA BLA BLA BLA BLA BLA BLA BLA BLA BLA 
BLA BLA BLA BLA BLA BLA BLA BLA BLA BLA BLA BLA BLA BLA BLA BLA BLA BLA BLA BLA 
BLA BLA BLA BLA BLA BLA BLA BLA BLA BLA BLA BLA BLA BLA BLA BLA BLA BLA BLA BLA 
BLA BLA BLA BLA BLA BLA BLA BLA BLA BLA BLA BLA BLA BLA BLA BLA BLA BLA BLA BLA 
BLA BLA BLA BLA BLA BLA BLA BLA BLA BLA BLA BLA BLA BLA BLA BLA BLA BLA BLA BLA 
BLA BLA BLA BLA BLA BLA BLA BLA BLA BLA BLA BLA BLA BLA BLA BLA BLA BLA BLA BLA 
BLA BLA BLA BLA BLA BLA BLA BLA BLA BLA BLA BLA BLA BLA BLA BLA BLA BLA BLA BLA 
BLA BLA BLA BLA BLA BLA BLA BLA BLA BLA BLA BLA BLA BLA BLA BLA BLA BLA BLA BLA 
BLA BLA BLA BLA BLA BLA BLA BLA BLA BLA BLA BLA BLA BLA BLA BLA BLA BLA BLA BLA 
BLA BLA BLA BLA BLA BLA BLA BLA BLA BLA BLA BLA BLA BLA BLA BLA BLA BLA BLA BLA 
BLA BLA BLA BLA BLA BLA BLA BLA BLA BLA BLA BLA BLA BLA BLA BLA BLA BLA BLA BLA 
BLA BLA BLA BLA BLA BLA BLA BLA BLA BLA BLA BLA BLA BLA BLA BLA BLA BLA BLA BLA 
BLA BLA BLA BLA BLA BLA BLA BLA BLA BLA BLA BLA BLA BLA BLA BLA BLA BLA BLA BLA 
BLA BLA BLA BLA BLA BLA BLA BLA BLA BLA BLA BLA BLA BLA BLA BLA BLA BLA BLA BLA 
BLA BLA BLA BLA BLA BLA BLA BLA BLA BLA BLA BLA BLA BLA BLA BLA BLA BLA BLA BLA 
BLA BLA BLA BLA BLA BLA BLA BLA BLA BLA BLA BLA BLA BLA BLA BLA BLA BLA BLA BLA 
BLA BLA BLA BLA BLA BLA BLA BLA BLA BLA BLA BLA BLA BLA BLA BLA BLA BLA BLA BLA 
BLA BLA BLA BLA BLA BLA BLA BLA BLA BLA BLA BLA BLA BLA BLA BLA BLA BLA BLA BLA 
BLA BLA BLA BLA BLA BLA BLA BLA BLA BLA BLA BLA BLA BLA BLA BLA BLA BLA BLA BLA 
BLA BLA BLA BLA BLA BLA BLA BLA BLA BLA BLA BLA BLA BLA BLA BLA BLA BLA BLA BLA 
BLA BLA BLA BLA BLA BLA BLA BLA BLA BLA BLA BLA BLA BLA BLA BLA BLA BLA BLA BLA 
BLA BLA BLA BLA BLA BLA BLA BLA BLA BLA BLA BLA BLA BLA BLA BLA BLA BLA BLA BLA 
BLA BLA BLA BLA BLA BLA BLA BLA BLA BLA BLA BLA BLA BLA BLA BLA BLA BLA BLA BLA 
BLA BLA BLA BLA BLA BLA BLA BLA BLA BLA BLA BLA BLA BLA BLA BLA BLA BLA BLA BLA 
BLA BLA BLA BLA BLA BLA BLA BLA BLA BLA BLA BLA BLA BLA BLA BLA BLA BLA BLA BLA 
BLA BLA BLA BLA BLA BLA BLA BLA BLA BLA BLA BLA BLA BLA BLA BLA BLA BLA BLA BLA 
BLA BLA BLA BLA BLA BLA BLA BLA BLA BLA BLA BLA BLA BLA BLA BLA BLA BLA BLA BLA 
BLA BLA BLA BLA BLA BLA BLA BLA BLA BLA BLA BLA BLA BLA BLA BLA BLA BLA BLA BLA 
BLA BLA BLA BLA BLA BLA BLA BLA BLA BLA BLA BLA BLA BLA BLA BLA BLA BLA BLA BLA 
BLA BLA BLA BLA BLA BLA BLA BLA BLA BLA BLA BLA BLA BLA BLA BLA BLA BLA BLA BLA 
BLA BLA BLA BLA BLA BLA BLA BLA BLA BLA BLA BLA BLA BLA BLA BLA BLA BLA BLA BLA 
BLA BLA BLA BLA BLA BLA BLA BLA BLA BLA BLA BLA BLA BLA BLA BLA BLA BLA BLA BLA 
BLA BLA BLA BLA BLA BLA BLA BLA BLA BLA BLA BLA BLA BLA BLA BLA BLA BLA BLA BLA 
BLA BLA BLA BLA BLA BLA BLA BLA BLA BLA BLA BLA BLA BLA BLA BLA BLA BLA BLA BLA 
BLA BLA BLA BLA BLA BLA BLA BLA BLA BLA BLA BLA BLA BLA BLA BLA BLA BLA BLA BLA 
BLA BLA BLA BLA BLA BLA BLA BLA BLA BLA BLA BLA BLA BLA BLA BLA BLA BLA BLA BLA 
BLA BLA BLA BLA BLA BLA BLA BLA BLA BLA BLA BLA BLA BLA BLA BLA BLA BLA BLA BLA 
BLA BLA BLA BLA BLA BLA BLA BLA BLA BLA BLA BLA BLA BLA BLA BLA BLA BLA BLA BLA 
BLA BLA BLA BLA BLA BLA BLA BLA BLA BLA BLA BLA BLA BLA BLA BLA BLA BLA BLA BLA 
BLA BLA BLA BLA BLA BLA BLA BLA BLA BLA BLA BLA BLA BLA BLA BLA BLA BLA BLA BLA 
BLA BLA BLA BLA BLA BLA BLA BLA BLA BLA BLA BLA BLA BLA BLA BLA BLA BLA BLA BLA 
BLA BLA BLA BLA BLA BLA BLA BLA BLA BLA BLA BLA BLA BLA BLA BLA BLA BLA BLA BLA 
BLA BLA BLA BLA BLA BLA BLA BLA BLA BLA BLA BLA BLA BLA BLA BLA BLA BLA BLA BLA 
BLA BLA BLA BLA BLA BLA BLA BLA BLA BLA BLA BLA BLA BLA BLA BLA BLA BLA BLA BLA 
BLA BLA BLA BLA BLA BLA BLA BLA BLA BLA BLA BLA BLA BLA BLA BLA BLA BLA BLA BLA 
BLA BLA BLA BLA BLA BLA BLA BLA BLA BLA BLA BLA BLA BLA BLA BLA BLA BLA BLA BLA 
BLA BLA BLA BLA BLA BLA BLA BLA BLA BLA BLA BLA BLA BLA BLA BLA BLA BLA BLA BLA 
BLA BLA BLA BLA BLA BLA BLA BLA BLA BLA BLA BLA BLA BLA BLA BLA BLA BLA BLA BLA 
BLA BLA BLA BLA BLA BLA BLA BLA BLA BLA BLA BLA BLA BLA BLA BLA BLA BLA BLA BLA 
BLA BLA BLA BLA BLA BLA BLA BLA BLA BLA BLA BLA BLA BLA BLA BLA BLA BLA BLA BLA 
BLA BLA BLA BLA BLA BLA BLA BLA BLA BLA BLA BLA BLA BLA BLA BLA BLA BLA BLA BLA 
BLA BLA BLA BLA BLA BLA BLA BLA BLA BLA BLA BLA BLA BLA BLA BLA BLA BLA BLA BLA 
BLA BLA BLA BLA BLA BLA BLA BLA BLA BLA BLA BLA BLA BLA BLA BLA BLA BLA BLA BLA 
BLA BLA BLA BLA BLA BLA BLA BLA BLA BLA BLA BLA BLA BLA BLA BLA BLA BLA BLA BLA 
BLA BLA BLA BLA BLA BLA BLA BLA BLA BLA BLA BLA BLA BLA BLA BLA BLA BLA BLA BLA 
BLA BLA BLA BLA BLA BLA BLA BLA BLA BLA BLA BLA BLA BLA BLA BLA BLA BLA BLA BLA 
BLA BLA BLA BLA BLA BLA BLA BLA BLA BLA BLA BLA BLA BLA BLA BLA BLA BLA BLA BLA 
BLA BLA BLA BLA BLA BLA BLA BLA BLA BLA BLA BLA BLA BLA BLA BLA BLA BLA BLA BLA 
BLA BLA BLA BLA BLA BLA BLA BLA BLA BLA BLA BLA BLA BLA BLA BLA BLA BLA BLA BLA 
BLA BLA BLA BLA BLA BLA BLA BLA BLA BLA BLA BLA BLA BLA BLA BLA BLA BLA BLA BLA 
BLA BLA BLA BLA BLA BLA BLA BLA BLA BLA BLA BLA BLA BLA BLA BLA BLA BLA BLA BLA 
BLA BLA BLA BLA BLA BLA BLA BLA BLA BLA BLA BLA BLA BLA BLA BLA BLA BLA BLA BLA 
BLA BLA BLA BLA BLA BLA BLA BLA BLA BLA BLA BLA BLA BLA BLA BLA BLA BLA BLA BLA 
BLA BLA BLA BLA BLA BLA BLA BLA BLA BLA BLA BLA BLA BLA BLA BLA BLA BLA BLA BLA 
BLA BLA BLA BLA BLA BLA BLA BLA BLA BLA BLA BLA BLA BLA BLA BLA BLA BLA BLA BLA 
BLA BLA BLA BLA BLA BLA BLA BLA BLA BLA BLA BLA BLA BLA BLA BLA BLA BLA BLA BLA 
BLA BLA BLA BLA BLA BLA BLA BLA BLA BLA BLA BLA BLA BLA BLA BLA BLA BLA BLA BLA 
BLA BLA BLA BLA BLA BLA BLA BLA BLA BLA BLA BLA BLA BLA BLA BLA BLA BLA BLA BLA 
BLA BLA BLA BLA BLA BLA BLA BLA BLA BLA BLA BLA BLA BLA BLA BLA BLA BLA BLA BLA 
BLA BLA BLA BLA BLA BLA BLA BLA BLA BLA BLA BLA BLA BLA BLA BLA BLA BLA BLA BLA 
BLA BLA BLA BLA BLA BLA BLA BLA BLA BLA BLA BLA BLA BLA BLA BLA BLA BLA BLA BLA 
BLA BLA BLA BLA BLA BLA BLA BLA BLA BLA BLA BLA BLA BLA BLA BLA BLA BLA BLA BLA 
BLA BLA BLA BLA BLA BLA BLA BLA BLA BLA BLA BLA BLA BLA BLA BLA BLA BLA BLA BLA 
BLA BLA BLA BLA BLA BLA BLA BLA BLA BLA BLA BLA BLA BLA BLA BLA BLA BLA BLA BLA 
BLA BLA BLA BLA BLA BLA BLA BLA BLA BLA BLA BLA BLA BLA BLA BLA BLA BLA BLA BLA 
BLA BLA BLA BLA BLA BLA BLA BLA BLA BLA BLA BLA BLA BLA BLA BLA BLA BLA BLA BLA 
BLA BLA BLA BLA BLA BLA BLA BLA BLA BLA BLA BLA BLA BLA BLA BLA BLA BLA BLA BLA 
BLA BLA BLA BLA BLA BLA BLA BLA BLA BLA BLA BLA BLA BLA BLA BLA BLA BLA BLA BLA 
BLA BLA BLA BLA BLA BLA BLA BLA BLA BLA BLA BLA BLA BLA BLA BLA BLA BLA BLA BLA 
BLA BLA BLA BLA BLA BLA BLA BLA BLA BLA BLA BLA BLA BLA BLA BLA BLA BLA BLA BLA 
BLA BLA BLA BLA BLA BLA BLA BLA BLA BLA BLA BLA BLA BLA BLA BLA BLA BLA BLA BLA 
BLA BLA BLA BLA BLA BLA BLA BLA BLA BLA BLA BLA BLA BLA BLA BLA BLA BLA BLA BLA 
BLA BLA BLA BLA BLA BLA BLA BLA BLA BLA BLA BLA BLA BLA BLA BLA BLA BLA BLA BLA 
BLA BLA BLA BLA BLA BLA BLA BLA BLA BLA BLA BLA BLA BLA BLA BLA BLA BLA BLA BLA 
BLA BLA BLA BLA BLA BLA BLA BLA BLA BLA BLA BLA BLA BLA BLA BLA BLA BLA BLA BLA 
BLA BLA BLA BLA BLA BLA BLA BLA BLA BLA BLA BLA BLA BLA BLA BLA BLA BLA BLA BLA 
BLA BLA BLA BLA BLA BLA BLA BLA BLA BLA BLA BLA BLA BLA BLA BLA BLA BLA BLA BLA 
BLA BLA BLA BLA BLA BLA BLA BLA BLA BLA BLA BLA BLA BLA BLA BLA BLA BLA BLA BLA 
BLA BLA BLA BLA BLA BLA BLA BLA BLA BLA BLA BLA BLA BLA BLA BLA BLA BLA BLA BLA 
BLA BLA BLA BLA BLA BLA BLA BLA BLA BLA BLA BLA BLA BLA BLA BLA BLA BLA BLA BLA 
BLA BLA BLA BLA BLA BLA BLA BLA BLA BLA BLA BLA BLA BLA BLA BLA BLA BLA BLA BLA 
BLA BLA BLA BLA BLA BLA BLA BLA BLA BLA BLA BLA BLA BLA BLA BLA BLA BLA BLA BLA 
BLA BLA BLA BLA BLA BLA BLA BLA BLA BLA BLA BLA BLA BLA BLA BLA BLA BLA BLA BLA 
BLA BLA BLA BLA BLA BLA BLA BLA BLA BLA BLA BLA BLA BLA BLA BLA BLA BLA BLA BLA 
BLA BLA BLA BLA BLA BLA BLA BLA BLA BLA BLA BLA BLA BLA BLA BLA BLA BLA BLA BLA 
BLA BLA BLA BLA BLA BLA BLA BLA BLA BLA BLA BLA BLA BLA BLA BLA BLA BLA BLA BLA 
BLA BLA BLA BLA BLA BLA BLA BLA BLA BLA BLA BLA BLA BLA BLA BLA BLA BLA BLA BLA 
BLA BLA BLA BLA BLA BLA BLA BLA BLA BLA BLA BLA BLA BLA BLA BLA BLA BLA BLA BLA 
BLA BLA BLA BLA BLA BLA BLA BLA BLA BLA BLA BLA BLA BLA BLA BLA BLA BLA BLA BLA 
BLA BLA BLA BLA BLA BLA BLA BLA BLA BLA BLA BLA BLA BLA BLA BLA BLA BLA BLA BLA 
BLA BLA BLA BLA BLA BLA BLA BLA BLA BLA BLA BLA BLA BLA BLA BLA BLA BLA BLA BLA 
BLA BLA BLA BLA BLA BLA BLA BLA BLA BLA BLA BLA BLA BLA BLA BLA BLA BLA BLA BLA 
BLA BLA BLA BLA BLA BLA BLA BLA BLA BLA BLA BLA BLA BLA BLA BLA BLA BLA BLA BLA 
BLA BLA BLA BLA BLA BLA BLA BLA BLA BLA BLA BLA BLA BLA BLA BLA BLA BLA BLA BLA 
BLA BLA BLA BLA BLA BLA BLA BLA BLA BLA BLA BLA BLA BLA BLA BLA BLA BLA BLA BLA 
BLA BLA BLA BLA BLA BLA BLA BLA BLA BLA BLA BLA BLA BLA BLA BLA BLA BLA BLA BLA 
BLA BLA BLA BLA BLA BLA BLA BLA BLA BLA BLA BLA BLA BLA BLA BLA BLA BLA BLA BLA 
BLA BLA BLA BLA BLA BLA BLA BLA BLA BLA BLA BLA BLA BLA BLA BLA BLA BLA BLA BLA 
BLA BLA BLA BLA BLA BLA BLA BLA BLA BLA BLA BLA BLA BLA BLA BLA BLA BLA BLA BLA 
BLA BLA BLA BLA BLA BLA BLA BLA BLA BLA BLA BLA BLA BLA BLA BLA BLA BLA BLA BLA 
BLA BLA BLA BLA BLA BLA BLA BLA BLA BLA BLA BLA BLA BLA BLA BLA BLA BLA BLA BLA 
BLA BLA BLA BLA BLA BLA BLA BLA BLA BLA BLA BLA BLA BLA BLA BLA BLA BLA BLA BLA 
BLA BLA BLA BLA BLA BLA BLA BLA BLA BLA BLA BLA BLA BLA BLA BLA BLA BLA BLA BLA 
BLA BLA BLA BLA BLA BLA BLA BLA BLA BLA BLA BLA BLA BLA BLA BLA BLA BLA BLA BLA 
BLA BLA BLA BLA BLA BLA BLA BLA BLA BLA BLA BLA BLA BLA BLA BLA BLA BLA BLA BLA 
BLA BLA BLA BLA BLA BLA BLA BLA BLA BLA BLA BLA BLA BLA BLA BLA BLA BLA BLA BLA 
BLA BLA BLA BLA BLA BLA BLA BLA BLA BLA BLA BLA BLA BLA BLA BLA BLA BLA BLA BLA 
BLA BLA BLA BLA BLA BLA BLA BLA BLA BLA BLA BLA BLA BLA BLA BLA BLA BLA BLA BLA 
BLA BLA BLA BLA BLA BLA BLA BLA BLA BLA BLA BLA BLA BLA BLA BLA BLA BLA BLA BLA 
BLA BLA BLA BLA BLA BLA BLA BLA BLA BLA BLA BLA BLA BLA BLA BLA BLA BLA BLA BLA 
BLA BLA BLA BLA BLA BLA BLA BLA BLA BLA BLA BLA BLA BLA BLA BLA BLA BLA BLA BLA 
BLA BLA BLA BLA BLA BLA BLA BLA BLA BLA BLA BLA BLA BLA BLA BLA BLA BLA BLA BLA 
BLA BLA BLA BLA BLA BLA BLA BLA BLA BLA BLA BLA BLA BLA BLA BLA BLA BLA BLA BLA 
BLA BLA BLA BLA BLA BLA BLA BLA BLA BLA BLA BLA BLA BLA BLA BLA BLA BLA BLA BLA 
BLA BLA BLA BLA BLA BLA BLA BLA BLA BLA BLA BLA BLA BLA BLA BLA BLA BLA BLA BLA 
BLA BLA BLA BLA BLA BLA BLA BLA BLA BLA BLA BLA BLA BLA BLA BLA BLA BLA BLA BLA 
BLA BLA BLA BLA BLA BLA BLA BLA BLA BLA BLA BLA BLA BLA BLA BLA BLA BLA BLA BLA 
BLA BLA BLA BLA BLA BLA BLA BLA BLA BLA BLA BLA BLA BLA BLA BLA BLA BLA BLA BLA 
BLA BLA BLA BLA BLA BLA BLA BLA BLA BLA BLA BLA BLA BLA BLA BLA BLA BLA BLA BLA 
BLA BLA BLA BLA BLA BLA BLA BLA BLA BLA BLA BLA BLA BLA BLA BLA BLA BLA BLA BLA 
BLA BLA BLA BLA BLA BLA BLA BLA BLA BLA BLA BLA BLA BLA BLA BLA BLA BLA BLA BLA 
BLA BLA BLA BLA BLA BLA BLA BLA BLA BLA BLA BLA BLA BLA BLA BLA BLA BLA BLA BLA 
BLA BLA BLA BLA BLA BLA BLA BLA BLA BLA BLA BLA BLA BLA BLA BLA BLA BLA BLA BLA 
BLA BLA BLA BLA BLA BLA BLA BLA BLA BLA BLA BLA BLA BLA BLA BLA BLA BLA BLA BLA 
BLA BLA BLA BLA BLA BLA BLA BLA BLA BLA BLA BLA BLA BLA BLA BLA BLA BLA BLA BLA 
BLA BLA BLA BLA BLA BLA BLA BLA BLA BLA BLA BLA BLA BLA BLA BLA BLA BLA BLA BLA 
BLA BLA BLA BLA BLA BLA BLA BLA BLA BLA BLA BLA BLA BLA BLA BLA BLA BLA BLA BLA 
BLA BLA BLA BLA BLA BLA BLA BLA BLA BLA BLA BLA BLA BLA BLA BLA BLA BLA BLA BLA 
BLA BLA BLA BLA BLA BLA BLA BLA BLA BLA BLA BLA BLA BLA BLA BLA BLA BLA BLA BLA 
BLA BLA BLA BLA BLA BLA BLA BLA BLA BLA BLA BLA BLA BLA BLA BLA BLA BLA BLA BLA 
BLA BLA BLA BLA BLA BLA BLA BLA BLA BLA BLA BLA BLA BLA BLA BLA BLA BLA BLA BLA 
BLA BLA BLA BLA BLA BLA BLA BLA BLA BLA BLA BLA BLA BLA BLA BLA BLA BLA BLA BLA 
BLA BLA BLA BLA BLA BLA BLA BLA BLA BLA BLA BLA BLA BLA BLA BLA BLA BLA BLA BLA 
BLA BLA BLA BLA BLA BLA BLA BLA BLA BLA BLA BLA BLA BLA BLA BLA BLA BLA BLA BLA 
BLA BLA BLA BLA BLA BLA BLA BLA BLA BLA BLA BLA BLA BLA BLA BLA BLA BLA BLA BLA 
BLA BLA BLA BLA BLA BLA BLA BLA BLA BLA BLA BLA BLA BLA BLA BLA BLA BLA BLA BLA 
BLA BLA BLA BLA BLA BLA BLA BLA BLA BLA BLA BLA BLA BLA BLA BLA BLA BLA BLA BLA 
BLA BLA BLA BLA BLA BLA BLA BLA BLA BLA BLA BLA BLA BLA BLA BLA BLA BLA BLA BLA 
BLA BLA BLA BLA BLA BLA BLA BLA BLA BLA BLA BLA BLA BLA BLA BLA BLA BLA BLA BLA 
BLA BLA BLA BLA BLA BLA BLA BLA BLA BLA BLA BLA BLA BLA BLA BLA BLA BLA BLA BLA 
BLA BLA BLA BLA BLA BLA BLA BLA BLA BLA BLA BLA BLA BLA BLA BLA BLA BLA BLA BLA 
BLA BLA BLA BLA BLA BLA BLA BLA BLA BLA BLA BLA BLA BLA BLA BLA BLA BLA BLA BLA 
BLA BLA BLA BLA BLA BLA BLA BLA BLA BLA BLA BLA BLA BLA BLA BLA BLA BLA BLA BLA 
BLA BLA BLA BLA BLA BLA BLA BLA BLA BLA BLA BLA BLA BLA BLA BLA BLA BLA BLA BLA 
BLA BLA BLA BLA BLA BLA BLA BLA BLA BLA BLA BLA BLA BLA BLA BLA BLA BLA BLA BLA 
BLA BLA BLA BLA BLA BLA BLA BLA BLA BLA BLA BLA BLA BLA BLA BLA BLA BLA BLA BLA 
BLA BLA BLA BLA BLA BLA BLA BLA BLA BLA BLA BLA BLA BLA BLA BLA BLA BLA BLA BLA 
BLA BLA BLA BLA BLA BLA BLA BLA BLA BLA BLA BLA BLA BLA BLA BLA BLA BLA BLA BLA 
BLA BLA BLA BLA BLA BLA BLA BLA BLA BLA BLA BLA BLA BLA BLA BLA BLA BLA BLA BLA 
BLA BLA BLA BLA BLA BLA BLA BLA BLA BLA BLA BLA BLA BLA BLA BLA BLA BLA BLA BLA 
BLA BLA BLA BLA BLA BLA BLA BLA BLA BLA BLA BLA BLA BLA BLA BLA BLA BLA BLA BLA 
BLA BLA BLA BLA BLA BLA BLA BLA BLA BLA BLA BLA BLA BLA BLA BLA BLA BLA BLA BLA 
BLA BLA BLA BLA BLA BLA BLA BLA BLA BLA BLA BLA BLA BLA BLA BLA BLA BLA BLA BLA 
BLA BLA BLA BLA BLA BLA BLA BLA BLA BLA BLA BLA BLA BLA BLA BLA BLA BLA BLA BLA 
BLA BLA BLA BLA BLA BLA BLA BLA BLA BLA BLA BLA BLA BLA BLA BLA BLA BLA BLA BLA 
BLA BLA BLA BLA BLA BLA BLA BLA BLA BLA BLA BLA BLA BLA BLA BLA BLA BLA BLA BLA 
BLA BLA BLA BLA BLA BLA BLA BLA BLA BLA BLA BLA BLA BLA BLA BLA BLA BLA BLA BLA 
BLA BLA BLA BLA BLA BLA BLA BLA BLA BLA BLA BLA BLA BLA BLA BLA BLA BLA BLA BLA 
BLA BLA BLA BLA BLA BLA BLA BLA BLA BLA BLA BLA BLA BLA BLA BLA BLA BLA BLA BLA 
BLA BLA BLA BLA BLA BLA BLA BLA BLA BLA BLA BLA BLA BLA BLA BLA BLA BLA BLA BLA 
BLA BLA BLA BLA BLA BLA BLA BLA BLA BLA BLA BLA BLA BLA BLA BLA BLA BLA BLA BLA 
BLA BLA BLA BLA BLA BLA BLA BLA BLA BLA BLA BLA BLA BLA BLA BLA BLA BLA BLA BLA 
BLA BLA BLA BLA BLA BLA BLA BLA BLA BLA BLA BLA BLA BLA BLA BLA BLA BLA BLA BLA 
BLA BLA BLA BLA BLA BLA BLA BLA BLA BLA BLA BLA BLA BLA BLA BLA BLA BLA BLA BLA 
BLA BLA BLA BLA BLA BLA BLA BLA BLA BLA BLA BLA BLA BLA BLA BLA BLA BLA BLA BLA 
BLA BLA BLA BLA BLA BLA BLA BLA BLA BLA BLA BLA BLA BLA BLA BLA BLA BLA BLA BLA 
BLA BLA BLA BLA BLA BLA BLA BLA BLA BLA BLA BLA BLA BLA BLA BLA BLA BLA BLA BLA 
BLA BLA BLA BLA BLA BLA BLA BLA BLA BLA BLA BLA BLA BLA BLA BLA BLA BLA BLA BLA 
BLA BLA BLA BLA BLA BLA BLA BLA BLA BLA BLA BLA BLA BLA BLA BLA BLA BLA BLA BLA 
BLA BLA BLA BLA BLA BLA BLA BLA BLA BLA BLA BLA BLA BLA BLA BLA BLA BLA BLA BLA 
BLA BLA BLA BLA BLA BLA BLA BLA BLA BLA BLA BLA BLA BLA BLA BLA BLA BLA BLA BLA 
BLA BLA BLA BLA BLA BLA BLA BLA BLA BLA BLA BLA BLA BLA BLA BLA BLA BLA BLA BLA 
BLA BLA BLA BLA BLA BLA BLA BLA BLA BLA BLA BLA BLA BLA BLA BLA BLA BLA BLA BLA 
BLA BLA BLA BLA BLA BLA BLA BLA BLA BLA BLA BLA BLA BLA BLA BLA BLA BLA BLA BLA 
BLA BLA BLA BLA BLA BLA BLA BLA BLA BLA BLA BLA BLA BLA BLA BLA BLA BLA BLA BLA 
BLA BLA BLA BLA BLA BLA BLA BLA BLA BLA BLA BLA BLA BLA BLA BLA BLA BLA BLA BLA 
BLA BLA BLA BLA BLA BLA BLA BLA BLA BLA BLA BLA BLA BLA BLA BLA BLA BLA BLA BLA 
BLA BLA BLA BLA BLA BLA BLA BLA BLA BLA BLA BLA BLA BLA BLA BLA BLA BLA BLA BLA 
BLA BLA BLA BLA BLA BLA BLA BLA BLA BLA BLA BLA BLA BLA BLA BLA BLA BLA BLA BLA 
BLA BLA BLA BLA BLA BLA BLA BLA BLA BLA BLA BLA BLA BLA BLA BLA BLA BLA BLA BLA 
BLA BLA BLA BLA BLA BLA BLA BLA BLA BLA BLA BLA BLA BLA BLA BLA BLA BLA BLA BLA 
BLA BLA BLA BLA BLA BLA BLA BLA BLA BLA BLA BLA BLA BLA BLA BLA BLA BLA BLA BLA 
BLA BLA BLA BLA BLA BLA BLA BLA BLA BLA BLA BLA BLA BLA BLA BLA BLA BLA BLA BLA 
BLA BLA BLA BLA BLA BLA BLA BLA BLA BLA BLA BLA BLA BLA BLA BLA BLA BLA BLA BLA 
BLA BLA BLA BLA BLA BLA BLA BLA BLA BLA BLA BLA BLA BLA BLA BLA BLA BLA BLA BLA 
BLA BLA BLA BLA BLA BLA BLA BLA BLA BLA BLA BLA BLA BLA BLA BLA BLA BLA BLA BLA 
BLA BLA BLA BLA BLA BLA BLA BLA BLA BLA BLA BLA BLA BLA BLA BLA BLA BLA BLA BLA 
BLA BLA BLA BLA BLA BLA BLA BLA BLA BLA BLA BLA BLA BLA BLA BLA BLA BLA BLA BLA 
BLA BLA BLA BLA BLA BLA BLA BLA BLA BLA BLA BLA BLA BLA BLA BLA BLA BLA BLA BLA 
BLA BLA BLA BLA BLA BLA BLA BLA BLA BLA BLA BLA BLA BLA BLA BLA BLA BLA BLA BLA 
BLA BLA BLA BLA BLA BLA BLA BLA BLA BLA BLA BLA BLA BLA BLA BLA BLA BLA BLA BLA 
BLA BLA BLA BLA BLA BLA BLA BLA BLA BLA BLA BLA BLA BLA BLA BLA BLA BLA BLA BLA 
BLA BLA BLA BLA BLA BLA BLA BLA BLA BLA BLA BLA BLA BLA BLA BLA BLA BLA BLA BLA 
BLA BLA BLA BLA BLA BLA BLA BLA BLA BLA BLA BLA BLA BLA BLA BLA BLA BLA BLA BLA 
BLA BLA BLA BLA BLA BLA BLA BLA BLA BLA BLA BLA BLA BLA BLA BLA BLA BLA BLA BLA 
BLA BLA BLA BLA BLA BLA BLA BLA BLA BLA BLA BLA BLA BLA BLA BLA BLA BLA BLA BLA 
BLA BLA BLA BLA BLA BLA BLA BLA BLA BLA BLA BLA BLA BLA BLA BLA BLA BLA BLA BLA 
BLA BLA BLA BLA BLA BLA BLA BLA BLA BLA BLA BLA BLA BLA BLA BLA BLA BLA BLA BLA 
BLA BLA BLA BLA BLA BLA BLA BLA BLA BLA BLA BLA BLA BLA BLA BLA BLA BLA BLA BLA 
BLA BLA BLA BLA BLA BLA BLA BLA BLA BLA BLA BLA BLA BLA BLA BLA BLA BLA BLA BLA 
BLA BLA BLA BLA BLA BLA BLA BLA BLA BLA BLA BLA BLA BLA BLA BLA BLA BLA BLA BLA 
BLA BLA BLA BLA BLA BLA BLA BLA BLA BLA BLA BLA BLA BLA BLA BLA BLA BLA BLA BLA 
BLA BLA BLA BLA BLA BLA BLA BLA BLA BLA BLA BLA BLA BLA BLA BLA BLA BLA BLA BLA 
BLA BLA BLA BLA BLA BLA BLA BLA BLA BLA BLA BLA BLA BLA BLA BLA BLA BLA BLA BLA 
BLA BLA BLA BLA BLA BLA BLA BLA BLA BLA BLA BLA BLA BLA BLA BLA BLA BLA BLA BLA 
BLA BLA BLA BLA BLA BLA BLA BLA BLA BLA BLA BLA BLA BLA BLA BLA BLA BLA BLA BLA 
BLA BLA BLA BLA BLA BLA BLA BLA BLA BLA BLA BLA BLA BLA BLA BLA BLA BLA BLA BLA 
BLA BLA BLA BLA BLA BLA BLA BLA BLA BLA BLA BLA BLA BLA BLA BLA BLA BLA BLA BLA 
BLA BLA BLA BLA BLA BLA BLA BLA BLA BLA BLA BLA BLA BLA BLA BLA BLA BLA BLA BLA 
BLA BLA BLA BLA BLA BLA BLA BLA BLA BLA BLA BLA BLA BLA BLA BLA BLA BLA BLA BLA 
BLA BLA BLA BLA BLA BLA BLA BLA BLA BLA BLA BLA BLA BLA BLA BLA BLA BLA BLA BLA 
BLA BLA BLA BLA BLA BLA BLA BLA BLA BLA BLA BLA BLA BLA BLA BLA BLA BLA BLA BLA 
BLA BLA BLA BLA BLA BLA BLA BLA BLA BLA BLA BLA BLA BLA BLA BLA BLA BLA BLA BLA 
BLA BLA BLA BLA BLA BLA BLA BLA BLA BLA BLA BLA BLA BLA BLA BLA BLA BLA BLA BLA 
BLA BLA BLA BLA BLA BLA BLA BLA BLA BLA BLA BLA BLA BLA BLA BLA BLA BLA BLA BLA 
BLA BLA BLA BLA BLA BLA BLA BLA BLA BLA BLA BLA BLA BLA BLA BLA BLA BLA BLA BLA 
BLA BLA BLA BLA BLA BLA BLA BLA BLA BLA BLA BLA BLA BLA BLA BLA BLA BLA BLA BLA 
BLA BLA BLA BLA BLA BLA BLA BLA BLA BLA BLA BLA BLA BLA BLA BLA BLA BLA BLA BLA 
BLA BLA BLA BLA BLA BLA BLA BLA BLA BLA BLA BLA BLA BLA BLA BLA BLA BLA BLA BLA 
BLA BLA BLA BLA BLA BLA BLA BLA BLA BLA BLA BLA BLA BLA BLA BLA BLA BLA BLA BLA 
BLA BLA BLA BLA BLA BLA BLA BLA BLA BLA BLA BLA BLA BLA BLA BLA BLA BLA BLA BLA 
BLA BLA BLA BLA BLA BLA BLA BLA BLA BLA BLA BLA BLA BLA BLA BLA BLA BLA BLA BLA 
BLA BLA BLA BLA BLA BLA BLA BLA BLA BLA BLA BLA BLA BLA BLA BLA BLA BLA BLA BLA 
BLA BLA BLA BLA BLA BLA BLA BLA BLA BLA BLA BLA BLA BLA BLA BLA BLA BLA BLA BLA 
BLA BLA BLA BLA BLA BLA BLA BLA BLA BLA BLA BLA BLA BLA BLA BLA BLA BLA BLA BLA 
BLA BLA BLA BLA BLA BLA BLA BLA BLA BLA BLA BLA BLA BLA BLA BLA BLA BLA BLA BLA 
BLA BLA BLA BLA BLA BLA BLA BLA BLA BLA BLA BLA BLA BLA BLA BLA BLA BLA BLA BLA 
BLA BLA BLA BLA BLA BLA BLA BLA BLA BLA BLA BLA BLA BLA BLA BLA BLA BLA BLA BLA 
BLA BLA BLA BLA BLA BLA BLA BLA BLA BLA BLA BLA BLA BLA BLA BLA BLA BLA BLA BLA 
BLA BLA BLA BLA BLA BLA BLA BLA BLA BLA BLA BLA BLA BLA BLA BLA BLA BLA BLA BLA 
BLA BLA BLA BLA BLA BLA BLA BLA BLA BLA BLA BLA BLA BLA BLA BLA BLA BLA BLA BLA 
BLA BLA BLA BLA BLA BLA BLA BLA BLA BLA BLA BLA BLA BLA BLA BLA BLA BLA BLA BLA 
BLA BLA BLA BLA BLA BLA BLA BLA BLA BLA BLA BLA BLA BLA BLA BLA BLA BLA BLA BLA 
BLA BLA BLA BLA BLA BLA BLA BLA BLA BLA BLA BLA BLA BLA BLA BLA BLA BLA BLA BLA 
BLA BLA BLA BLA BLA BLA BLA BLA BLA BLA BLA BLA BLA BLA BLA BLA BLA BLA BLA BLA 
BLA BLA BLA BLA BLA BLA BLA BLA BLA BLA BLA BLA BLA BLA BLA BLA BLA BLA BLA BLA 
BLA BLA BLA BLA BLA BLA BLA BLA BLA BLA BLA BLA BLA BLA BLA BLA BLA BLA BLA BLA 
BLA BLA BLA BLA BLA BLA BLA BLA BLA BLA BLA BLA BLA BLA BLA BLA BLA BLA BLA BLA 
BLA BLA BLA BLA BLA BLA BLA BLA BLA BLA BLA BLA BLA BLA BLA BLA BLA BLA BLA BLA 
BLA BLA BLA BLA BLA BLA BLA BLA BLA BLA BLA BLA BLA BLA BLA BLA BLA BLA BLA BLA 
BLA BLA BLA BLA BLA BLA BLA BLA BLA BLA BLA BLA BLA BLA BLA BLA BLA BLA BLA BLA 
BLA BLA BLA BLA BLA BLA BLA BLA BLA BLA BLA BLA BLA BLA BLA BLA BLA BLA BLA BLA 
BLA BLA BLA BLA BLA BLA BLA BLA BLA BLA BLA BLA BLA BLA BLA BLA BLA BLA BLA BLA 
BLA BLA BLA BLA BLA BLA BLA BLA BLA BLA BLA BLA BLA BLA BLA BLA BLA BLA BLA BLA 
BLA BLA BLA BLA BLA BLA BLA BLA BLA BLA BLA BLA BLA BLA BLA BLA BLA BLA BLA BLA 
BLA BLA BLA BLA BLA BLA BLA BLA BLA BLA BLA BLA BLA BLA BLA BLA BLA BLA BLA BLA 
BLA BLA BLA BLA BLA BLA BLA BLA BLA BLA BLA BLA BLA BLA BLA BLA BLA BLA BLA BLA 
BLA BLA BLA BLA BLA BLA BLA BLA BLA BLA BLA BLA BLA BLA BLA BLA BLA BLA BLA BLA 
BLA BLA BLA BLA BLA BLA BLA BLA BLA BLA BLA BLA BLA BLA BLA BLA BLA BLA BLA BLA 
BLA BLA BLA BLA BLA BLA BLA BLA BLA BLA BLA BLA BLA BLA BLA BLA BLA BLA BLA BLA 
BLA BLA BLA BLA BLA BLA BLA BLA BLA BLA BLA BLA BLA BLA BLA BLA BLA BLA BLA BLA 
BLA BLA BLA BLA BLA BLA BLA BLA BLA BLA BLA BLA BLA BLA BLA BLA BLA BLA BLA BLA 
BLA BLA BLA BLA BLA BLA BLA BLA BLA BLA BLA BLA BLA BLA BLA BLA BLA BLA BLA BLA 
BLA BLA BLA BLA BLA BLA BLA BLA BLA BLA BLA BLA BLA BLA BLA BLA BLA BLA BLA BLA 
BLA BLA BLA BLA BLA BLA BLA BLA BLA BLA BLA BLA BLA BLA BLA BLA BLA BLA BLA BLA 
BLA BLA BLA BLA BLA BLA BLA BLA BLA BLA BLA BLA BLA BLA BLA BLA BLA BLA BLA BLA 
BLA BLA BLA BLA BLA BLA BLA BLA BLA BLA BLA BLA BLA BLA BLA BLA BLA BLA BLA BLA 
BLA BLA BLA BLA BLA BLA BLA BLA BLA BLA BLA BLA BLA BLA BLA BLA BLA BLA BLA BLA 
BLA BLA BLA BLA BLA BLA BLA BLA BLA BLA BLA BLA BLA BLA BLA BLA BLA BLA BLA BLA 
BLA BLA BLA BLA BLA BLA BLA BLA BLA BLA BLA BLA BLA BLA BLA BLA BLA BLA BLA BLA 
BLA BLA BLA BLA BLA BLA BLA BLA BLA BLA BLA BLA BLA BLA BLA BLA BLA BLA BLA BLA 
BLA BLA BLA BLA BLA BLA BLA BLA BLA BLA BLA BLA BLA BLA BLA BLA BLA BLA BLA BLA 
BLA BLA BLA BLA BLA BLA BLA BLA BLA BLA BLA BLA BLA BLA BLA BLA BLA BLA BLA BLA 
BLA BLA BLA BLA BLA BLA BLA BLA BLA BLA BLA BLA BLA BLA BLA BLA BLA BLA BLA BLA 
BLA BLA BLA BLA BLA BLA BLA BLA BLA BLA BLA BLA BLA BLA BLA BLA BLA BLA BLA BLA 
BLA BLA BLA BLA BLA BLA BLA BLA BLA BLA BLA BLA BLA BLA BLA BLA BLA BLA BLA BLA 
BLA BLA BLA BLA BLA BLA BLA BLA BLA BLA BLA BLA BLA BLA BLA BLA BLA BLA BLA BLA 
BLA BLA BLA BLA BLA BLA BLA BLA BLA BLA BLA BLA BLA BLA BLA BLA BLA BLA BLA BLA 
BLA BLA BLA BLA BLA BLA BLA BLA BLA BLA BLA BLA BLA BLA BLA BLA BLA BLA BLA BLA 
BLA BLA BLA BLA BLA BLA BLA BLA BLA BLA BLA BLA BLA BLA BLA BLA BLA BLA BLA BLA 
BLA BLA BLA BLA BLA BLA BLA BLA BLA BLA BLA BLA BLA BLA BLA BLA BLA BLA BLA BLA 
BLA BLA BLA BLA BLA BLA BLA BLA BLA BLA BLA BLA BLA BLA BLA BLA BLA BLA BLA BLA 
BLA BLA BLA BLA BLA BLA BLA BLA BLA BLA BLA BLA BLA BLA BLA BLA BLA BLA BLA BLA 
BLA BLA BLA BLA BLA BLA BLA BLA BLA BLA BLA BLA BLA BLA BLA BLA BLA BLA BLA BLA 
BLA BLA BLA BLA BLA BLA BLA BLA BLA BLA BLA BLA BLA BLA BLA BLA BLA BLA BLA BLA 
BLA BLA BLA BLA BLA BLA BLA BLA BLA BLA BLA BLA BLA BLA BLA BLA BLA BLA BLA BLA 
BLA BLA BLA BLA BLA BLA BLA BLA BLA BLA BLA BLA BLA BLA BLA BLA BLA BLA BLA BLA 
BLA BLA BLA BLA BLA BLA BLA BLA BLA BLA BLA BLA BLA BLA BLA BLA BLA BLA BLA BLA 
BLA BLA BLA BLA BLA BLA BLA BLA BLA BLA BLA BLA BLA BLA BLA BLA BLA BLA BLA BLA 
BLA BLA BLA BLA BLA BLA BLA BLA BLA BLA BLA BLA BLA BLA BLA BLA BLA BLA BLA BLA 
BLA BLA BLA BLA BLA BLA BLA BLA BLA BLA BLA BLA BLA BLA BLA BLA BLA BLA BLA BLA 
BLA BLA BLA BLA BLA BLA BLA BLA BLA BLA BLA BLA BLA BLA BLA BLA BLA BLA BLA BLA 
BLA BLA BLA BLA BLA BLA BLA BLA BLA BLA BLA BLA BLA BLA BLA BLA BLA BLA BLA BLA 
BLA BLA BLA BLA BLA BLA BLA BLA BLA BLA BLA BLA BLA BLA BLA BLA BLA BLA BLA BLA 
BLA BLA BLA BLA BLA BLA BLA BLA BLA BLA BLA BLA BLA BLA BLA BLA BLA BLA BLA BLA 
BLA BLA BLA BLA BLA BLA BLA BLA BLA BLA BLA BLA BLA BLA BLA BLA BLA BLA BLA BLA 
BLA BLA BLA BLA BLA BLA BLA BLA BLA BLA BLA BLA BLA BLA BLA BLA BLA BLA BLA BLA 
BLA BLA BLA BLA BLA BLA BLA BLA BLA BLA BLA BLA BLA BLA BLA BLA BLA BLA BLA BLA 
BLA BLA BLA BLA BLA BLA BLA BLA BLA BLA BLA BLA BLA BLA BLA BLA BLA BLA BLA BLA 
BLA BLA BLA BLA BLA BLA BLA BLA BLA BLA BLA BLA BLA BLA BLA BLA BLA BLA BLA BLA 
BLA BLA BLA BLA BLA BLA BLA BLA BLA BLA BLA BLA BLA BLA BLA BLA BLA BLA BLA BLA 
BLA BLA BLA BLA BLA BLA BLA BLA BLA BLA BLA BLA BLA BLA BLA BLA BLA BLA BLA BLA 
BLA BLA BLA BLA BLA BLA BLA BLA BLA BLA BLA BLA BLA BLA BLA BLA BLA BLA BLA BLA 
BLA BLA BLA BLA BLA BLA BLA BLA BLA BLA BLA BLA BLA BLA BLA BLA BLA BLA BLA BLA 
BLA BLA BLA BLA BLA BLA BLA BLA BLA BLA BLA BLA BLA BLA BLA BLA BLA BLA BLA BLA 
BLA BLA BLA BLA BLA BLA BLA BLA BLA BLA BLA BLA BLA BLA BLA BLA BLA BLA BLA BLA 
BLA BLA BLA BLA BLA BLA BLA BLA BLA BLA BLA BLA BLA BLA BLA BLA BLA BLA BLA BLA 
BLA BLA BLA BLA BLA BLA BLA BLA BLA BLA BLA BLA BLA BLA BLA BLA BLA BLA BLA BLA 
BLA BLA BLA BLA BLA BLA BLA BLA BLA BLA BLA BLA BLA BLA BLA BLA BLA BLA BLA BLA 
BLA BLA BLA BLA BLA BLA BLA BLA BLA BLA BLA BLA BLA BLA BLA BLA BLA BLA BLA BLA 
BLA BLA BLA BLA BLA BLA BLA BLA BLA BLA BLA BLA BLA BLA BLA BLA BLA BLA BLA BLA 
BLA BLA BLA BLA BLA BLA BLA BLA BLA BLA BLA BLA BLA BLA BLA BLA BLA BLA BLA BLA 
BLA BLA BLA BLA BLA BLA BLA BLA BLA BLA BLA BLA BLA BLA BLA BLA BLA BLA BLA BLA 
BLA BLA BLA BLA BLA BLA BLA BLA BLA BLA BLA BLA BLA BLA BLA BLA BLA BLA BLA BLA 
BLA BLA BLA BLA BLA BLA BLA BLA BLA BLA BLA BLA BLA BLA BLA BLA BLA BLA BLA BLA 
BLA BLA BLA BLA BLA BLA BLA BLA BLA BLA BLA BLA BLA BLA BLA BLA BLA BLA BLA BLA 
BLA BLA BLA BLA BLA BLA BLA BLA BLA BLA BLA BLA BLA BLA BLA BLA BLA BLA BLA BLA 
BLA BLA BLA BLA BLA BLA BLA BLA BLA BLA BLA BLA BLA BLA BLA BLA BLA BLA BLA BLA 
BLA BLA BLA BLA BLA BLA BLA BLA BLA BLA BLA BLA BLA BLA BLA BLA BLA BLA BLA BLA 
BLA BLA BLA BLA BLA BLA BLA BLA BLA BLA BLA BLA BLA BLA BLA BLA BLA BLA BLA BLA 
BLA BLA BLA BLA BLA BLA BLA BLA BLA BLA BLA BLA BLA BLA BLA BLA BLA BLA BLA BLA 
BLA BLA BLA BLA BLA BLA BLA BLA BLA BLA BLA BLA BLA BLA BLA BLA BLA BLA BLA BLA 
BLA BLA BLA BLA BLA BLA BLA BLA BLA BLA BLA BLA BLA BLA BLA BLA BLA BLA BLA BLA 
BLA BLA BLA BLA BLA BLA BLA BLA BLA BLA BLA BLA BLA BLA BLA BLA BLA BLA BLA BLA 
BLA BLA BLA BLA BLA BLA BLA BLA BLA BLA BLA BLA BLA BLA BLA BLA BLA BLA BLA BLA 
BLA BLA BLA BLA BLA BLA BLA BLA BLA BLA BLA BLA BLA BLA BLA BLA BLA BLA BLA BLA 
BLA BLA BLA BLA BLA BLA BLA BLA BLA BLA BLA BLA BLA BLA BLA BLA BLA BLA BLA BLA 
BLA BLA BLA BLA BLA BLA BLA BLA BLA BLA BLA BLA BLA BLA BLA BLA BLA BLA BLA BLA 
BLA BLA BLA BLA BLA BLA BLA BLA BLA BLA BLA BLA BLA BLA BLA BLA BLA BLA BLA BLA 
BLA BLA BLA BLA BLA BLA BLA BLA BLA BLA BLA BLA BLA BLA BLA BLA BLA BLA BLA BLA 
BLA BLA BLA BLA BLA BLA BLA BLA BLA BLA BLA BLA BLA BLA BLA BLA BLA BLA BLA BLA 
BLA BLA BLA BLA BLA BLA BLA BLA BLA BLA BLA BLA BLA BLA BLA BLA BLA BLA BLA BLA 
BLA BLA BLA BLA BLA BLA BLA BLA BLA BLA BLA BLA BLA BLA BLA BLA BLA BLA BLA BLA 
BLA BLA BLA BLA BLA BLA BLA BLA BLA BLA BLA BLA BLA BLA BLA BLA BLA BLA BLA BLA 
BLA BLA BLA BLA BLA BLA BLA BLA BLA BLA BLA BLA BLA BLA BLA BLA BLA BLA BLA BLA 
BLA BLA BLA BLA BLA BLA BLA BLA BLA BLA BLA BLA BLA BLA BLA BLA BLA BLA BLA BLA 
BLA BLA BLA BLA BLA BLA BLA BLA BLA BLA BLA BLA BLA BLA BLA BLA BLA BLA BLA BLA 
BLA BLA BLA BLA BLA BLA BLA BLA BLA BLA BLA BLA BLA BLA BLA BLA BLA BLA BLA BLA 
BLA BLA BLA BLA BLA BLA BLA BLA BLA BLA BLA BLA BLA BLA BLA BLA BLA BLA BLA BLA 
BLA BLA BLA BLA BLA BLA BLA BLA BLA BLA BLA BLA BLA BLA BLA BLA BLA BLA BLA BLA 
BLA BLA BLA BLA BLA BLA BLA BLA BLA BLA BLA BLA BLA BLA BLA BLA BLA BLA BLA BLA 
BLA BLA BLA BLA BLA BLA BLA BLA BLA BLA BLA BLA BLA BLA BLA BLA BLA BLA BLA BLA 
BLA BLA BLA BLA BLA BLA BLA BLA BLA BLA BLA BLA BLA BLA BLA BLA BLA BLA BLA BLA 
BLA BLA BLA BLA BLA BLA BLA BLA BLA BLA BLA BLA BLA BLA BLA BLA BLA BLA BLA BLA 
BLA BLA BLA BLA BLA BLA BLA BLA BLA BLA BLA BLA BLA BLA BLA BLA BLA BLA BLA BLA 
BLA BLA BLA BLA BLA BLA BLA BLA BLA BLA BLA BLA BLA BLA BLA BLA BLA BLA BLA BLA 
BLA BLA BLA BLA BLA BLA BLA BLA BLA BLA BLA BLA BLA BLA BLA BLA BLA BLA BLA BLA 
BLA BLA BLA BLA BLA BLA BLA BLA BLA BLA BLA BLA BLA BLA BLA BLA BLA BLA BLA BLA 
BLA BLA BLA BLA BLA BLA BLA BLA BLA BLA BLA BLA BLA BLA BLA BLA BLA BLA BLA BLA 
BLA BLA BLA BLA BLA BLA BLA BLA BLA BLA BLA BLA BLA BLA BLA BLA BLA BLA BLA BLA 
BLA BLA BLA BLA BLA BLA BLA BLA BLA BLA BLA BLA BLA BLA BLA BLA BLA BLA BLA BLA 
BLA BLA BLA BLA BLA BLA BLA BLA BLA BLA BLA BLA BLA BLA BLA BLA BLA BLA BLA BLA 
BLA BLA BLA BLA BLA BLA BLA BLA BLA BLA BLA BLA BLA BLA BLA BLA BLA BLA BLA BLA 
BLA BLA BLA BLA BLA BLA BLA BLA BLA BLA BLA BLA BLA BLA BLA BLA BLA BLA BLA BLA 
BLA BLA BLA BLA BLA BLA BLA BLA BLA BLA BLA BLA BLA BLA BLA BLA BLA BLA BLA BLA 
BLA BLA BLA BLA BLA BLA BLA BLA BLA BLA BLA BLA BLA BLA BLA BLA BLA BLA BLA BLA 
BLA BLA BLA BLA BLA BLA BLA BLA BLA BLA BLA BLA BLA BLA BLA BLA BLA BLA BLA BLA 
BLA BLA BLA BLA BLA BLA BLA BLA BLA BLA BLA BLA BLA BLA BLA BLA BLA BLA BLA BLA 
BLA BLA BLA BLA BLA BLA BLA BLA BLA BLA BLA BLA BLA BLA BLA BLA BLA BLA BLA BLA 
BLA BLA BLA BLA BLA BLA BLA BLA BLA BLA BLA BLA BLA BLA BLA BLA BLA BLA BLA BLA 
BLA BLA BLA BLA BLA BLA BLA BLA BLA BLA BLA BLA BLA BLA BLA BLA BLA BLA BLA BLA 
BLA BLA BLA BLA BLA BLA BLA BLA BLA BLA BLA BLA BLA BLA BLA BLA BLA BLA BLA BLA 
BLA BLA BLA BLA BLA BLA BLA BLA BLA BLA BLA BLA BLA BLA BLA BLA BLA BLA BLA BLA 
BLA BLA BLA BLA BLA BLA BLA BLA BLA BLA BLA BLA BLA BLA BLA BLA BLA BLA BLA BLA 
BLA BLA BLA BLA BLA BLA BLA BLA BLA BLA BLA BLA BLA BLA BLA BLA BLA BLA BLA BLA 
BLA BLA BLA BLA BLA BLA BLA BLA BLA BLA BLA BLA BLA BLA BLA BLA BLA BLA BLA BLA 
BLA BLA BLA BLA BLA BLA BLA BLA BLA BLA BLA BLA BLA BLA BLA BLA BLA BLA BLA BLA 
BLA BLA BLA BLA BLA BLA BLA BLA BLA BLA BLA BLA BLA BLA BLA BLA BLA BLA BLA BLA 
BLA BLA BLA BLA BLA BLA BLA BLA BLA BLA BLA BLA BLA BLA BLA BLA BLA BLA BLA BLA 
BLA BLA BLA BLA BLA BLA BLA BLA BLA BLA BLA BLA BLA BLA BLA BLA BLA BLA BLA BLA 
BLA BLA BLA BLA BLA BLA BLA BLA BLA BLA BLA BLA BLA BLA BLA BLA BLA BLA BLA BLA 
BLA BLA BLA BLA BLA BLA BLA BLA BLA BLA BLA BLA BLA BLA BLA BLA BLA BLA BLA BLA 
BLA BLA BLA BLA BLA BLA BLA BLA BLA BLA BLA BLA BLA BLA BLA BLA BLA BLA BLA BLA 
BLA BLA BLA BLA BLA BLA BLA BLA BLA BLA BLA BLA BLA BLA BLA BLA BLA BLA BLA BLA 
BLA BLA BLA BLA BLA BLA BLA BLA BLA BLA BLA BLA BLA BLA BLA BLA BLA BLA BLA BLA 
BLA BLA BLA BLA BLA BLA BLA BLA BLA BLA BLA BLA BLA BLA BLA BLA BLA BLA BLA BLA 
BLA BLA BLA BLA BLA BLA BLA BLA BLA BLA BLA BLA BLA BLA BLA BLA BLA BLA BLA BLA 
BLA BLA BLA BLA BLA BLA BLA BLA BLA BLA BLA BLA BLA BLA BLA BLA BLA BLA BLA BLA 
BLA BLA BLA BLA BLA BLA BLA BLA BLA BLA BLA BLA BLA BLA BLA BLA BLA BLA BLA BLA 
BLA BLA BLA BLA BLA BLA BLA BLA BLA BLA BLA BLA BLA BLA BLA BLA BLA BLA BLA BLA 
BLA BLA BLA BLA BLA BLA BLA BLA BLA BLA BLA BLA BLA BLA BLA BLA BLA BLA BLA BLA 
BLA BLA BLA BLA BLA BLA BLA BLA BLA BLA BLA BLA BLA BLA BLA BLA BLA BLA BLA BLA 
BLA BLA BLA BLA BLA BLA BLA BLA BLA BLA BLA BLA BLA BLA BLA BLA BLA BLA BLA BLA 
BLA BLA BLA BLA BLA BLA BLA BLA BLA BLA BLA BLA BLA BLA BLA BLA BLA BLA BLA BLA 
BLA BLA BLA BLA BLA BLA BLA BLA BLA BLA BLA BLA BLA BLA BLA BLA BLA BLA BLA BLA 
BLA BLA BLA BLA BLA BLA BLA BLA BLA BLA BLA BLA BLA BLA BLA BLA BLA BLA BLA BLA 
BLA BLA BLA BLA BLA BLA BLA BLA BLA BLA BLA BLA BLA BLA BLA BLA BLA BLA BLA BLA 
BLA BLA BLA BLA BLA BLA BLA BLA BLA BLA BLA BLA BLA BLA BLA BLA BLA BLA BLA BLA 
BLA BLA BLA BLA BLA BLA BLA BLA BLA BLA BLA BLA BLA BLA BLA BLA BLA BLA BLA BLA 
BLA BLA BLA BLA BLA BLA BLA BLA BLA BLA BLA BLA BLA BLA BLA BLA BLA BLA BLA BLA 
BLA BLA BLA BLA BLA BLA BLA BLA BLA BLA BLA BLA BLA BLA BLA BLA BLA BLA BLA BLA 
BLA BLA BLA BLA BLA BLA BLA BLA BLA BLA BLA BLA BLA BLA BLA BLA BLA BLA BLA BLA 
BLA BLA BLA BLA BLA BLA BLA BLA BLA BLA BLA BLA BLA BLA BLA BLA BLA BLA BLA BLA 
BLA BLA BLA BLA BLA BLA BLA BLA BLA BLA BLA BLA BLA BLA BLA BLA BLA BLA BLA BLA 
BLA BLA BLA BLA BLA BLA BLA BLA BLA BLA BLA BLA BLA BLA BLA BLA BLA BLA BLA BLA 
BLA BLA BLA BLA BLA BLA BLA BLA BLA BLA BLA BLA BLA BLA BLA BLA BLA BLA BLA BLA 
BLA BLA BLA BLA BLA BLA BLA BLA BLA BLA BLA BLA BLA BLA BLA BLA BLA BLA BLA BLA 
BLA BLA BLA BLA BLA BLA BLA BLA BLA BLA BLA BLA BLA BLA BLA BLA BLA BLA BLA BLA 
BLA BLA BLA BLA BLA BLA BLA BLA BLA BLA BLA BLA BLA BLA BLA BLA BLA BLA BLA BLA 
BLA BLA BLA BLA BLA BLA BLA BLA BLA BLA BLA BLA BLA BLA BLA BLA BLA BLA BLA BLA 
BLA BLA BLA BLA BLA BLA BLA BLA BLA BLA BLA BLA BLA BLA BLA BLA BLA BLA BLA BLA 
BLA BLA BLA BLA BLA BLA BLA BLA BLA BLA BLA BLA BLA BLA BLA BLA BLA BLA BLA BLA 
BLA BLA BLA BLA BLA BLA BLA BLA BLA BLA BLA BLA BLA BLA BLA BLA BLA BLA BLA BLA 
BLA BLA BLA BLA BLA BLA BLA BLA BLA BLA BLA BLA BLA BLA BLA BLA BLA BLA BLA BLA 
BLA BLA BLA BLA BLA BLA BLA BLA BLA BLA BLA BLA BLA BLA BLA BLA BLA BLA BLA BLA 
BLA BLA BLA BLA BLA BLA BLA BLA BLA BLA BLA BLA BLA BLA BLA BLA BLA BLA BLA BLA 
BLA BLA BLA BLA BLA BLA BLA BLA BLA BLA BLA BLA BLA BLA BLA BLA BLA BLA BLA BLA 
BLA BLA BLA BLA BLA BLA BLA BLA BLA BLA BLA BLA BLA BLA BLA BLA BLA BLA BLA BLA 
BLA BLA BLA BLA BLA BLA BLA BLA BLA BLA BLA BLA BLA BLA BLA BLA BLA BLA BLA BLA 
BLA BLA BLA BLA BLA BLA BLA BLA BLA BLA BLA BLA BLA BLA BLA BLA BLA BLA BLA BLA 
BLA BLA BLA BLA BLA BLA BLA BLA BLA BLA BLA BLA BLA BLA BLA BLA BLA BLA BLA BLA 
BLA BLA BLA BLA BLA BLA BLA BLA BLA BLA BLA BLA BLA BLA BLA BLA BLA BLA BLA BLA 
BLA BLA BLA BLA BLA BLA BLA BLA BLA BLA BLA BLA BLA BLA BLA BLA BLA BLA BLA BLA 
BLA BLA BLA BLA BLA BLA BLA BLA BLA BLA BLA BLA BLA BLA BLA BLA BLA BLA BLA BLA 
BLA BLA BLA BLA BLA BLA BLA BLA BLA BLA BLA BLA BLA BLA BLA BLA BLA BLA BLA BLA 
BLA BLA BLA BLA BLA BLA BLA BLA BLA BLA BLA BLA BLA BLA BLA BLA BLA BLA BLA BLA 
BLA BLA BLA BLA BLA BLA BLA BLA BLA BLA BLA BLA BLA BLA BLA BLA BLA BLA BLA BLA 
BLA BLA BLA BLA BLA BLA BLA BLA BLA BLA BLA BLA BLA BLA BLA BLA BLA BLA BLA BLA 
BLA BLA BLA BLA BLA BLA BLA BLA BLA BLA BLA BLA BLA BLA BLA BLA BLA BLA BLA BLA 
BLA BLA BLA BLA BLA BLA BLA BLA BLA BLA BLA BLA BLA BLA BLA BLA BLA BLA BLA BLA 
BLA BLA BLA BLA BLA BLA BLA BLA BLA BLA BLA BLA BLA BLA BLA BLA BLA BLA BLA BLA 
BLA BLA BLA BLA BLA BLA BLA BLA BLA BLA BLA BLA BLA BLA BLA BLA BLA BLA BLA BLA 
BLA BLA BLA BLA BLA BLA BLA BLA BLA BLA BLA BLA BLA BLA BLA BLA BLA BLA BLA BLA 
BLA BLA BLA BLA BLA BLA BLA BLA BLA BLA BLA BLA BLA BLA BLA BLA BLA BLA BLA BLA 
BLA BLA BLA BLA BLA BLA BLA BLA BLA BLA BLA BLA BLA BLA BLA BLA BLA BLA BLA BLA 
BLA BLA BLA BLA BLA BLA BLA BLA BLA BLA BLA BLA BLA BLA BLA BLA BLA BLA BLA BLA 
BLA BLA BLA BLA BLA BLA BLA BLA BLA BLA BLA BLA BLA BLA BLA BLA BLA BLA BLA BLA 
BLA BLA BLA BLA BLA BLA BLA BLA BLA BLA BLA BLA BLA BLA BLA BLA BLA BLA BLA BLA 
BLA BLA BLA BLA BLA BLA BLA BLA BLA BLA BLA BLA BLA BLA BLA BLA BLA BLA BLA BLA 
BLA BLA BLA BLA BLA BLA BLA BLA BLA BLA BLA BLA BLA BLA BLA BLA BLA BLA BLA BLA 
BLA BLA BLA BLA BLA BLA BLA BLA BLA BLA BLA BLA BLA BLA BLA BLA BLA BLA BLA BLA 
BLA BLA BLA BLA BLA BLA BLA BLA BLA BLA BLA BLA BLA BLA BLA BLA BLA BLA BLA BLA 
BLA BLA BLA BLA BLA BLA BLA BLA BLA BLA BLA BLA BLA BLA BLA BLA BLA BLA BLA BLA 
BLA BLA BLA BLA BLA BLA BLA BLA BLA BLA BLA BLA BLA BLA BLA BLA BLA BLA BLA BLA 
BLA BLA BLA BLA BLA BLA BLA BLA BLA BLA BLA BLA BLA BLA BLA BLA BLA BLA BLA BLA 
BLA BLA BLA BLA BLA BLA BLA BLA BLA BLA BLA BLA BLA BLA BLA BLA BLA BLA BLA BLA 
BLA BLA BLA BLA BLA BLA BLA BLA BLA BLA BLA BLA BLA BLA BLA BLA BLA BLA BLA BLA 
BLA BLA BLA BLA BLA BLA BLA BLA BLA BLA BLA BLA BLA BLA BLA BLA BLA BLA BLA BLA 
BLA BLA BLA BLA BLA BLA BLA BLA BLA BLA BLA BLA BLA BLA BLA BLA BLA BLA BLA BLA 
BLA BLA BLA BLA BLA BLA BLA BLA BLA BLA BLA BLA BLA BLA BLA BLA BLA BLA BLA BLA 
BLA BLA BLA BLA BLA BLA BLA BLA BLA BLA BLA BLA BLA BLA BLA BLA BLA BLA BLA BLA 
BLA BLA BLA BLA BLA BLA BLA BLA BLA BLA BLA BLA BLA BLA BLA BLA BLA BLA BLA BLA 
BLA BLA BLA BLA BLA BLA BLA BLA BLA BLA BLA BLA BLA BLA BLA BLA BLA BLA BLA BLA 
BLA BLA BLA BLA BLA BLA BLA BLA BLA BLA BLA BLA BLA BLA BLA BLA BLA BLA BLA BLA 
BLA BLA BLA BLA BLA BLA BLA BLA BLA BLA BLA BLA BLA BLA BLA BLA BLA BLA BLA BLA 
BLA BLA BLA BLA BLA BLA BLA BLA BLA BLA BLA BLA BLA BLA BLA BLA BLA BLA BLA BLA 
BLA BLA BLA BLA BLA BLA BLA BLA BLA BLA BLA BLA BLA BLA BLA BLA BLA BLA BLA BLA 
BLA BLA BLA BLA BLA BLA BLA BLA BLA BLA BLA BLA BLA BLA BLA BLA BLA BLA BLA BLA 
BLA BLA BLA BLA BLA BLA BLA BLA BLA BLA BLA BLA BLA BLA BLA BLA BLA BLA BLA BLA 
BLA BLA BLA BLA BLA BLA BLA BLA BLA BLA BLA BLA BLA BLA BLA BLA BLA BLA BLA BLA 
BLA BLA BLA BLA BLA BLA BLA BLA BLA BLA BLA BLA BLA BLA BLA BLA BLA BLA BLA BLA 
BLA BLA BLA BLA BLA BLA BLA BLA BLA BLA BLA BLA BLA BLA BLA BLA BLA BLA BLA BLA 
BLA BLA BLA BLA BLA BLA BLA BLA BLA BLA BLA BLA BLA BLA BLA BLA BLA BLA BLA BLA 
BLA BLA BLA BLA BLA BLA BLA BLA BLA BLA BLA BLA BLA BLA BLA BLA BLA BLA BLA BLA 
BLA BLA BLA BLA BLA BLA BLA BLA BLA BLA BLA BLA BLA BLA BLA BLA BLA BLA BLA BLA 
BLA BLA BLA BLA BLA BLA BLA BLA BLA BLA BLA BLA BLA BLA BLA BLA BLA BLA BLA BLA 
BLA BLA BLA BLA BLA BLA BLA BLA BLA BLA BLA BLA BLA BLA BLA BLA BLA BLA BLA BLA 
BLA BLA BLA BLA BLA BLA BLA BLA BLA BLA BLA BLA BLA BLA BLA BLA BLA BLA BLA BLA 
BLA BLA BLA BLA BLA BLA BLA BLA BLA BLA BLA BLA BLA BLA BLA BLA BLA BLA BLA BLA 
BLA BLA BLA BLA BLA BLA BLA BLA BLA BLA BLA BLA BLA BLA BLA BLA BLA BLA BLA BLA 
BLA BLA BLA BLA BLA BLA BLA BLA BLA BLA BLA BLA BLA BLA BLA BLA BLA BLA BLA BLA 
BLA BLA BLA BLA BLA BLA BLA BLA BLA BLA BLA BLA BLA BLA BLA BLA BLA BLA BLA BLA 
BLA BLA BLA BLA BLA BLA BLA BLA BLA BLA BLA BLA BLA BLA BLA BLA BLA BLA BLA BLA 
BLA BLA BLA BLA BLA BLA BLA BLA BLA BLA BLA BLA BLA BLA BLA BLA BLA BLA BLA BLA 
BLA BLA BLA BLA BLA BLA BLA BLA BLA BLA BLA BLA BLA BLA BLA BLA BLA BLA BLA BLA 
BLA BLA BLA BLA BLA BLA BLA BLA BLA BLA BLA BLA BLA BLA BLA BLA BLA BLA BLA BLA 
BLA BLA BLA BLA BLA BLA BLA BLA BLA BLA BLA BLA BLA BLA BLA BLA BLA BLA BLA BLA 
BLA BLA BLA BLA BLA BLA BLA BLA BLA BLA BLA BLA BLA BLA BLA BLA BLA BLA BLA BLA 
BLA BLA BLA BLA BLA BLA BLA BLA BLA BLA BLA BLA BLA BLA BLA BLA BLA BLA BLA BLA 
BLA BLA BLA BLA BLA BLA BLA BLA BLA BLA BLA BLA BLA BLA BLA BLA BLA BLA BLA BLA 
BLA BLA BLA BLA BLA BLA BLA BLA BLA BLA BLA BLA BLA BLA BLA BLA BLA BLA BLA BLA 
BLA BLA BLA BLA BLA BLA BLA BLA BLA BLA BLA BLA BLA BLA BLA BLA BLA BLA BLA BLA 
BLA BLA BLA BLA BLA BLA BLA BLA BLA BLA BLA BLA BLA BLA BLA BLA BLA BLA BLA BLA 
BLA BLA BLA BLA BLA BLA BLA BLA BLA BLA BLA BLA BLA BLA BLA BLA BLA BLA BLA BLA 
BLA BLA BLA BLA BLA BLA BLA BLA BLA BLA BLA BLA BLA BLA BLA BLA BLA BLA BLA BLA 
BLA BLA BLA BLA BLA BLA BLA BLA BLA BLA BLA BLA BLA BLA BLA BLA BLA BLA BLA BLA 
BLA BLA BLA BLA BLA BLA BLA BLA BLA BLA BLA BLA BLA BLA BLA BLA BLA BLA BLA BLA 
BLA BLA BLA BLA BLA BLA BLA BLA BLA BLA BLA BLA BLA BLA BLA BLA BLA BLA BLA BLA 
BLA BLA BLA BLA BLA BLA BLA BLA BLA BLA BLA BLA BLA BLA BLA BLA BLA BLA BLA BLA 
BLA BLA BLA BLA BLA BLA BLA BLA BLA BLA BLA BLA BLA BLA BLA BLA BLA BLA BLA BLA 
BLA BLA BLA BLA BLA BLA BLA BLA BLA BLA BLA BLA BLA BLA BLA BLA BLA BLA BLA BLA 
BLA BLA BLA BLA BLA BLA BLA BLA BLA BLA BLA BLA BLA BLA BLA BLA BLA BLA BLA BLA 
BLA BLA BLA BLA BLA BLA BLA BLA BLA BLA BLA BLA BLA BLA BLA BLA BLA BLA BLA BLA 
BLA BLA BLA BLA BLA BLA BLA BLA BLA BLA BLA BLA BLA BLA BLA BLA BLA BLA BLA BLA 
BLA BLA BLA BLA BLA BLA BLA BLA BLA BLA BLA BLA BLA BLA BLA BLA BLA BLA BLA BLA 
BLA BLA BLA BLA BLA BLA BLA BLA BLA BLA BLA BLA BLA BLA BLA BLA BLA BLA BLA BLA 
BLA BLA BLA BLA BLA BLA BLA BLA BLA BLA BLA BLA BLA BLA BLA BLA BLA BLA BLA BLA 
BLA BLA BLA BLA BLA BLA BLA BLA BLA BLA BLA BLA BLA BLA BLA BLA BLA BLA BLA BLA 
BLA BLA BLA BLA BLA BLA BLA BLA BLA BLA BLA BLA BLA BLA BLA BLA BLA BLA BLA BLA 
BLA BLA BLA BLA BLA BLA BLA BLA BLA BLA BLA BLA BLA BLA BLA BLA BLA BLA BLA BLA 
BLA BLA BLA BLA BLA BLA BLA BLA BLA BLA BLA BLA BLA BLA BLA BLA BLA BLA BLA BLA 
BLA BLA BLA BLA BLA BLA BLA BLA BLA BLA BLA BLA BLA BLA BLA BLA BLA BLA BLA BLA 
BLA BLA BLA BLA BLA BLA BLA BLA BLA BLA BLA BLA BLA BLA BLA BLA BLA BLA BLA BLA 
BLA BLA BLA BLA BLA BLA BLA BLA BLA BLA BLA BLA BLA BLA BLA BLA BLA BLA BLA BLA 
BLA BLA BLA BLA BLA BLA BLA BLA BLA BLA BLA BLA BLA BLA BLA BLA BLA BLA BLA BLA 
BLA BLA BLA BLA BLA BLA BLA BLA BLA BLA BLA BLA BLA BLA BLA BLA BLA BLA BLA BLA 
BLA BLA BLA BLA BLA BLA BLA BLA BLA BLA BLA BLA BLA BLA BLA BLA BLA BLA BLA BLA 
BLA BLA BLA BLA BLA BLA BLA BLA BLA BLA BLA BLA BLA BLA BLA BLA BLA BLA BLA BLA 
BLA BLA BLA BLA BLA BLA BLA BLA BLA BLA BLA BLA BLA BLA BLA BLA BLA BLA BLA BLA 
BLA BLA BLA BLA BLA BLA BLA BLA BLA BLA BLA BLA BLA BLA BLA BLA BLA BLA BLA BLA 
BLA BLA BLA BLA BLA BLA BLA BLA BLA BLA BLA BLA BLA BLA BLA BLA BLA BLA BLA BLA 
BLA BLA BLA BLA BLA BLA BLA BLA BLA BLA BLA BLA BLA BLA BLA BLA BLA BLA BLA BLA 
BLA BLA BLA BLA BLA BLA BLA BLA BLA BLA BLA BLA BLA BLA BLA BLA BLA BLA BLA BLA 
BLA BLA BLA BLA BLA BLA BLA BLA BLA BLA BLA BLA BLA BLA BLA BLA BLA BLA BLA BLA 
BLA BLA BLA BLA BLA BLA BLA BLA BLA BLA BLA BLA BLA BLA BLA BLA BLA BLA BLA BLA 
BLA BLA BLA BLA BLA BLA BLA BLA BLA BLA BLA BLA BLA BLA BLA BLA BLA BLA BLA BLA 
BLA BLA BLA BLA BLA BLA BLA BLA BLA BLA BLA BLA BLA BLA BLA BLA BLA BLA BLA BLA 
BLA BLA BLA BLA BLA BLA BLA BLA BLA BLA BLA BLA BLA BLA BLA BLA BLA BLA BLA BLA 
BLA BLA BLA BLA BLA BLA BLA BLA BLA BLA BLA BLA BLA BLA BLA BLA BLA BLA BLA BLA 
BLA BLA BLA BLA BLA BLA BLA BLA BLA BLA BLA BLA BLA BLA BLA BLA BLA BLA BLA BLA 
BLA BLA BLA BLA BLA BLA BLA BLA BLA BLA BLA BLA BLA BLA BLA BLA BLA BLA BLA BLA 
BLA BLA BLA BLA BLA BLA BLA BLA BLA BLA BLA BLA BLA BLA BLA BLA BLA BLA BLA BLA 
BLA BLA BLA BLA BLA BLA BLA BLA BLA BLA BLA BLA BLA BLA BLA BLA BLA BLA BLA BLA 
BLA BLA BLA BLA BLA BLA BLA BLA BLA BLA BLA BLA BLA BLA BLA BLA BLA BLA BLA BLA 
BLA BLA BLA BLA BLA BLA BLA BLA BLA BLA BLA BLA BLA BLA BLA BLA BLA BLA BLA BLA 
BLA BLA BLA BLA BLA BLA BLA BLA BLA BLA BLA BLA BLA BLA BLA BLA BLA BLA BLA BLA 
BLA BLA BLA BLA BLA BLA BLA BLA BLA BLA BLA BLA BLA BLA BLA BLA BLA BLA BLA BLA 
BLA BLA BLA BLA BLA BLA BLA BLA BLA BLA BLA BLA BLA BLA BLA BLA BLA BLA BLA BLA 
BLA BLA BLA BLA BLA BLA BLA BLA BLA BLA BLA BLA BLA BLA BLA BLA BLA BLA BLA BLA 
BLA BLA BLA BLA BLA BLA BLA BLA BLA BLA BLA BLA BLA BLA BLA BLA BLA BLA BLA BLA 
BLA BLA BLA BLA BLA BLA BLA BLA BLA BLA BLA BLA BLA BLA BLA BLA BLA BLA BLA BLA 
BLA BLA BLA BLA BLA BLA BLA BLA BLA BLA BLA BLA BLA BLA BLA BLA BLA BLA BLA BLA 
BLA BLA BLA BLA BLA BLA BLA BLA BLA BLA BLA BLA BLA BLA BLA BLA BLA BLA BLA BLA 
BLA BLA BLA BLA BLA BLA BLA BLA BLA BLA BLA BLA BLA BLA BLA BLA BLA BLA BLA BLA 
BLA BLA BLA BLA BLA BLA BLA BLA BLA BLA BLA BLA BLA BLA BLA BLA BLA BLA BLA BLA 
BLA BLA BLA BLA BLA BLA BLA BLA BLA BLA BLA BLA BLA BLA BLA BLA BLA BLA BLA BLA 
BLA BLA BLA BLA BLA BLA BLA BLA BLA BLA BLA BLA BLA BLA BLA BLA BLA BLA BLA BLA 
BLA BLA BLA BLA BLA BLA BLA BLA BLA BLA BLA BLA BLA BLA BLA BLA BLA BLA BLA BLA 
BLA BLA BLA BLA BLA BLA BLA BLA BLA BLA BLA BLA BLA BLA BLA BLA BLA BLA BLA BLA 
BLA BLA BLA BLA BLA BLA BLA BLA BLA BLA BLA BLA BLA BLA BLA BLA BLA BLA BLA BLA 
BLA BLA BLA BLA BLA BLA BLA BLA BLA BLA BLA BLA BLA BLA BLA BLA BLA BLA BLA BLA 
BLA BLA BLA BLA BLA BLA BLA BLA BLA BLA BLA BLA BLA BLA BLA BLA BLA BLA BLA BLA 
BLA BLA BLA BLA BLA BLA BLA BLA BLA BLA BLA BLA BLA BLA BLA BLA BLA BLA BLA BLA 
BLA BLA BLA BLA BLA BLA BLA BLA BLA BLA BLA BLA BLA BLA BLA BLA BLA BLA BLA BLA 
BLA BLA BLA BLA BLA BLA BLA BLA BLA BLA BLA BLA BLA BLA BLA BLA BLA BLA BLA BLA 
BLA BLA BLA BLA BLA BLA BLA BLA BLA BLA BLA BLA BLA BLA BLA BLA BLA BLA BLA BLA 
BLA BLA BLA BLA BLA BLA BLA BLA BLA BLA BLA BLA BLA BLA BLA BLA BLA BLA BLA BLA 
BLA BLA BLA BLA BLA BLA BLA BLA BLA BLA BLA BLA BLA BLA BLA BLA BLA BLA BLA BLA 
BLA BLA BLA BLA BLA BLA BLA BLA BLA BLA BLA BLA BLA BLA BLA BLA BLA BLA BLA BLA 
BLA BLA BLA BLA BLA BLA BLA BLA BLA BLA BLA BLA BLA BLA BLA BLA BLA BLA BLA BLA 
BLA BLA BLA BLA BLA BLA BLA BLA BLA BLA BLA BLA BLA BLA BLA BLA BLA BLA BLA BLA 
BLA BLA BLA BLA BLA BLA BLA BLA BLA BLA BLA BLA BLA BLA BLA BLA BLA BLA BLA BLA 
BLA BLA BLA BLA BLA BLA BLA BLA BLA BLA BLA BLA BLA BLA BLA BLA BLA BLA BLA BLA 
BLA BLA BLA BLA BLA BLA BLA BLA BLA BLA BLA BLA BLA BLA BLA BLA BLA BLA BLA BLA 
BLA BLA BLA BLA BLA BLA BLA BLA BLA BLA BLA BLA BLA BLA BLA BLA BLA BLA BLA BLA 
BLA BLA BLA BLA BLA BLA BLA BLA BLA BLA BLA BLA BLA BLA BLA BLA BLA BLA BLA BLA 
BLA BLA BLA BLA BLA BLA BLA BLA BLA BLA BLA BLA BLA BLA BLA BLA BLA BLA BLA BLA 
BLA BLA BLA BLA BLA BLA BLA BLA BLA BLA BLA BLA BLA BLA BLA BLA BLA BLA BLA BLA 
BLA BLA BLA BLA BLA BLA BLA BLA BLA BLA BLA BLA BLA BLA BLA BLA BLA BLA BLA BLA 
BLA BLA BLA BLA BLA BLA BLA BLA BLA BLA BLA BLA BLA BLA BLA BLA BLA BLA BLA BLA 
BLA BLA BLA BLA BLA BLA BLA BLA BLA BLA BLA BLA BLA BLA BLA BLA BLA BLA BLA BLA 
BLA BLA BLA BLA BLA BLA BLA BLA BLA BLA BLA BLA BLA BLA BLA BLA BLA BLA BLA BLA 
BLA BLA BLA BLA BLA BLA BLA BLA BLA BLA BLA BLA BLA BLA BLA BLA BLA BLA BLA BLA 
BLA BLA BLA BLA BLA BLA BLA BLA BLA BLA BLA BLA BLA BLA BLA BLA BLA BLA BLA BLA 
BLA BLA BLA BLA BLA BLA BLA BLA BLA BLA BLA BLA BLA BLA BLA BLA BLA BLA BLA BLA 
BLA BLA BLA BLA BLA BLA BLA BLA BLA BLA BLA BLA BLA BLA BLA BLA BLA BLA BLA BLA 
BLA BLA BLA BLA BLA BLA BLA BLA BLA BLA BLA BLA BLA BLA BLA BLA BLA BLA BLA BLA 
BLA BLA BLA BLA BLA BLA BLA BLA BLA BLA BLA BLA BLA BLA BLA BLA BLA BLA BLA BLA 
BLA BLA BLA BLA BLA BLA BLA BLA BLA BLA BLA BLA BLA BLA BLA BLA BLA BLA BLA BLA 
BLA BLA BLA BLA BLA BLA BLA BLA BLA BLA BLA BLA BLA BLA BLA BLA BLA BLA BLA BLA 
BLA BLA BLA BLA BLA BLA BLA BLA BLA BLA BLA BLA BLA BLA BLA BLA BLA BLA BLA BLA 
BLA BLA BLA BLA BLA BLA BLA BLA BLA BLA BLA BLA BLA BLA BLA BLA BLA BLA BLA BLA 
BLA BLA BLA BLA BLA BLA BLA BLA BLA BLA BLA BLA BLA BLA BLA BLA BLA BLA BLA BLA 
BLA BLA BLA BLA BLA BLA BLA BLA BLA BLA BLA BLA BLA BLA BLA BLA BLA BLA BLA BLA 
BLA BLA BLA BLA BLA BLA BLA BLA BLA BLA BLA BLA BLA BLA BLA BLA BLA BLA BLA BLA 
BLA BLA BLA BLA BLA BLA BLA BLA BLA BLA BLA BLA BLA BLA BLA BLA BLA BLA BLA BLA 
BLA BLA BLA BLA BLA BLA BLA BLA BLA BLA BLA BLA BLA BLA BLA BLA BLA BLA BLA BLA 
BLA BLA BLA BLA BLA BLA BLA BLA BLA BLA BLA BLA BLA BLA BLA BLA BLA BLA BLA BLA 
BLA BLA BLA BLA BLA BLA BLA BLA BLA BLA BLA BLA BLA BLA BLA BLA BLA BLA BLA BLA 
BLA BLA BLA BLA BLA BLA BLA BLA BLA BLA BLA BLA BLA BLA BLA BLA BLA BLA BLA BLA 
BLA BLA BLA BLA BLA BLA BLA BLA BLA BLA BLA BLA BLA BLA BLA BLA BLA BLA BLA BLA 
BLA BLA BLA BLA BLA BLA BLA BLA BLA BLA BLA BLA BLA BLA BLA BLA BLA BLA BLA BLA 
BLA BLA BLA BLA BLA BLA BLA BLA BLA BLA BLA BLA BLA BLA BLA BLA BLA BLA BLA BLA 
BLA BLA BLA BLA BLA BLA BLA BLA BLA BLA BLA BLA BLA BLA BLA BLA BLA BLA BLA BLA 
BLA BLA BLA BLA BLA BLA BLA BLA BLA BLA BLA BLA BLA BLA BLA BLA BLA BLA BLA BLA 
BLA BLA BLA BLA BLA BLA BLA BLA BLA BLA BLA BLA BLA BLA BLA BLA BLA BLA BLA BLA 
BLA BLA BLA BLA BLA BLA BLA BLA BLA BLA BLA BLA BLA BLA BLA BLA BLA BLA BLA BLA 
BLA BLA BLA BLA BLA BLA BLA BLA BLA BLA BLA BLA BLA BLA BLA BLA BLA BLA BLA BLA 
BLA BLA BLA BLA BLA BLA BLA BLA BLA BLA BLA BLA BLA BLA BLA BLA BLA BLA BLA BLA 
BLA BLA BLA BLA BLA BLA BLA BLA BLA BLA BLA BLA BLA BLA BLA BLA BLA BLA BLA BLA 
BLA BLA BLA BLA BLA BLA BLA BLA BLA BLA BLA BLA BLA BLA BLA BLA BLA BLA BLA BLA 
BLA BLA BLA BLA BLA BLA BLA BLA BLA BLA BLA BLA BLA BLA BLA BLA BLA BLA BLA BLA 
BLA BLA BLA BLA BLA BLA BLA BLA BLA BLA BLA BLA BLA BLA BLA BLA BLA BLA BLA BLA 
BLA BLA BLA BLA BLA BLA BLA BLA BLA BLA BLA BLA BLA BLA BLA BLA BLA BLA BLA BLA 
BLA BLA BLA BLA BLA BLA BLA BLA BLA BLA BLA BLA BLA BLA BLA BLA BLA BLA BLA BLA 
BLA BLA BLA BLA BLA BLA BLA BLA BLA BLA BLA BLA BLA BLA BLA BLA BLA BLA BLA BLA 
BLA BLA BLA BLA BLA BLA BLA BLA BLA BLA BLA BLA BLA BLA BLA BLA BLA BLA BLA BLA 
BLA BLA BLA BLA BLA BLA BLA BLA BLA BLA BLA BLA BLA BLA BLA BLA BLA BLA BLA BLA 
BLA BLA BLA BLA BLA BLA BLA BLA BLA BLA BLA BLA BLA BLA BLA BLA BLA BLA BLA BLA 
BLA BLA BLA BLA BLA BLA BLA BLA BLA BLA BLA BLA BLA BLA BLA BLA BLA BLA BLA BLA 
BLA BLA BLA BLA BLA BLA BLA BLA BLA BLA BLA BLA BLA BLA BLA BLA BLA BLA BLA BLA 
BLA BLA BLA BLA BLA BLA BLA BLA BLA BLA BLA BLA BLA BLA BLA BLA BLA BLA BLA BLA 
BLA BLA BLA BLA BLA BLA BLA BLA BLA BLA BLA BLA BLA BLA BLA BLA BLA BLA BLA BLA 
BLA BLA BLA BLA BLA BLA BLA BLA BLA BLA BLA BLA BLA BLA BLA BLA BLA BLA BLA BLA 
BLA BLA BLA BLA BLA BLA BLA BLA BLA BLA BLA BLA BLA BLA BLA BLA BLA BLA BLA BLA 
BLA BLA BLA BLA BLA BLA BLA BLA BLA BLA BLA BLA BLA BLA BLA BLA BLA BLA BLA BLA 
BLA BLA BLA BLA BLA BLA BLA BLA BLA BLA BLA BLA BLA BLA BLA BLA BLA BLA BLA BLA 
BLA BLA BLA BLA BLA BLA BLA BLA BLA BLA BLA BLA BLA BLA BLA BLA BLA BLA BLA BLA 
BLA BLA BLA BLA BLA BLA BLA BLA BLA BLA BLA BLA BLA BLA BLA BLA BLA BLA BLA BLA 
BLA BLA BLA BLA BLA BLA BLA BLA BLA BLA BLA BLA BLA BLA BLA BLA BLA BLA BLA BLA 
BLA BLA BLA BLA BLA BLA BLA BLA BLA BLA BLA BLA BLA BLA BLA BLA BLA BLA BLA BLA 
BLA BLA BLA BLA BLA BLA BLA BLA BLA BLA BLA BLA BLA BLA BLA BLA BLA BLA BLA BLA 
BLA BLA BLA BLA BLA BLA BLA BLA BLA BLA BLA BLA BLA BLA BLA BLA BLA BLA BLA BLA 
BLA BLA BLA BLA BLA BLA BLA BLA BLA BLA BLA BLA BLA BLA BLA BLA BLA BLA BLA BLA 
BLA BLA BLA BLA BLA BLA BLA BLA BLA BLA BLA BLA BLA BLA BLA BLA BLA BLA BLA BLA 
BLA BLA BLA BLA BLA BLA BLA BLA BLA BLA BLA BLA BLA BLA BLA BLA BLA BLA BLA BLA 
BLA BLA BLA BLA BLA BLA BLA BLA BLA BLA BLA BLA BLA BLA BLA BLA BLA BLA BLA BLA 
BLA BLA BLA BLA BLA BLA BLA BLA BLA BLA BLA BLA BLA BLA BLA BLA BLA BLA BLA BLA 
BLA BLA BLA BLA BLA BLA BLA BLA BLA BLA BLA BLA BLA BLA BLA BLA BLA BLA BLA BLA 
BLA BLA BLA BLA BLA BLA BLA BLA BLA BLA BLA BLA BLA BLA BLA BLA BLA BLA BLA BLA 
BLA BLA BLA BLA BLA BLA BLA BLA BLA BLA BLA BLA BLA BLA BLA BLA BLA BLA BLA BLA 
BLA BLA BLA BLA BLA BLA BLA BLA BLA BLA BLA BLA BLA BLA BLA BLA BLA BLA BLA BLA 
BLA BLA BLA BLA BLA BLA BLA BLA BLA BLA BLA BLA BLA BLA BLA BLA BLA BLA BLA BLA 
BLA BLA BLA BLA BLA BLA BLA BLA BLA BLA BLA BLA BLA BLA BLA BLA BLA BLA BLA BLA 
BLA BLA BLA BLA BLA BLA BLA BLA BLA BLA BLA BLA BLA BLA BLA BLA BLA BLA BLA BLA 
BLA BLA BLA BLA BLA BLA BLA BLA BLA BLA BLA BLA BLA BLA BLA BLA BLA BLA BLA BLA 
BLA BLA BLA BLA BLA BLA BLA BLA BLA BLA BLA BLA BLA BLA BLA BLA BLA BLA BLA BLA 
BLA BLA BLA BLA BLA BLA BLA BLA BLA BLA BLA BLA BLA BLA BLA BLA BLA BLA BLA BLA 
BLA BLA BLA BLA BLA BLA BLA BLA BLA BLA BLA BLA BLA BLA BLA BLA BLA BLA BLA BLA 
BLA BLA BLA BLA BLA BLA BLA BLA BLA BLA BLA BLA BLA BLA BLA BLA BLA BLA BLA BLA 
BLA BLA BLA BLA BLA BLA BLA BLA BLA BLA BLA BLA BLA BLA BLA BLA BLA BLA BLA BLA 
BLA BLA BLA BLA BLA BLA BLA BLA BLA BLA BLA BLA BLA BLA BLA BLA BLA BLA BLA BLA 
BLA BLA BLA BLA BLA BLA BLA BLA BLA BLA BLA BLA BLA BLA BLA BLA BLA BLA BLA BLA 
BLA BLA BLA BLA BLA BLA BLA BLA BLA BLA BLA BLA BLA BLA BLA BLA BLA BLA BLA BLA 
BLA BLA BLA BLA BLA BLA BLA BLA BLA BLA BLA BLA BLA BLA BLA BLA BLA BLA BLA BLA 
BLA BLA BLA BLA BLA BLA BLA BLA BLA BLA BLA BLA BLA BLA BLA BLA BLA BLA BLA BLA 
BLA BLA BLA BLA BLA BLA BLA BLA BLA BLA BLA BLA BLA BLA BLA BLA BLA BLA BLA BLA 
BLA BLA BLA BLA BLA BLA BLA BLA BLA BLA BLA BLA BLA BLA BLA BLA BLA BLA BLA BLA 
BLA BLA BLA BLA BLA BLA BLA BLA BLA BLA BLA BLA BLA BLA BLA BLA BLA BLA BLA BLA 
BLA BLA BLA BLA BLA BLA BLA BLA BLA BLA BLA BLA BLA BLA BLA BLA BLA BLA BLA BLA 
BLA BLA BLA BLA BLA BLA BLA BLA BLA BLA BLA BLA BLA BLA BLA BLA BLA BLA BLA BLA 
BLA BLA BLA BLA BLA BLA BLA BLA BLA BLA BLA BLA BLA BLA BLA BLA BLA BLA BLA BLA 
BLA BLA BLA BLA BLA BLA BLA BLA BLA BLA BLA BLA BLA BLA BLA BLA BLA BLA BLA BLA 
BLA BLA BLA BLA BLA BLA BLA BLA BLA BLA BLA BLA BLA BLA BLA BLA BLA BLA BLA BLA 
BLA BLA BLA BLA BLA BLA BLA BLA BLA BLA BLA BLA BLA BLA BLA BLA BLA BLA BLA BLA 
BLA BLA BLA BLA BLA BLA BLA BLA BLA BLA BLA BLA BLA BLA BLA BLA BLA BLA BLA BLA 
BLA BLA BLA BLA BLA BLA BLA BLA BLA BLA BLA BLA BLA BLA BLA BLA BLA BLA BLA BLA 
BLA BLA BLA BLA BLA BLA BLA BLA BLA BLA BLA BLA BLA BLA BLA BLA BLA BLA BLA BLA 
BLA BLA BLA BLA BLA BLA BLA BLA BLA BLA BLA BLA BLA BLA BLA BLA BLA BLA BLA BLA 
BLA BLA BLA BLA BLA BLA BLA BLA BLA BLA BLA BLA BLA BLA BLA BLA BLA BLA BLA BLA 
BLA BLA BLA BLA BLA BLA BLA BLA BLA BLA BLA BLA BLA BLA BLA BLA BLA BLA BLA BLA 
BLA BLA BLA BLA BLA BLA BLA BLA BLA BLA BLA BLA BLA BLA BLA BLA BLA BLA BLA BLA 
BLA BLA BLA BLA BLA BLA BLA BLA BLA BLA BLA BLA BLA BLA BLA BLA BLA BLA BLA BLA 
BLA BLA BLA BLA BLA BLA BLA BLA BLA BLA BLA BLA BLA BLA BLA BLA BLA BLA BLA BLA 
BLA BLA BLA BLA BLA BLA BLA BLA BLA BLA BLA BLA BLA BLA BLA BLA BLA BLA BLA BLA 
BLA BLA BLA BLA BLA BLA BLA BLA BLA BLA BLA BLA BLA BLA BLA BLA BLA BLA BLA BLA 
BLA BLA BLA BLA BLA BLA BLA BLA BLA BLA BLA BLA BLA BLA BLA BLA BLA BLA BLA BLA 
BLA BLA BLA BLA BLA BLA BLA BLA BLA BLA BLA BLA BLA BLA BLA BLA BLA BLA BLA BLA 
BLA BLA BLA BLA BLA BLA BLA BLA BLA BLA BLA BLA BLA BLA BLA BLA BLA BLA BLA BLA 
BLA BLA BLA BLA BLA BLA BLA BLA BLA BLA BLA BLA BLA BLA BLA BLA BLA BLA BLA BLA 
BLA BLA BLA BLA BLA BLA BLA BLA BLA BLA BLA BLA BLA BLA BLA BLA BLA BLA BLA BLA 
BLA BLA BLA BLA BLA BLA BLA BLA BLA BLA BLA BLA BLA BLA BLA BLA BLA BLA BLA BLA 
BLA BLA BLA BLA BLA BLA BLA BLA BLA BLA BLA BLA BLA BLA BLA BLA BLA BLA BLA BLA 
BLA BLA BLA BLA BLA BLA BLA BLA BLA BLA BLA BLA BLA BLA BLA BLA BLA BLA BLA BLA 
BLA BLA BLA BLA BLA BLA BLA BLA BLA BLA BLA BLA BLA BLA BLA BLA BLA BLA BLA BLA 
BLA BLA BLA BLA BLA BLA BLA BLA BLA BLA BLA BLA BLA BLA BLA BLA BLA BLA BLA BLA 
BLA BLA BLA BLA BLA BLA BLA BLA BLA BLA BLA BLA BLA BLA BLA BLA BLA BLA BLA BLA 
BLA BLA BLA BLA BLA BLA BLA BLA BLA BLA BLA BLA BLA BLA BLA BLA BLA BLA BLA BLA 
BLA BLA BLA BLA BLA BLA BLA BLA BLA BLA BLA BLA BLA BLA BLA BLA BLA BLA BLA BLA 
BLA BLA BLA BLA BLA BLA BLA BLA BLA BLA BLA BLA BLA BLA BLA BLA BLA BLA BLA BLA 
BLA BLA BLA BLA BLA BLA BLA BLA BLA BLA BLA BLA BLA BLA BLA BLA BLA BLA BLA BLA 
BLA BLA BLA BLA BLA BLA BLA BLA BLA BLA BLA BLA BLA BLA BLA BLA BLA BLA BLA BLA 
BLA BLA BLA BLA BLA BLA BLA BLA BLA BLA BLA BLA BLA BLA BLA BLA BLA BLA BLA BLA 
BLA BLA BLA BLA BLA BLA BLA BLA BLA BLA BLA BLA BLA BLA BLA BLA BLA BLA BLA BLA 
BLA BLA BLA BLA BLA BLA BLA BLA BLA BLA BLA BLA BLA BLA BLA BLA BLA BLA BLA BLA 
BLA BLA BLA BLA BLA BLA BLA BLA BLA BLA BLA BLA BLA BLA BLA BLA BLA BLA BLA BLA 
BLA BLA BLA BLA BLA BLA BLA BLA BLA BLA BLA BLA BLA BLA BLA BLA BLA BLA BLA BLA 
BLA BLA BLA BLA BLA BLA BLA BLA BLA BLA BLA BLA BLA BLA BLA BLA BLA BLA BLA BLA 
BLA BLA BLA BLA BLA BLA BLA BLA BLA BLA BLA BLA BLA BLA BLA BLA BLA BLA BLA BLA 
BLA BLA BLA BLA BLA BLA BLA BLA BLA BLA BLA BLA BLA BLA BLA BLA BLA BLA BLA BLA 
BLA BLA BLA BLA BLA BLA BLA BLA BLA BLA BLA BLA BLA BLA BLA BLA BLA BLA BLA BLA 
BLA BLA BLA BLA BLA BLA BLA BLA BLA BLA BLA BLA BLA BLA BLA BLA BLA BLA BLA BLA 
BLA BLA BLA BLA BLA BLA BLA BLA BLA BLA BLA BLA BLA BLA BLA BLA BLA BLA BLA BLA 
BLA BLA BLA BLA BLA BLA BLA BLA BLA BLA BLA BLA BLA BLA BLA BLA BLA BLA BLA BLA 
BLA BLA BLA BLA BLA BLA BLA BLA BLA BLA BLA BLA BLA BLA BLA BLA BLA BLA BLA BLA 
BLA BLA BLA BLA BLA BLA BLA BLA BLA BLA BLA BLA BLA BLA BLA BLA BLA BLA BLA BLA 
BLA BLA BLA BLA BLA BLA BLA BLA BLA BLA BLA BLA BLA BLA BLA BLA BLA BLA BLA BLA 
BLA BLA BLA BLA BLA BLA BLA BLA BLA BLA BLA BLA BLA BLA BLA BLA BLA BLA BLA BLA 
BLA BLA BLA BLA BLA BLA BLA BLA BLA BLA BLA BLA BLA BLA BLA BLA BLA BLA BLA BLA 
BLA BLA BLA BLA BLA BLA BLA BLA BLA BLA BLA BLA BLA BLA BLA BLA BLA BLA BLA BLA 
BLA BLA BLA BLA BLA BLA BLA BLA BLA BLA BLA BLA BLA BLA BLA BLA BLA BLA BLA BLA 
BLA BLA BLA BLA BLA BLA BLA BLA BLA BLA BLA BLA BLA BLA BLA BLA BLA BLA BLA BLA 
BLA BLA BLA BLA BLA BLA BLA BLA BLA BLA BLA BLA BLA BLA BLA BLA BLA BLA BLA BLA 
BLA BLA BLA BLA BLA BLA BLA BLA BLA BLA BLA BLA BLA BLA BLA BLA BLA BLA BLA BLA 
BLA BLA BLA BLA BLA BLA BLA BLA BLA BLA BLA BLA BLA BLA BLA BLA BLA BLA BLA BLA 
BLA BLA BLA BLA BLA BLA BLA BLA BLA BLA BLA BLA BLA BLA BLA BLA BLA BLA BLA BLA 
BLA BLA BLA BLA BLA BLA BLA BLA BLA BLA BLA BLA BLA BLA BLA BLA BLA BLA BLA BLA 
BLA BLA BLA BLA BLA BLA BLA BLA BLA BLA BLA BLA BLA BLA BLA BLA BLA BLA BLA BLA 
BLA BLA BLA BLA BLA BLA BLA BLA BLA BLA BLA BLA BLA BLA BLA BLA BLA BLA BLA BLA 
BLA BLA BLA BLA BLA BLA BLA BLA BLA BLA BLA BLA BLA BLA BLA BLA BLA BLA BLA BLA 
BLA BLA BLA BLA BLA BLA BLA BLA BLA BLA BLA BLA BLA BLA BLA BLA BLA BLA BLA BLA 
BLA BLA BLA BLA BLA BLA BLA BLA BLA BLA BLA BLA BLA BLA BLA BLA BLA BLA BLA BLA 
BLA BLA BLA BLA BLA BLA BLA BLA BLA BLA BLA BLA BLA BLA BLA BLA BLA BLA BLA BLA 
BLA BLA BLA BLA BLA BLA BLA BLA BLA BLA BLA BLA BLA BLA BLA BLA BLA BLA BLA BLA 
BLA BLA BLA BLA BLA BLA BLA BLA BLA BLA BLA BLA BLA BLA BLA BLA BLA BLA BLA BLA 
BLA BLA BLA BLA BLA BLA BLA BLA BLA BLA BLA BLA BLA BLA BLA BLA BLA BLA BLA BLA 
BLA BLA BLA BLA BLA BLA BLA BLA BLA BLA BLA BLA BLA BLA BLA BLA BLA BLA BLA BLA 
BLA BLA BLA BLA BLA BLA BLA BLA BLA BLA BLA BLA BLA BLA BLA BLA BLA BLA BLA BLA 
BLA BLA BLA BLA BLA BLA BLA BLA BLA BLA BLA BLA BLA BLA BLA BLA BLA BLA BLA BLA 
BLA BLA BLA BLA BLA BLA BLA BLA BLA BLA BLA BLA BLA BLA BLA BLA BLA BLA BLA BLA 
BLA BLA BLA BLA BLA BLA BLA BLA BLA BLA BLA BLA BLA BLA BLA BLA BLA BLA BLA BLA 
BLA BLA BLA BLA BLA BLA BLA BLA BLA BLA BLA BLA BLA BLA BLA BLA BLA BLA BLA BLA 
BLA BLA BLA BLA BLA BLA BLA BLA BLA BLA BLA BLA BLA BLA BLA BLA BLA BLA BLA BLA 
BLA BLA BLA BLA BLA BLA BLA BLA BLA BLA BLA BLA BLA BLA BLA BLA BLA BLA BLA BLA 
BLA BLA BLA BLA BLA BLA BLA BLA BLA BLA BLA BLA BLA BLA BLA BLA BLA BLA BLA BLA 
BLA BLA BLA BLA BLA BLA BLA BLA BLA BLA BLA BLA BLA BLA BLA BLA BLA BLA BLA BLA 
BLA BLA BLA BLA BLA BLA BLA BLA BLA BLA BLA BLA BLA BLA BLA BLA BLA BLA BLA BLA 
BLA BLA BLA BLA BLA BLA BLA BLA BLA BLA BLA BLA BLA BLA BLA BLA BLA BLA BLA BLA 
BLA BLA BLA BLA BLA BLA BLA BLA BLA BLA BLA BLA BLA BLA BLA BLA BLA BLA BLA BLA 
BLA BLA BLA BLA BLA BLA BLA BLA BLA BLA BLA BLA BLA BLA BLA BLA BLA BLA BLA BLA 
BLA BLA BLA BLA BLA BLA BLA BLA BLA BLA BLA BLA BLA BLA BLA BLA BLA BLA BLA BLA 
BLA BLA BLA BLA BLA BLA BLA BLA BLA BLA BLA BLA BLA BLA BLA BLA BLA BLA BLA BLA 
BLA BLA BLA BLA BLA BLA BLA BLA BLA BLA BLA BLA BLA BLA BLA BLA BLA BLA BLA BLA 
BLA BLA BLA BLA BLA BLA BLA BLA BLA BLA BLA BLA BLA BLA BLA BLA BLA BLA BLA BLA 
BLA BLA BLA BLA BLA BLA BLA BLA BLA BLA BLA BLA BLA BLA BLA BLA BLA BLA BLA BLA 
BLA BLA BLA BLA BLA BLA BLA BLA BLA BLA BLA BLA BLA BLA BLA BLA BLA BLA BLA BLA 
BLA BLA BLA BLA BLA BLA BLA BLA BLA BLA BLA BLA BLA BLA BLA BLA BLA BLA BLA BLA 
BLA BLA BLA BLA BLA BLA BLA BLA BLA BLA BLA BLA BLA BLA BLA BLA BLA BLA BLA BLA 
BLA BLA BLA BLA BLA BLA BLA BLA BLA BLA BLA BLA BLA BLA BLA BLA BLA BLA BLA BLA 
BLA BLA BLA BLA BLA BLA BLA BLA BLA BLA BLA BLA BLA BLA BLA BLA BLA BLA BLA BLA 
BLA BLA BLA BLA BLA BLA BLA BLA BLA BLA BLA BLA BLA BLA BLA BLA BLA BLA BLA BLA 
BLA BLA BLA BLA BLA BLA BLA BLA BLA BLA BLA BLA BLA BLA BLA BLA BLA BLA BLA BLA 
BLA BLA BLA BLA BLA BLA BLA BLA BLA BLA BLA BLA BLA BLA BLA BLA BLA BLA BLA BLA 
BLA BLA BLA BLA BLA BLA BLA BLA BLA BLA BLA BLA BLA BLA BLA BLA BLA BLA BLA BLA 
BLA BLA BLA BLA BLA BLA BLA BLA BLA BLA BLA BLA BLA BLA BLA BLA BLA BLA BLA BLA 
BLA BLA BLA BLA BLA BLA BLA BLA BLA BLA BLA BLA BLA BLA BLA BLA BLA BLA BLA BLA 
BLA BLA BLA BLA BLA BLA BLA BLA BLA BLA BLA BLA BLA BLA BLA BLA BLA BLA BLA BLA 
BLA BLA BLA BLA BLA BLA BLA BLA BLA BLA BLA BLA BLA BLA BLA BLA BLA BLA BLA BLA 
BLA BLA BLA BLA BLA BLA BLA BLA BLA BLA BLA BLA BLA BLA BLA BLA BLA BLA BLA BLA 
BLA BLA BLA BLA BLA BLA BLA BLA BLA BLA BLA BLA BLA BLA BLA BLA BLA BLA BLA BLA 
BLA BLA BLA BLA BLA BLA BLA BLA BLA BLA BLA BLA BLA BLA BLA BLA BLA BLA BLA BLA 
BLA BLA BLA BLA BLA BLA BLA BLA BLA BLA BLA BLA BLA BLA BLA BLA BLA BLA BLA BLA 
BLA BLA BLA BLA BLA BLA BLA BLA BLA BLA BLA BLA BLA BLA BLA BLA BLA BLA BLA BLA 
BLA BLA BLA BLA BLA BLA BLA BLA BLA BLA BLA BLA BLA BLA BLA BLA BLA BLA BLA BLA 
BLA BLA BLA BLA BLA BLA BLA BLA BLA BLA BLA BLA BLA BLA BLA BLA BLA BLA BLA BLA 
BLA BLA BLA BLA BLA BLA BLA BLA BLA BLA BLA BLA BLA BLA BLA BLA BLA BLA BLA BLA 
BLA BLA BLA BLA BLA BLA BLA BLA BLA BLA BLA BLA BLA BLA BLA BLA BLA BLA BLA BLA 
BLA BLA BLA BLA BLA BLA BLA BLA BLA BLA BLA BLA BLA BLA BLA BLA BLA BLA BLA BLA 
BLA BLA BLA BLA BLA BLA BLA BLA BLA BLA BLA BLA BLA BLA BLA BLA BLA BLA BLA BLA 
BLA BLA BLA BLA BLA BLA BLA BLA BLA BLA BLA BLA BLA BLA BLA BLA BLA BLA BLA BLA 
BLA BLA BLA BLA BLA BLA BLA BLA BLA BLA BLA BLA BLA BLA BLA BLA BLA BLA BLA BLA 
BLA BLA BLA BLA BLA BLA BLA BLA BLA BLA BLA BLA BLA BLA BLA BLA BLA BLA BLA BLA 
BLA BLA BLA BLA BLA BLA BLA BLA BLA BLA BLA BLA BLA BLA BLA BLA BLA BLA BLA BLA 
BLA BLA BLA BLA BLA BLA BLA BLA BLA BLA BLA BLA BLA BLA BLA BLA BLA BLA BLA BLA 
BLA BLA BLA BLA BLA BLA BLA BLA BLA BLA BLA BLA BLA BLA BLA BLA BLA BLA BLA BLA 
BLA BLA BLA BLA BLA BLA BLA BLA BLA BLA BLA BLA BLA BLA BLA BLA BLA BLA BLA BLA 
BLA BLA BLA BLA BLA BLA BLA BLA BLA BLA BLA BLA BLA BLA BLA BLA BLA BLA BLA BLA 
BLA BLA BLA BLA BLA BLA BLA BLA BLA BLA BLA BLA BLA BLA BLA BLA BLA BLA BLA BLA 
BLA BLA BLA BLA BLA BLA BLA BLA BLA BLA BLA BLA BLA BLA BLA BLA BLA BLA BLA BLA 
BLA BLA BLA BLA BLA BLA BLA BLA BLA BLA BLA BLA BLA BLA BLA BLA BLA BLA BLA BLA 
BLA BLA BLA BLA BLA BLA BLA BLA BLA BLA BLA BLA BLA BLA BLA BLA BLA BLA BLA BLA 
BLA BLA BLA BLA BLA BLA BLA BLA BLA BLA BLA BLA BLA BLA BLA BLA BLA BLA BLA BLA 
BLA BLA BLA BLA BLA BLA BLA BLA BLA BLA BLA BLA BLA BLA BLA BLA BLA BLA BLA BLA 
BLA BLA BLA BLA BLA BLA BLA BLA BLA BLA BLA BLA BLA BLA BLA BLA BLA BLA BLA BLA 
BLA BLA BLA BLA BLA BLA BLA BLA BLA BLA BLA BLA BLA BLA BLA BLA BLA BLA BLA BLA 
BLA BLA BLA BLA BLA BLA BLA BLA BLA BLA BLA BLA BLA BLA BLA BLA BLA BLA BLA BLA 
BLA BLA BLA BLA BLA BLA BLA BLA BLA BLA BLA BLA BLA BLA BLA BLA BLA BLA BLA BLA 
BLA BLA BLA BLA BLA BLA BLA BLA BLA BLA BLA BLA BLA BLA BLA BLA BLA BLA BLA BLA 
BLA BLA BLA BLA BLA BLA BLA BLA BLA BLA BLA BLA BLA BLA BLA BLA BLA BLA BLA BLA 
BLA BLA BLA BLA BLA BLA BLA BLA BLA BLA BLA BLA BLA BLA BLA BLA BLA BLA BLA BLA 
BLA BLA BLA BLA BLA BLA BLA BLA BLA BLA BLA BLA BLA BLA BLA BLA BLA BLA BLA BLA 
BLA BLA BLA BLA BLA BLA BLA BLA BLA BLA BLA BLA BLA BLA BLA BLA BLA BLA BLA BLA 
BLA BLA BLA BLA BLA BLA BLA BLA BLA BLA BLA BLA BLA BLA BLA BLA BLA BLA BLA BLA 
BLA BLA BLA BLA BLA BLA BLA BLA BLA BLA BLA BLA BLA BLA BLA BLA BLA BLA BLA BLA 
BLA BLA BLA BLA BLA BLA BLA BLA BLA BLA BLA BLA BLA BLA BLA BLA BLA BLA BLA BLA 
BLA BLA BLA BLA BLA BLA BLA BLA BLA BLA BLA BLA BLA BLA BLA BLA BLA BLA BLA BLA 
BLA BLA BLA BLA BLA BLA BLA BLA BLA BLA BLA BLA BLA BLA BLA BLA BLA BLA BLA BLA 
BLA BLA BLA BLA BLA BLA BLA BLA BLA BLA BLA BLA BLA BLA BLA BLA BLA BLA BLA BLA 
BLA BLA BLA BLA BLA BLA BLA BLA BLA BLA BLA BLA BLA BLA BLA BLA BLA BLA BLA BLA 
BLA BLA BLA BLA BLA BLA BLA BLA BLA BLA BLA BLA BLA BLA BLA BLA BLA BLA BLA BLA 
BLA BLA BLA BLA BLA BLA BLA BLA BLA BLA BLA BLA BLA BLA BLA BLA BLA BLA BLA BLA 
BLA BLA BLA BLA BLA BLA BLA BLA BLA BLA BLA BLA BLA BLA BLA BLA BLA BLA BLA BLA 
BLA BLA BLA BLA BLA BLA BLA BLA BLA BLA BLA BLA BLA BLA BLA BLA BLA BLA BLA BLA 
BLA BLA BLA BLA BLA BLA BLA BLA BLA BLA BLA BLA BLA BLA BLA BLA BLA BLA BLA BLA 
BLA BLA BLA BLA BLA BLA BLA BLA BLA BLA BLA BLA BLA BLA BLA BLA BLA BLA BLA BLA 
BLA BLA BLA BLA BLA BLA BLA BLA BLA BLA BLA BLA BLA BLA BLA BLA BLA BLA BLA BLA 
BLA BLA BLA BLA BLA BLA BLA BLA BLA BLA BLA BLA BLA BLA BLA BLA BLA BLA BLA BLA 
BLA BLA BLA BLA BLA BLA BLA BLA BLA BLA BLA BLA BLA BLA BLA BLA BLA BLA BLA BLA 
BLA BLA BLA BLA BLA BLA BLA BLA BLA BLA BLA BLA BLA BLA BLA BLA BLA BLA BLA BLA 
BLA BLA BLA BLA BLA BLA BLA BLA BLA BLA BLA BLA BLA BLA BLA BLA BLA BLA BLA BLA 
BLA BLA BLA BLA BLA BLA BLA BLA BLA BLA BLA BLA BLA BLA BLA BLA BLA BLA BLA BLA 
BLA BLA BLA BLA BLA BLA BLA BLA BLA BLA BLA BLA BLA BLA BLA BLA BLA BLA BLA BLA 
BLA BLA BLA BLA BLA BLA BLA BLA BLA BLA BLA BLA BLA BLA BLA BLA BLA BLA BLA BLA 
BLA BLA BLA BLA BLA BLA BLA BLA BLA BLA BLA BLA BLA BLA BLA BLA BLA BLA BLA BLA 
BLA BLA BLA BLA BLA BLA BLA BLA BLA BLA BLA BLA BLA BLA BLA BLA BLA BLA BLA BLA 
BLA BLA BLA BLA BLA BLA BLA BLA BLA BLA BLA BLA BLA BLA BLA BLA BLA BLA BLA BLA 
BLA BLA BLA BLA BLA BLA BLA BLA BLA BLA BLA BLA BLA BLA BLA BLA BLA BLA BLA BLA 
BLA BLA BLA BLA BLA BLA BLA BLA BLA BLA BLA BLA BLA BLA BLA BLA BLA BLA BLA BLA 
BLA BLA BLA BLA BLA BLA BLA BLA BLA BLA BLA BLA BLA BLA BLA BLA BLA BLA BLA BLA 
BLA BLA BLA BLA BLA BLA BLA BLA BLA BLA BLA BLA BLA BLA BLA BLA BLA BLA BLA BLA 
BLA BLA BLA BLA BLA BLA BLA BLA BLA BLA BLA BLA BLA BLA BLA BLA BLA BLA BLA BLA 
BLA BLA BLA BLA BLA BLA BLA BLA BLA BLA BLA BLA BLA BLA BLA BLA BLA BLA BLA BLA 
BLA BLA BLA BLA BLA BLA BLA BLA BLA BLA BLA BLA BLA BLA BLA BLA BLA BLA BLA BLA 
BLA BLA BLA BLA BLA BLA BLA BLA BLA BLA BLA BLA BLA BLA BLA BLA BLA BLA BLA BLA 
BLA BLA BLA BLA BLA BLA BLA BLA BLA BLA BLA BLA BLA BLA BLA BLA BLA BLA BLA BLA 
BLA BLA BLA BLA BLA BLA BLA BLA BLA BLA BLA BLA BLA BLA BLA BLA BLA BLA BLA BLA 
BLA BLA BLA BLA BLA BLA BLA BLA BLA BLA BLA BLA BLA BLA BLA BLA BLA BLA BLA BLA 
BLA BLA BLA BLA BLA BLA BLA BLA BLA BLA BLA BLA BLA BLA BLA BLA BLA BLA BLA BLA 
BLA BLA BLA BLA BLA BLA BLA BLA BLA BLA BLA BLA BLA BLA BLA BLA BLA BLA BLA BLA 
BLA BLA BLA BLA BLA BLA BLA BLA BLA BLA BLA BLA BLA BLA BLA BLA BLA BLA BLA BLA 
BLA BLA BLA BLA BLA BLA BLA BLA BLA BLA BLA BLA BLA BLA BLA BLA BLA BLA BLA BLA 
BLA BLA BLA BLA BLA BLA BLA BLA BLA BLA BLA BLA BLA BLA BLA BLA BLA BLA BLA BLA 
BLA BLA BLA BLA BLA BLA BLA BLA BLA BLA BLA BLA BLA BLA BLA BLA BLA BLA BLA BLA 
BLA BLA BLA BLA BLA BLA BLA BLA BLA BLA BLA BLA BLA BLA BLA BLA BLA BLA BLA BLA 
BLA BLA BLA BLA BLA BLA BLA BLA BLA BLA BLA BLA BLA BLA BLA BLA BLA BLA BLA BLA 
BLA BLA BLA BLA BLA BLA BLA BLA BLA BLA BLA BLA BLA BLA BLA BLA BLA BLA BLA BLA 
BLA BLA BLA BLA BLA BLA BLA BLA BLA BLA BLA BLA BLA BLA BLA BLA BLA BLA BLA BLA 
BLA BLA BLA BLA BLA BLA BLA BLA BLA BLA BLA BLA BLA BLA BLA BLA BLA BLA BLA BLA 
BLA BLA BLA BLA BLA BLA BLA BLA BLA BLA BLA BLA BLA BLA BLA BLA BLA BLA BLA BLA 
BLA BLA BLA BLA BLA BLA BLA BLA BLA BLA BLA BLA BLA BLA BLA BLA BLA BLA BLA BLA 
BLA BLA BLA BLA BLA BLA BLA BLA BLA BLA BLA BLA BLA BLA BLA BLA BLA BLA BLA BLA 
BLA BLA BLA BLA BLA BLA BLA BLA BLA BLA BLA BLA BLA BLA BLA BLA BLA BLA BLA BLA 
BLA BLA BLA BLA BLA BLA BLA BLA BLA BLA BLA BLA BLA BLA BLA BLA BLA BLA BLA BLA 
BLA BLA BLA BLA BLA BLA BLA BLA BLA BLA BLA BLA BLA BLA BLA BLA BLA BLA BLA BLA 
BLA BLA BLA BLA BLA BLA BLA BLA BLA BLA BLA BLA BLA BLA BLA BLA BLA BLA BLA BLA 
BLA BLA BLA BLA BLA BLA BLA BLA BLA BLA BLA BLA BLA BLA BLA BLA BLA BLA BLA BLA 
BLA BLA BLA BLA BLA BLA BLA BLA BLA BLA BLA BLA BLA BLA BLA BLA BLA BLA BLA BLA 
BLA BLA BLA BLA BLA BLA BLA BLA BLA BLA BLA BLA BLA BLA BLA BLA BLA BLA BLA BLA 
BLA BLA BLA BLA BLA BLA BLA BLA BLA BLA BLA BLA BLA BLA BLA BLA BLA BLA BLA BLA 
BLA BLA BLA BLA BLA BLA BLA BLA BLA BLA BLA BLA BLA BLA BLA BLA BLA BLA BLA BLA 
BLA BLA BLA BLA BLA BLA BLA BLA BLA BLA BLA BLA BLA BLA BLA BLA BLA BLA BLA BLA 
BLA BLA BLA BLA BLA BLA BLA BLA BLA BLA BLA BLA BLA BLA BLA BLA BLA BLA BLA BLA 
BLA BLA BLA BLA BLA BLA BLA BLA BLA BLA BLA BLA BLA BLA BLA BLA BLA BLA BLA BLA 
BLA BLA BLA BLA BLA BLA BLA BLA BLA BLA BLA BLA BLA BLA BLA BLA BLA BLA BLA BLA 
BLA BLA BLA BLA BLA BLA BLA BLA BLA BLA BLA BLA BLA BLA BLA BLA BLA BLA BLA BLA 
BLA BLA BLA BLA BLA BLA BLA BLA BLA BLA BLA BLA BLA BLA BLA BLA BLA BLA BLA BLA 
BLA BLA BLA BLA BLA BLA BLA BLA BLA BLA BLA BLA BLA BLA BLA BLA BLA BLA BLA BLA 
BLA BLA BLA BLA BLA BLA BLA BLA BLA BLA BLA BLA BLA BLA BLA BLA BLA BLA BLA BLA 
BLA BLA BLA BLA BLA BLA BLA BLA BLA BLA BLA BLA BLA BLA BLA BLA BLA BLA BLA BLA 
BLA BLA BLA BLA BLA BLA BLA BLA BLA BLA BLA BLA BLA BLA BLA BLA BLA BLA BLA BLA 
BLA BLA BLA BLA BLA BLA BLA BLA BLA BLA BLA BLA BLA BLA BLA BLA BLA BLA BLA BLA 
BLA BLA BLA BLA BLA BLA BLA BLA BLA BLA BLA BLA BLA BLA BLA BLA BLA BLA BLA BLA 
BLA BLA BLA BLA BLA BLA BLA BLA BLA BLA BLA BLA BLA BLA BLA BLA BLA BLA BLA BLA 
BLA BLA BLA BLA BLA BLA BLA BLA BLA BLA BLA BLA BLA BLA BLA BLA BLA BLA BLA BLA 
BLA BLA BLA BLA BLA BLA BLA BLA BLA BLA BLA BLA BLA BLA BLA BLA BLA BLA BLA BLA 
BLA BLA BLA BLA BLA BLA BLA BLA BLA BLA BLA BLA BLA BLA BLA BLA BLA BLA BLA BLA 
BLA BLA BLA BLA BLA BLA BLA BLA BLA BLA BLA BLA BLA BLA BLA BLA BLA BLA BLA BLA 
BLA BLA BLA BLA BLA BLA BLA BLA BLA BLA BLA BLA BLA BLA BLA BLA BLA BLA BLA BLA 
BLA BLA BLA BLA BLA BLA BLA BLA BLA BLA BLA BLA BLA BLA BLA BLA BLA BLA BLA BLA 
BLA BLA BLA BLA BLA BLA BLA BLA BLA BLA BLA BLA BLA BLA BLA BLA BLA BLA BLA BLA 
BLA BLA BLA BLA BLA BLA BLA BLA BLA BLA BLA BLA BLA BLA BLA BLA BLA BLA BLA BLA 
BLA BLA BLA BLA BLA BLA BLA BLA BLA BLA BLA BLA BLA BLA BLA BLA BLA BLA BLA BLA 
BLA BLA BLA BLA BLA BLA BLA BLA BLA BLA BLA BLA BLA BLA BLA BLA BLA BLA BLA BLA 
BLA BLA BLA BLA BLA BLA BLA BLA BLA BLA BLA BLA BLA BLA BLA BLA BLA BLA BLA BLA 
BLA BLA BLA BLA BLA BLA BLA BLA BLA BLA BLA BLA BLA BLA BLA BLA BLA BLA BLA BLA 
BLA BLA BLA BLA BLA BLA BLA BLA BLA BLA BLA BLA BLA BLA BLA BLA BLA BLA BLA BLA 
BLA BLA BLA BLA BLA BLA BLA BLA BLA BLA BLA BLA BLA BLA BLA BLA BLA BLA BLA BLA 
BLA BLA BLA BLA BLA BLA BLA BLA BLA BLA BLA BLA BLA BLA BLA BLA BLA BLA BLA BLA 
BLA BLA BLA BLA BLA BLA BLA BLA BLA BLA BLA BLA BLA BLA BLA BLA BLA BLA BLA BLA 
BLA BLA BLA BLA BLA BLA BLA BLA BLA BLA BLA BLA BLA BLA BLA BLA BLA BLA BLA BLA 
BLA BLA BLA BLA BLA BLA BLA BLA BLA BLA BLA BLA BLA BLA BLA BLA BLA BLA BLA BLA 
BLA BLA BLA BLA BLA BLA BLA BLA BLA BLA BLA BLA BLA BLA BLA BLA BLA BLA BLA BLA 
BLA BLA BLA BLA BLA BLA BLA BLA BLA BLA BLA BLA BLA BLA BLA BLA BLA BLA BLA BLA 
BLA BLA BLA BLA BLA BLA BLA BLA BLA BLA BLA BLA BLA BLA BLA BLA BLA BLA BLA BLA 
BLA BLA BLA BLA BLA BLA BLA BLA BLA BLA BLA BLA BLA BLA BLA BLA BLA BLA BLA BLA 
BLA BLA BLA BLA BLA BLA BLA BLA BLA BLA BLA BLA BLA BLA BLA BLA BLA BLA BLA BLA 
BLA BLA BLA BLA BLA BLA BLA BLA BLA BLA BLA BLA BLA BLA BLA BLA BLA BLA BLA BLA 
BLA BLA BLA BLA BLA BLA BLA BLA BLA BLA BLA BLA BLA BLA BLA BLA BLA BLA BLA BLA 
BLA BLA BLA BLA BLA BLA BLA BLA BLA BLA BLA BLA BLA BLA BLA BLA BLA BLA BLA BLA 
BLA BLA BLA BLA BLA BLA BLA BLA BLA BLA BLA BLA BLA BLA BLA BLA BLA BLA BLA BLA 
BLA BLA BLA BLA BLA BLA BLA BLA BLA BLA BLA BLA BLA BLA BLA BLA BLA BLA BLA BLA 
BLA BLA BLA BLA BLA BLA BLA BLA BLA BLA BLA BLA BLA BLA BLA BLA BLA BLA BLA BLA 
BLA BLA BLA BLA BLA BLA BLA BLA BLA BLA BLA BLA BLA BLA BLA BLA BLA BLA BLA BLA 
BLA BLA BLA BLA BLA BLA BLA BLA BLA BLA BLA BLA BLA BLA BLA BLA BLA BLA BLA BLA 
BLA BLA BLA BLA BLA BLA BLA BLA BLA BLA BLA BLA BLA BLA BLA BLA BLA BLA BLA BLA 
BLA BLA BLA BLA BLA BLA BLA BLA BLA BLA BLA BLA BLA BLA BLA BLA BLA BLA BLA BLA 
BLA BLA BLA BLA BLA BLA BLA BLA BLA BLA BLA BLA BLA BLA BLA BLA BLA BLA BLA BLA 
BLA BLA BLA BLA BLA BLA BLA BLA BLA BLA BLA BLA BLA BLA BLA BLA BLA BLA BLA BLA 
BLA BLA BLA BLA BLA BLA BLA BLA BLA BLA BLA BLA BLA BLA BLA BLA BLA BLA BLA BLA 
BLA BLA BLA BLA BLA BLA BLA BLA BLA BLA BLA BLA BLA BLA BLA BLA BLA BLA BLA BLA 
BLA BLA BLA BLA BLA BLA BLA BLA BLA BLA BLA BLA BLA BLA BLA BLA BLA BLA BLA BLA 
BLA BLA BLA BLA BLA BLA BLA BLA BLA BLA BLA BLA BLA BLA BLA BLA BLA BLA BLA BLA 
BLA BLA BLA BLA BLA BLA BLA BLA BLA BLA BLA BLA BLA BLA BLA BLA BLA BLA BLA BLA 
BLA BLA BLA BLA BLA BLA BLA BLA BLA BLA BLA BLA BLA BLA BLA BLA BLA BLA BLA BLA 
BLA BLA BLA BLA BLA BLA BLA BLA BLA BLA BLA BLA BLA BLA BLA BLA BLA BLA BLA BLA 
BLA BLA BLA BLA BLA BLA BLA BLA BLA BLA BLA BLA BLA BLA BLA BLA BLA BLA BLA BLA 
BLA BLA BLA BLA BLA BLA BLA BLA BLA BLA BLA BLA BLA BLA BLA BLA BLA BLA BLA BLA 
BLA BLA BLA BLA BLA BLA BLA BLA BLA BLA BLA BLA BLA BLA BLA BLA BLA BLA BLA BLA 
BLA BLA BLA BLA BLA BLA BLA BLA BLA BLA BLA BLA BLA BLA BLA BLA BLA BLA BLA BLA 
BLA BLA BLA BLA BLA BLA BLA BLA BLA BLA BLA BLA BLA BLA BLA BLA BLA BLA BLA BLA 
BLA BLA BLA BLA BLA BLA BLA BLA BLA BLA BLA BLA BLA BLA BLA BLA BLA BLA BLA BLA 
BLA BLA BLA BLA BLA BLA BLA BLA BLA BLA BLA BLA BLA BLA BLA BLA BLA BLA BLA BLA 
BLA BLA BLA BLA BLA BLA BLA BLA BLA BLA BLA BLA BLA BLA BLA BLA BLA BLA BLA BLA 
BLA BLA BLA BLA BLA BLA BLA BLA BLA BLA BLA BLA BLA BLA BLA BLA BLA BLA BLA BLA 
BLA BLA BLA BLA BLA BLA BLA BLA BLA BLA BLA BLA BLA BLA BLA BLA BLA BLA BLA BLA 
BLA BLA BLA BLA BLA BLA BLA BLA BLA BLA BLA BLA BLA BLA BLA BLA BLA BLA BLA BLA 
BLA BLA BLA BLA BLA BLA BLA BLA BLA BLA BLA BLA BLA BLA BLA BLA BLA BLA BLA BLA 
BLA BLA BLA BLA BLA BLA BLA BLA BLA BLA BLA BLA BLA BLA BLA BLA BLA BLA BLA BLA 
BLA BLA BLA BLA BLA BLA BLA BLA BLA BLA BLA BLA BLA BLA BLA BLA BLA BLA BLA BLA 
BLA BLA BLA BLA BLA BLA BLA BLA BLA BLA BLA BLA BLA BLA BLA BLA BLA BLA BLA BLA 
BLA BLA BLA BLA BLA BLA BLA BLA BLA BLA BLA BLA BLA BLA BLA BLA BLA BLA BLA BLA 
BLA BLA BLA BLA BLA BLA BLA BLA BLA BLA BLA BLA BLA BLA BLA BLA BLA BLA BLA BLA 
BLA BLA BLA BLA BLA BLA BLA BLA BLA BLA BLA BLA BLA BLA BLA BLA BLA BLA BLA BLA 
BLA BLA BLA BLA BLA BLA BLA BLA BLA BLA BLA BLA BLA BLA BLA BLA BLA BLA BLA BLA 
BLA BLA BLA BLA BLA BLA BLA BLA BLA BLA BLA BLA BLA BLA BLA BLA BLA BLA BLA BLA 
BLA BLA BLA BLA BLA BLA BLA BLA BLA BLA BLA BLA BLA BLA BLA BLA BLA BLA BLA BLA 
BLA BLA BLA BLA BLA BLA BLA BLA BLA BLA BLA BLA BLA BLA BLA BLA BLA BLA BLA BLA 
BLA BLA BLA BLA BLA BLA BLA BLA BLA BLA BLA BLA BLA BLA BLA BLA BLA BLA BLA BLA 
BLA BLA BLA BLA BLA BLA BLA BLA BLA BLA BLA BLA BLA BLA BLA BLA BLA BLA BLA BLA 
BLA BLA BLA BLA BLA BLA BLA BLA BLA BLA BLA BLA BLA BLA BLA BLA BLA BLA BLA BLA 
BLA BLA BLA BLA BLA BLA BLA BLA BLA BLA BLA BLA BLA BLA BLA BLA BLA BLA BLA BLA 
BLA BLA BLA BLA BLA BLA BLA BLA BLA BLA BLA BLA BLA BLA BLA BLA BLA BLA BLA BLA 
BLA BLA BLA BLA BLA BLA BLA BLA BLA BLA BLA BLA BLA BLA BLA BLA BLA BLA BLA BLA 
BLA BLA BLA BLA BLA BLA BLA BLA BLA BLA BLA BLA BLA BLA BLA BLA BLA BLA BLA BLA 
BLA BLA BLA BLA BLA BLA BLA BLA BLA BLA BLA BLA BLA BLA BLA BLA BLA BLA BLA BLA 
BLA BLA BLA BLA BLA BLA BLA BLA BLA BLA BLA BLA BLA BLA BLA BLA BLA BLA BLA BLA 
BLA BLA BLA BLA BLA BLA BLA BLA BLA BLA BLA BLA BLA BLA BLA BLA BLA BLA BLA BLA 
BLA BLA BLA BLA BLA BLA BLA BLA BLA BLA BLA BLA BLA BLA BLA BLA BLA BLA BLA BLA 
BLA BLA BLA BLA BLA BLA BLA BLA BLA BLA BLA BLA BLA BLA BLA BLA BLA BLA BLA BLA 
BLA BLA BLA BLA BLA BLA BLA BLA BLA BLA BLA BLA BLA BLA BLA BLA BLA BLA BLA BLA 
BLA BLA BLA BLA BLA BLA BLA BLA BLA BLA BLA BLA BLA BLA BLA BLA BLA BLA BLA BLA 
BLA BLA BLA BLA BLA BLA BLA BLA BLA BLA BLA BLA BLA BLA BLA BLA BLA BLA BLA BLA 
BLA BLA BLA BLA BLA BLA BLA BLA BLA BLA BLA BLA BLA BLA BLA BLA BLA BLA BLA BLA 
BLA BLA BLA BLA BLA BLA BLA BLA BLA BLA BLA BLA BLA BLA BLA BLA BLA BLA BLA BLA 
BLA BLA BLA BLA BLA BLA BLA BLA BLA BLA BLA BLA BLA BLA BLA BLA BLA BLA BLA BLA 
BLA BLA BLA BLA BLA BLA BLA BLA BLA BLA BLA BLA BLA BLA BLA BLA BLA BLA BLA BLA 
BLA BLA BLA BLA BLA BLA BLA BLA BLA BLA BLA BLA BLA BLA BLA BLA BLA BLA BLA BLA 
BLA BLA BLA BLA BLA BLA BLA BLA BLA BLA BLA BLA BLA BLA BLA BLA BLA BLA BLA BLA 
BLA BLA BLA BLA BLA BLA BLA BLA BLA BLA BLA BLA BLA BLA BLA BLA BLA BLA BLA BLA 
BLA BLA BLA BLA BLA BLA BLA BLA BLA BLA BLA BLA BLA BLA BLA BLA BLA BLA BLA BLA 
BLA BLA BLA BLA BLA BLA BLA BLA BLA BLA BLA BLA BLA BLA BLA BLA BLA BLA BLA BLA 
BLA BLA BLA BLA BLA BLA BLA BLA BLA BLA BLA BLA BLA BLA BLA BLA BLA BLA BLA BLA 
BLA BLA BLA BLA BLA BLA BLA BLA BLA BLA BLA BLA BLA BLA BLA BLA BLA BLA BLA BLA 
BLA BLA BLA BLA BLA BLA BLA BLA BLA BLA BLA BLA BLA BLA BLA BLA BLA BLA BLA BLA 
BLA BLA BLA BLA BLA BLA BLA BLA BLA BLA BLA BLA BLA BLA BLA BLA BLA BLA BLA BLA 
BLA BLA BLA BLA BLA BLA BLA BLA BLA BLA BLA BLA BLA BLA BLA BLA BLA BLA BLA BLA 
BLA BLA BLA BLA BLA BLA BLA BLA BLA BLA BLA BLA BLA BLA BLA BLA BLA BLA BLA BLA 
BLA BLA BLA BLA BLA BLA BLA BLA BLA BLA BLA BLA BLA BLA BLA BLA BLA BLA BLA BLA 
BLA BLA BLA BLA BLA BLA BLA BLA BLA BLA BLA BLA BLA BLA BLA BLA BLA BLA BLA BLA 
BLA BLA BLA BLA BLA BLA BLA BLA BLA BLA BLA BLA BLA BLA BLA BLA BLA BLA BLA BLA 
BLA BLA BLA BLA BLA BLA BLA BLA BLA BLA BLA BLA BLA BLA BLA BLA BLA BLA BLA BLA 
BLA BLA BLA BLA BLA BLA BLA BLA BLA BLA BLA BLA BLA BLA BLA BLA BLA BLA BLA BLA 
BLA BLA BLA BLA BLA BLA BLA BLA BLA BLA BLA BLA BLA BLA BLA BLA BLA BLA BLA BLA 
BLA BLA BLA BLA BLA BLA BLA BLA BLA BLA BLA BLA BLA BLA BLA BLA BLA BLA BLA BLA 
BLA BLA BLA BLA BLA BLA BLA BLA BLA BLA BLA BLA BLA BLA BLA BLA BLA BLA BLA BLA 
BLA BLA BLA BLA BLA BLA BLA BLA BLA BLA BLA BLA BLA BLA BLA BLA BLA BLA BLA BLA 
BLA BLA BLA BLA BLA BLA BLA BLA BLA BLA BLA BLA BLA BLA BLA BLA BLA BLA BLA BLA 
BLA BLA BLA BLA BLA BLA BLA BLA BLA BLA BLA BLA BLA BLA BLA BLA BLA BLA BLA BLA 
BLA BLA BLA BLA BLA BLA BLA BLA BLA BLA BLA BLA BLA BLA BLA BLA BLA BLA BLA BLA 
BLA BLA BLA BLA BLA BLA BLA BLA BLA BLA BLA BLA BLA BLA BLA BLA BLA BLA BLA BLA 
BLA BLA BLA BLA BLA BLA BLA BLA BLA BLA BLA BLA BLA BLA BLA BLA BLA BLA BLA BLA 
BLA BLA BLA BLA BLA BLA BLA BLA BLA BLA BLA BLA BLA BLA BLA BLA BLA BLA BLA BLA 
BLA BLA BLA BLA BLA BLA BLA BLA BLA BLA BLA BLA BLA BLA BLA BLA BLA BLA BLA BLA 
BLA BLA BLA BLA BLA BLA BLA BLA BLA BLA BLA BLA BLA BLA BLA BLA BLA BLA BLA BLA 
BLA BLA BLA BLA BLA BLA BLA BLA BLA BLA BLA BLA BLA BLA BLA BLA BLA BLA BLA BLA 
BLA BLA BLA BLA BLA BLA BLA BLA BLA BLA BLA BLA BLA BLA BLA BLA BLA BLA BLA BLA 
BLA BLA BLA BLA BLA BLA BLA BLA BLA BLA BLA BLA BLA BLA BLA BLA BLA BLA BLA BLA 
BLA BLA BLA BLA BLA BLA BLA BLA BLA BLA BLA BLA BLA BLA BLA BLA BLA BLA BLA BLA 
BLA BLA BLA BLA BLA BLA BLA BLA BLA BLA BLA BLA BLA BLA BLA BLA BLA BLA BLA BLA 
BLA BLA BLA BLA BLA BLA BLA BLA BLA BLA BLA BLA BLA BLA BLA BLA BLA BLA BLA BLA 
BLA BLA BLA BLA BLA BLA BLA BLA BLA BLA BLA BLA BLA BLA BLA BLA BLA BLA BLA BLA 
BLA BLA BLA BLA BLA BLA BLA BLA BLA BLA BLA BLA BLA BLA BLA BLA BLA BLA BLA BLA 
BLA BLA BLA BLA BLA BLA BLA BLA BLA BLA BLA BLA BLA BLA BLA BLA BLA BLA BLA BLA 
BLA BLA BLA BLA BLA BLA BLA BLA BLA BLA BLA BLA BLA BLA BLA BLA BLA BLA BLA BLA 
BLA BLA BLA BLA BLA BLA BLA BLA BLA BLA BLA BLA BLA BLA BLA BLA BLA BLA BLA BLA 
BLA BLA BLA BLA BLA BLA BLA BLA BLA BLA BLA BLA BLA BLA BLA BLA BLA BLA BLA BLA 
BLA BLA BLA BLA BLA BLA BLA BLA BLA BLA BLA BLA BLA BLA BLA BLA BLA BLA BLA BLA 
BLA BLA BLA BLA BLA BLA BLA BLA BLA BLA BLA BLA BLA BLA BLA BLA BLA BLA BLA BLA 
BLA BLA BLA BLA BLA BLA BLA BLA BLA BLA BLA BLA BLA BLA BLA BLA BLA BLA BLA BLA 
BLA BLA BLA BLA BLA BLA BLA BLA BLA BLA BLA BLA BLA BLA BLA BLA BLA BLA BLA BLA 
BLA BLA BLA BLA BLA BLA BLA BLA BLA BLA BLA BLA BLA BLA BLA BLA BLA BLA BLA BLA 
BLA BLA BLA BLA BLA BLA BLA BLA BLA BLA BLA BLA BLA BLA BLA BLA BLA BLA BLA BLA 
BLA BLA BLA BLA BLA BLA BLA BLA BLA BLA BLA BLA BLA BLA BLA BLA BLA BLA BLA BLA 
BLA BLA BLA BLA BLA BLA BLA BLA BLA BLA BLA BLA BLA BLA BLA BLA BLA BLA BLA BLA 
BLA BLA BLA BLA BLA BLA BLA BLA BLA BLA BLA BLA BLA BLA BLA BLA BLA BLA BLA BLA 
BLA BLA BLA BLA BLA BLA BLA BLA BLA BLA BLA BLA BLA BLA BLA BLA BLA BLA BLA BLA 
BLA BLA BLA BLA BLA BLA BLA BLA BLA BLA BLA BLA BLA BLA BLA BLA BLA BLA BLA BLA 
BLA BLA BLA BLA BLA BLA BLA BLA BLA BLA BLA BLA BLA BLA BLA BLA BLA BLA BLA BLA 
BLA BLA BLA BLA BLA BLA BLA BLA BLA BLA BLA BLA BLA BLA BLA BLA BLA BLA BLA BLA 
BLA BLA BLA BLA BLA BLA BLA BLA BLA BLA BLA BLA BLA BLA BLA BLA BLA BLA BLA BLA 
BLA BLA BLA BLA BLA BLA BLA BLA BLA BLA BLA BLA BLA BLA BLA BLA BLA BLA BLA BLA 
BLA BLA BLA BLA BLA BLA BLA BLA BLA BLA BLA BLA BLA BLA BLA BLA BLA BLA BLA BLA 
BLA BLA BLA BLA BLA BLA BLA BLA BLA BLA BLA BLA BLA BLA BLA BLA BLA BLA BLA BLA 
BLA BLA BLA BLA BLA BLA BLA BLA BLA BLA BLA BLA BLA BLA BLA BLA BLA BLA BLA BLA 
BLA BLA BLA BLA BLA BLA BLA BLA BLA BLA BLA BLA BLA BLA BLA BLA BLA BLA BLA BLA 
BLA BLA BLA BLA BLA BLA BLA BLA BLA BLA BLA BLA BLA BLA BLA BLA BLA BLA BLA BLA 
BLA BLA BLA BLA BLA BLA BLA BLA BLA BLA BLA BLA BLA BLA BLA BLA BLA BLA BLA BLA 
BLA BLA BLA BLA BLA BLA BLA BLA BLA BLA BLA BLA BLA BLA BLA BLA BLA BLA BLA BLA 
BLA BLA BLA BLA BLA BLA BLA BLA BLA BLA BLA BLA BLA BLA BLA BLA BLA BLA BLA BLA 
BLA BLA BLA BLA BLA BLA BLA BLA BLA BLA BLA BLA BLA BLA BLA BLA BLA BLA BLA BLA 
BLA BLA BLA BLA BLA BLA BLA BLA BLA BLA BLA BLA BLA BLA BLA BLA BLA BLA BLA BLA 
BLA BLA BLA BLA BLA BLA BLA BLA BLA BLA BLA BLA BLA BLA BLA BLA BLA BLA BLA BLA 
BLA BLA BLA BLA BLA BLA BLA BLA BLA BLA BLA BLA BLA BLA BLA BLA BLA BLA BLA BLA 
BLA BLA BLA BLA BLA BLA BLA BLA BLA BLA BLA BLA BLA BLA BLA BLA BLA BLA BLA BLA 
BLA BLA BLA BLA BLA BLA BLA BLA BLA BLA BLA BLA BLA BLA BLA BLA BLA BLA BLA BLA 
BLA BLA BLA BLA BLA BLA BLA BLA BLA BLA BLA BLA BLA BLA BLA BLA BLA BLA BLA BLA 
BLA BLA BLA BLA BLA BLA BLA BLA BLA BLA BLA BLA BLA BLA BLA BLA BLA BLA BLA BLA 
BLA BLA BLA BLA BLA BLA BLA BLA BLA BLA BLA BLA BLA BLA BLA BLA BLA BLA BLA BLA 
BLA BLA BLA BLA BLA BLA BLA BLA BLA BLA BLA BLA BLA BLA BLA BLA BLA BLA BLA BLA 
BLA BLA BLA BLA BLA BLA BLA BLA BLA BLA BLA BLA BLA BLA BLA BLA BLA BLA BLA BLA 
BLA BLA BLA BLA BLA BLA BLA BLA BLA BLA BLA BLA BLA BLA BLA BLA BLA BLA BLA BLA 
BLA BLA BLA BLA BLA BLA BLA BLA BLA BLA BLA BLA BLA BLA BLA BLA BLA BLA BLA BLA 
BLA BLA BLA BLA BLA BLA BLA BLA BLA BLA BLA BLA BLA BLA BLA BLA BLA BLA BLA BLA 
BLA BLA BLA BLA BLA BLA BLA BLA BLA BLA BLA BLA BLA BLA BLA BLA BLA BLA BLA BLA 
BLA BLA BLA BLA BLA BLA BLA BLA BLA BLA BLA BLA BLA BLA BLA BLA BLA BLA BLA BLA 
BLA BLA BLA BLA BLA BLA BLA BLA BLA BLA BLA BLA BLA BLA BLA BLA BLA BLA BLA BLA 
BLA BLA BLA BLA BLA BLA BLA BLA BLA BLA BLA BLA BLA BLA BLA BLA BLA BLA BLA BLA 
BLA BLA BLA BLA BLA BLA BLA BLA BLA BLA BLA BLA BLA BLA BLA BLA BLA BLA BLA BLA 
BLA BLA BLA BLA BLA BLA BLA BLA BLA BLA BLA BLA BLA BLA BLA BLA BLA BLA BLA BLA 
BLA BLA BLA BLA BLA BLA BLA BLA BLA BLA BLA BLA BLA BLA BLA BLA BLA BLA BLA BLA 
BLA BLA BLA BLA BLA BLA BLA BLA BLA BLA BLA BLA BLA BLA BLA BLA BLA BLA BLA BLA 
BLA BLA BLA BLA BLA BLA BLA BLA BLA BLA BLA BLA BLA BLA BLA BLA BLA BLA BLA BLA 
BLA BLA BLA BLA BLA BLA BLA BLA BLA BLA BLA BLA BLA BLA BLA BLA BLA BLA BLA BLA 
BLA BLA BLA BLA BLA BLA BLA BLA BLA BLA BLA BLA BLA BLA BLA BLA BLA BLA BLA BLA 
BLA BLA BLA BLA BLA BLA BLA BLA BLA BLA BLA BLA BLA BLA BLA BLA BLA BLA BLA BLA 
BLA BLA BLA BLA BLA BLA BLA BLA BLA BLA BLA BLA BLA BLA BLA BLA BLA BLA BLA BLA 
BLA BLA BLA BLA BLA BLA BLA BLA BLA BLA BLA BLA BLA BLA BLA BLA BLA BLA BLA BLA 
BLA BLA BLA BLA BLA BLA BLA BLA BLA BLA BLA BLA BLA BLA BLA BLA BLA BLA BLA BLA 
BLA BLA BLA BLA BLA BLA BLA BLA BLA BLA BLA BLA BLA BLA BLA BLA BLA BLA BLA BLA 
BLA BLA BLA BLA BLA BLA BLA BLA BLA BLA BLA BLA BLA BLA BLA BLA BLA BLA BLA BLA 
BLA BLA BLA BLA BLA BLA BLA BLA BLA BLA BLA BLA BLA BLA BLA BLA BLA BLA BLA BLA 
BLA BLA BLA BLA BLA BLA BLA BLA BLA BLA BLA BLA BLA BLA BLA BLA BLA BLA BLA BLA 
BLA BLA BLA BLA BLA BLA BLA BLA BLA BLA BLA BLA BLA BLA BLA BLA BLA BLA BLA BLA 
BLA BLA BLA BLA BLA BLA BLA BLA BLA BLA BLA BLA BLA BLA BLA BLA BLA BLA BLA BLA 
BLA BLA BLA BLA BLA BLA BLA BLA BLA BLA BLA BLA BLA BLA BLA BLA BLA BLA BLA BLA 
BLA BLA BLA BLA BLA BLA BLA BLA BLA BLA BLA BLA BLA BLA BLA BLA BLA BLA BLA BLA 
BLA BLA BLA BLA BLA BLA BLA BLA BLA BLA BLA BLA BLA BLA BLA BLA BLA BLA BLA BLA 
BLA BLA BLA BLA BLA BLA BLA BLA BLA BLA BLA BLA BLA BLA BLA BLA BLA BLA BLA BLA 
BLA BLA BLA BLA BLA BLA BLA BLA BLA BLA BLA BLA BLA BLA BLA BLA BLA BLA BLA BLA 
BLA BLA BLA BLA BLA BLA BLA BLA BLA BLA BLA BLA BLA BLA BLA BLA BLA BLA BLA BLA 
BLA BLA BLA BLA BLA BLA BLA BLA BLA BLA BLA BLA BLA BLA BLA BLA BLA BLA BLA BLA 
BLA BLA BLA BLA BLA BLA BLA BLA BLA BLA BLA BLA BLA BLA BLA BLA BLA BLA BLA BLA 
BLA BLA BLA BLA BLA BLA BLA BLA BLA BLA BLA BLA BLA BLA BLA BLA BLA BLA BLA BLA 
BLA BLA BLA BLA BLA BLA BLA BLA BLA BLA BLA BLA BLA BLA BLA BLA BLA BLA BLA BLA 
BLA BLA BLA BLA BLA BLA BLA BLA BLA BLA BLA BLA BLA BLA BLA BLA BLA BLA BLA BLA 
BLA BLA BLA BLA BLA BLA BLA BLA BLA BLA BLA BLA BLA BLA BLA BLA BLA BLA BLA BLA 
BLA BLA BLA BLA BLA BLA BLA BLA BLA BLA BLA BLA BLA BLA BLA BLA BLA BLA BLA BLA 
BLA BLA BLA BLA BLA BLA BLA BLA BLA BLA BLA BLA BLA BLA BLA BLA BLA BLA BLA BLA 
BLA BLA BLA BLA BLA BLA BLA BLA BLA BLA BLA BLA BLA BLA BLA BLA BLA BLA BLA BLA 
BLA BLA BLA BLA BLA BLA BLA BLA BLA BLA BLA BLA BLA BLA BLA BLA BLA BLA BLA BLA 
BLA BLA BLA BLA BLA BLA BLA BLA BLA BLA BLA BLA BLA BLA BLA BLA BLA BLA BLA BLA 
BLA BLA BLA BLA BLA BLA BLA BLA BLA BLA BLA BLA BLA BLA BLA BLA BLA BLA BLA BLA 
BLA BLA BLA BLA BLA BLA BLA BLA BLA BLA BLA BLA BLA BLA BLA BLA BLA BLA BLA BLA 
BLA BLA BLA BLA BLA BLA BLA BLA BLA BLA BLA BLA BLA BLA BLA BLA BLA BLA BLA BLA 
BLA BLA BLA BLA BLA BLA BLA BLA BLA BLA BLA BLA BLA BLA BLA BLA BLA BLA BLA BLA 
BLA BLA BLA BLA BLA BLA BLA BLA BLA BLA BLA BLA BLA BLA BLA BLA BLA BLA BLA BLA 
BLA BLA BLA BLA BLA BLA BLA BLA BLA BLA BLA BLA BLA BLA BLA BLA BLA BLA BLA BLA 
BLA BLA BLA BLA BLA BLA BLA BLA BLA BLA BLA BLA BLA BLA BLA BLA BLA BLA BLA BLA 
BLA BLA BLA BLA BLA BLA BLA BLA BLA BLA BLA BLA BLA BLA BLA BLA BLA BLA BLA BLA 
BLA BLA BLA BLA BLA BLA BLA BLA BLA BLA BLA BLA BLA BLA BLA BLA BLA BLA BLA BLA 
BLA BLA BLA BLA BLA BLA BLA BLA BLA BLA BLA BLA BLA BLA BLA BLA BLA BLA BLA BLA 
BLA BLA BLA BLA BLA BLA BLA BLA BLA BLA BLA BLA BLA BLA BLA BLA BLA BLA BLA BLA 
BLA BLA BLA BLA BLA BLA BLA BLA BLA BLA BLA BLA BLA BLA BLA BLA BLA BLA BLA BLA 
BLA BLA BLA BLA BLA BLA BLA BLA BLA BLA BLA BLA BLA BLA BLA BLA BLA BLA BLA BLA 
BLA BLA BLA BLA BLA BLA BLA BLA BLA BLA BLA BLA BLA BLA BLA BLA BLA BLA BLA BLA 
BLA BLA BLA BLA BLA BLA BLA BLA BLA BLA BLA BLA BLA BLA BLA BLA BLA BLA BLA BLA 
BLA BLA BLA BLA BLA BLA BLA BLA BLA BLA BLA BLA BLA BLA BLA BLA BLA BLA BLA BLA 
BLA BLA BLA BLA BLA BLA BLA BLA BLA BLA BLA BLA BLA BLA BLA BLA BLA BLA BLA BLA 
BLA BLA BLA BLA BLA BLA BLA BLA BLA BLA BLA BLA BLA BLA BLA BLA BLA BLA BLA BLA 
BLA BLA BLA BLA BLA BLA BLA BLA BLA BLA BLA BLA BLA BLA BLA BLA BLA BLA BLA BLA 
BLA BLA BLA BLA BLA BLA BLA BLA BLA BLA BLA BLA BLA BLA BLA BLA BLA BLA BLA BLA 
BLA BLA BLA BLA BLA BLA BLA BLA BLA BLA BLA BLA BLA BLA BLA BLA BLA BLA BLA BLA 
BLA BLA BLA BLA BLA BLA BLA BLA BLA BLA BLA BLA BLA BLA BLA BLA BLA BLA BLA BLA 
BLA BLA BLA BLA BLA BLA BLA BLA BLA BLA BLA BLA BLA BLA BLA BLA BLA BLA BLA BLA 
BLA BLA BLA BLA BLA BLA BLA BLA BLA BLA BLA BLA BLA BLA BLA BLA BLA BLA BLA BLA 
BLA BLA BLA BLA BLA BLA BLA BLA BLA BLA BLA BLA BLA BLA BLA BLA BLA BLA BLA BLA 
BLA BLA BLA BLA BLA BLA BLA BLA BLA BLA BLA BLA BLA BLA BLA BLA BLA BLA BLA BLA 
BLA BLA BLA BLA BLA BLA BLA BLA BLA BLA BLA BLA BLA BLA BLA BLA BLA BLA BLA BLA 
BLA BLA BLA BLA BLA BLA BLA BLA BLA BLA BLA BLA BLA BLA BLA BLA BLA BLA BLA BLA 
BLA BLA BLA BLA BLA BLA BLA BLA BLA BLA BLA BLA BLA BLA BLA BLA BLA BLA BLA BLA 
BLA BLA BLA BLA BLA BLA BLA BLA BLA BLA BLA BLA BLA BLA BLA BLA BLA BLA BLA BLA 
BLA BLA BLA BLA BLA BLA BLA BLA BLA BLA BLA BLA BLA BLA BLA BLA BLA BLA BLA BLA 
BLA BLA BLA BLA BLA BLA BLA BLA BLA BLA BLA BLA BLA BLA BLA BLA BLA BLA BLA BLA 
BLA BLA BLA BLA BLA BLA BLA BLA BLA BLA BLA BLA BLA BLA BLA BLA BLA BLA BLA BLA 
BLA BLA BLA BLA BLA BLA BLA BLA BLA BLA BLA BLA BLA BLA BLA BLA BLA BLA BLA BLA 
BLA BLA BLA BLA BLA BLA BLA BLA BLA BLA BLA BLA BLA BLA BLA BLA BLA BLA BLA BLA 
BLA BLA BLA BLA BLA BLA BLA BLA BLA BLA BLA BLA BLA BLA BLA BLA BLA BLA BLA BLA 
BLA BLA BLA BLA BLA BLA BLA BLA BLA BLA BLA BLA BLA BLA BLA BLA BLA BLA BLA BLA 
BLA BLA BLA BLA BLA BLA BLA BLA BLA BLA BLA BLA BLA BLA BLA BLA BLA BLA BLA BLA 
BLA BLA BLA BLA BLA BLA BLA BLA BLA BLA BLA BLA BLA BLA BLA BLA BLA BLA BLA BLA 
BLA BLA BLA BLA BLA BLA BLA BLA BLA BLA BLA BLA BLA BLA BLA BLA BLA BLA BLA BLA 
BLA BLA BLA BLA BLA BLA BLA BLA BLA BLA BLA BLA BLA BLA BLA BLA BLA BLA BLA BLA 
BLA BLA BLA BLA BLA BLA BLA BLA BLA BLA BLA BLA BLA BLA BLA BLA BLA BLA BLA BLA 
BLA BLA BLA BLA BLA BLA BLA BLA BLA BLA BLA BLA BLA BLA BLA BLA BLA BLA BLA BLA 
BLA BLA BLA BLA BLA BLA BLA BLA BLA BLA BLA BLA BLA BLA BLA BLA BLA BLA BLA BLA 
BLA BLA BLA BLA BLA BLA BLA BLA BLA BLA BLA BLA BLA BLA BLA BLA BLA BLA BLA BLA 
BLA BLA BLA BLA BLA BLA BLA BLA BLA BLA BLA BLA BLA BLA BLA BLA BLA BLA BLA BLA 
BLA BLA BLA BLA BLA BLA BLA BLA BLA BLA BLA BLA BLA BLA BLA BLA BLA BLA BLA BLA 
BLA BLA BLA BLA BLA BLA BLA BLA BLA BLA BLA BLA BLA BLA BLA BLA BLA BLA BLA BLA 
BLA BLA BLA BLA BLA BLA BLA BLA BLA BLA BLA BLA BLA BLA BLA BLA BLA BLA BLA BLA 
BLA BLA BLA BLA BLA BLA BLA BLA BLA BLA BLA BLA BLA BLA BLA BLA BLA BLA BLA BLA 
BLA BLA BLA BLA BLA BLA BLA BLA BLA BLA BLA BLA BLA BLA BLA BLA BLA BLA BLA BLA 
BLA BLA BLA BLA BLA BLA BLA BLA BLA BLA BLA BLA BLA BLA BLA BLA BLA BLA BLA BLA 
BLA BLA BLA BLA BLA BLA BLA BLA BLA BLA BLA BLA BLA BLA BLA BLA BLA BLA BLA BLA 
BLA BLA BLA BLA BLA BLA BLA BLA BLA BLA BLA BLA BLA BLA BLA BLA BLA BLA BLA BLA 
BLA BLA BLA BLA BLA BLA BLA BLA BLA BLA BLA BLA BLA BLA BLA BLA BLA BLA BLA BLA 
BLA BLA BLA BLA BLA BLA BLA BLA BLA BLA BLA BLA BLA BLA BLA BLA BLA BLA BLA BLA 
BLA BLA BLA BLA BLA BLA BLA BLA BLA BLA BLA BLA BLA BLA BLA BLA BLA BLA BLA BLA 
BLA BLA BLA BLA BLA BLA BLA BLA BLA BLA BLA BLA BLA BLA BLA BLA BLA BLA BLA BLA 
BLA BLA BLA BLA BLA BLA BLA BLA BLA BLA BLA BLA BLA BLA BLA BLA BLA BLA BLA BLA 
BLA BLA BLA BLA BLA BLA BLA BLA BLA BLA BLA BLA BLA BLA BLA BLA BLA BLA BLA BLA 
BLA BLA BLA BLA BLA BLA BLA BLA BLA BLA BLA BLA BLA BLA BLA BLA BLA BLA BLA BLA 
BLA BLA BLA BLA BLA BLA BLA BLA BLA BLA BLA BLA BLA BLA BLA BLA BLA BLA BLA BLA 
BLA BLA BLA BLA BLA BLA BLA BLA BLA BLA BLA BLA BLA BLA BLA BLA BLA BLA BLA BLA 
BLA BLA BLA BLA BLA BLA BLA BLA BLA BLA BLA BLA BLA BLA BLA BLA BLA BLA BLA BLA 
BLA BLA BLA BLA BLA BLA BLA BLA BLA BLA BLA BLA BLA BLA BLA BLA BLA BLA BLA BLA 
BLA BLA BLA BLA BLA BLA BLA BLA BLA BLA BLA BLA BLA BLA BLA BLA BLA BLA BLA BLA 
BLA BLA BLA BLA BLA BLA BLA BLA BLA BLA BLA BLA BLA BLA BLA BLA BLA BLA BLA BLA 
BLA BLA BLA BLA BLA BLA BLA BLA BLA BLA BLA BLA BLA BLA BLA BLA BLA BLA BLA BLA 
BLA BLA BLA BLA BLA BLA BLA BLA BLA BLA BLA BLA BLA BLA BLA BLA BLA BLA BLA BLA 
BLA BLA BLA BLA BLA BLA BLA BLA BLA BLA BLA BLA BLA BLA BLA BLA BLA BLA BLA BLA 
BLA BLA BLA BLA BLA BLA BLA BLA BLA BLA BLA BLA BLA BLA BLA BLA BLA BLA BLA BLA 
BLA BLA BLA BLA BLA BLA BLA BLA BLA BLA BLA BLA BLA BLA BLA BLA BLA BLA BLA BLA 
BLA BLA BLA BLA BLA BLA BLA BLA BLA BLA BLA BLA BLA BLA BLA BLA BLA BLA BLA BLA 
BLA BLA BLA BLA BLA BLA BLA BLA BLA BLA BLA BLA BLA BLA BLA BLA BLA BLA BLA BLA 
BLA BLA BLA BLA BLA BLA BLA BLA BLA BLA BLA BLA BLA BLA BLA BLA BLA BLA BLA BLA 
BLA BLA BLA BLA BLA BLA BLA BLA BLA BLA BLA BLA BLA BLA BLA BLA BLA BLA BLA BLA 
BLA BLA BLA BLA BLA BLA BLA BLA BLA BLA BLA BLA BLA BLA BLA BLA BLA BLA BLA BLA 
BLA BLA BLA BLA BLA BLA BLA BLA BLA BLA BLA BLA BLA BLA BLA BLA BLA BLA BLA BLA 
BLA BLA BLA BLA BLA BLA BLA BLA BLA BLA BLA BLA BLA BLA BLA BLA BLA BLA BLA BLA 
BLA BLA BLA BLA BLA BLA BLA BLA BLA BLA BLA BLA BLA BLA BLA BLA BLA BLA BLA BLA 
BLA BLA BLA BLA BLA BLA BLA BLA BLA BLA BLA BLA BLA BLA BLA BLA BLA BLA BLA BLA 
BLA BLA BLA BLA BLA BLA BLA BLA BLA BLA BLA BLA BLA BLA BLA BLA BLA BLA BLA BLA 
BLA BLA BLA BLA BLA BLA BLA BLA BLA BLA BLA BLA BLA BLA BLA BLA BLA BLA BLA BLA 
BLA BLA BLA BLA BLA BLA BLA BLA BLA BLA BLA BLA BLA BLA BLA BLA BLA BLA BLA BLA 
BLA BLA BLA BLA BLA BLA BLA BLA BLA BLA BLA BLA BLA BLA BLA BLA BLA BLA BLA BLA 
BLA BLA BLA BLA BLA BLA BLA BLA BLA BLA BLA BLA BLA BLA BLA BLA BLA BLA BLA BLA 
BLA BLA BLA BLA BLA BLA BLA BLA BLA BLA BLA BLA BLA BLA BLA BLA BLA BLA BLA BLA 
BLA BLA BLA BLA BLA BLA BLA BLA BLA BLA BLA BLA BLA BLA BLA BLA BLA BLA BLA BLA 
BLA BLA BLA BLA BLA BLA BLA BLA BLA BLA BLA BLA BLA BLA BLA BLA BLA BLA BLA BLA 
BLA BLA BLA BLA BLA BLA BLA BLA BLA BLA BLA BLA BLA BLA BLA BLA BLA BLA BLA BLA 
BLA BLA BLA BLA BLA BLA BLA BLA BLA BLA BLA BLA BLA BLA BLA BLA BLA BLA BLA BLA 
BLA BLA BLA BLA BLA BLA BLA BLA BLA BLA BLA BLA BLA BLA BLA BLA BLA BLA BLA BLA 
BLA BLA BLA BLA BLA BLA BLA BLA BLA BLA BLA BLA BLA BLA BLA BLA BLA BLA BLA BLA 
BLA BLA BLA BLA BLA BLA BLA BLA BLA BLA BLA BLA BLA BLA BLA BLA BLA BLA BLA BLA 
BLA BLA BLA BLA BLA BLA BLA BLA BLA BLA BLA BLA BLA BLA BLA BLA BLA BLA BLA BLA 
BLA BLA BLA BLA BLA BLA BLA BLA BLA BLA BLA BLA BLA BLA BLA BLA BLA BLA BLA BLA 
BLA BLA BLA BLA BLA BLA BLA BLA BLA BLA BLA BLA BLA BLA BLA BLA BLA BLA BLA BLA 
BLA BLA BLA BLA BLA BLA BLA BLA BLA BLA BLA BLA BLA BLA BLA BLA BLA BLA BLA BLA 
BLA BLA BLA BLA BLA BLA BLA BLA BLA BLA BLA BLA BLA BLA BLA BLA BLA BLA BLA BLA 
BLA BLA BLA BLA BLA BLA BLA BLA BLA BLA BLA BLA BLA BLA BLA BLA BLA BLA BLA BLA 
BLA BLA BLA BLA BLA BLA BLA BLA BLA BLA BLA BLA BLA BLA BLA BLA BLA BLA BLA BLA 
BLA BLA BLA BLA BLA BLA BLA BLA BLA BLA BLA BLA BLA BLA BLA BLA BLA BLA BLA BLA 
BLA BLA BLA BLA BLA BLA BLA BLA BLA BLA BLA BLA BLA BLA BLA BLA BLA BLA BLA BLA 
BLA BLA BLA BLA BLA BLA BLA BLA BLA BLA BLA BLA BLA BLA BLA BLA BLA BLA BLA BLA 
BLA BLA BLA BLA BLA BLA BLA BLA BLA BLA BLA BLA BLA BLA BLA BLA BLA BLA BLA BLA 
BLA BLA BLA BLA BLA BLA BLA BLA BLA BLA BLA BLA BLA BLA BLA BLA BLA BLA BLA BLA 
BLA BLA BLA BLA BLA BLA BLA BLA BLA BLA BLA BLA BLA BLA BLA BLA BLA BLA BLA BLA 
BLA BLA BLA BLA BLA BLA BLA BLA BLA BLA BLA BLA BLA BLA BLA BLA BLA BLA BLA BLA 
BLA BLA BLA BLA BLA BLA BLA BLA BLA BLA BLA BLA BLA BLA BLA BLA BLA BLA BLA BLA 
BLA BLA BLA BLA BLA BLA BLA BLA BLA BLA BLA BLA BLA BLA BLA BLA BLA BLA BLA BLA 
BLA BLA BLA BLA BLA BLA BLA BLA BLA BLA BLA BLA BLA BLA BLA BLA BLA BLA BLA BLA 
BLA BLA BLA BLA BLA BLA BLA BLA BLA BLA BLA BLA BLA BLA BLA BLA BLA BLA BLA BLA 
BLA BLA BLA BLA BLA BLA BLA BLA BLA BLA BLA BLA BLA BLA BLA BLA BLA BLA BLA BLA 
BLA BLA BLA BLA BLA BLA BLA BLA BLA BLA BLA BLA BLA BLA BLA BLA BLA BLA BLA BLA 
BLA BLA BLA BLA BLA BLA BLA BLA BLA BLA BLA BLA BLA BLA BLA BLA BLA BLA BLA BLA 
BLA BLA BLA BLA BLA BLA BLA BLA BLA BLA BLA BLA BLA BLA BLA BLA BLA BLA BLA BLA 
BLA BLA BLA BLA BLA BLA BLA BLA BLA BLA BLA BLA BLA BLA BLA BLA BLA BLA BLA BLA 
BLA BLA BLA BLA BLA BLA BLA BLA BLA BLA BLA BLA BLA BLA BLA BLA BLA BLA BLA BLA 
BLA BLA BLA BLA BLA BLA BLA BLA BLA BLA BLA BLA BLA BLA BLA BLA BLA BLA BLA BLA 
BLA BLA BLA BLA BLA BLA BLA BLA BLA BLA BLA BLA BLA BLA BLA BLA BLA BLA BLA BLA 
BLA BLA BLA BLA BLA BLA BLA BLA BLA BLA BLA BLA BLA BLA BLA BLA BLA BLA BLA BLA 
BLA BLA BLA BLA BLA BLA BLA BLA BLA BLA BLA BLA BLA BLA BLA BLA BLA BLA BLA BLA 
BLA BLA BLA BLA BLA BLA BLA BLA BLA BLA BLA BLA BLA BLA BLA BLA BLA BLA BLA BLA 
BLA BLA BLA BLA BLA BLA BLA BLA BLA BLA BLA BLA BLA BLA BLA BLA BLA BLA BLA BLA 
BLA BLA BLA BLA BLA BLA BLA BLA BLA BLA BLA BLA BLA BLA BLA BLA BLA BLA BLA BLA 
BLA BLA BLA BLA BLA BLA BLA BLA BLA BLA BLA BLA BLA BLA BLA BLA BLA BLA BLA BLA 
BLA BLA BLA BLA BLA BLA BLA BLA BLA BLA BLA BLA BLA BLA BLA BLA BLA BLA BLA BLA 
BLA BLA BLA BLA BLA BLA BLA BLA BLA BLA BLA BLA BLA BLA BLA BLA BLA BLA BLA BLA 
BLA BLA BLA BLA BLA BLA BLA BLA BLA BLA BLA BLA BLA BLA BLA BLA BLA BLA BLA BLA 
BLA BLA BLA BLA BLA BLA BLA BLA BLA BLA BLA BLA BLA BLA BLA BLA BLA BLA BLA BLA 
BLA BLA BLA BLA BLA BLA BLA BLA BLA BLA BLA BLA BLA BLA BLA BLA BLA BLA BLA BLA 
BLA BLA BLA BLA BLA BLA BLA BLA BLA BLA BLA BLA BLA BLA BLA BLA BLA BLA BLA BLA 
BLA BLA BLA BLA BLA BLA BLA BLA BLA BLA BLA BLA BLA BLA BLA BLA BLA BLA BLA BLA 
BLA BLA BLA BLA BLA BLA BLA BLA BLA BLA BLA BLA BLA BLA BLA BLA BLA BLA BLA BLA 
BLA BLA BLA BLA BLA BLA BLA BLA BLA BLA BLA BLA BLA BLA BLA BLA BLA BLA BLA BLA 
BLA BLA BLA BLA BLA BLA BLA BLA BLA BLA BLA BLA BLA BLA BLA BLA BLA BLA BLA BLA 
BLA BLA BLA BLA BLA BLA BLA BLA BLA BLA BLA BLA BLA BLA BLA BLA BLA BLA BLA BLA 
BLA BLA BLA BLA BLA BLA BLA BLA BLA BLA BLA BLA BLA BLA BLA BLA BLA BLA BLA BLA 
BLA BLA BLA BLA BLA BLA BLA BLA BLA BLA BLA BLA BLA BLA BLA BLA BLA BLA BLA BLA 
BLA BLA BLA BLA BLA BLA BLA BLA BLA BLA BLA BLA BLA BLA BLA BLA BLA BLA BLA BLA 
BLA BLA BLA BLA BLA BLA BLA BLA BLA BLA BLA BLA BLA BLA BLA BLA BLA BLA BLA BLA 
BLA BLA BLA BLA BLA BLA BLA BLA BLA BLA BLA BLA BLA BLA BLA BLA BLA BLA BLA BLA 
BLA BLA BLA BLA BLA BLA BLA BLA BLA BLA BLA BLA BLA BLA BLA BLA BLA BLA BLA BLA 
BLA BLA BLA BLA BLA BLA BLA BLA BLA BLA BLA BLA BLA BLA BLA BLA BLA BLA BLA BLA 
BLA BLA BLA BLA BLA BLA BLA BLA BLA BLA BLA BLA BLA BLA BLA BLA BLA BLA BLA BLA 
BLA BLA BLA BLA BLA BLA BLA BLA BLA BLA BLA BLA BLA BLA BLA BLA BLA BLA BLA BLA 
BLA BLA BLA BLA BLA BLA BLA BLA BLA BLA BLA BLA BLA BLA BLA BLA BLA BLA BLA BLA 
BLA BLA BLA BLA BLA BLA BLA BLA BLA BLA BLA BLA BLA BLA BLA BLA BLA BLA BLA BLA 
BLA BLA BLA BLA BLA BLA BLA BLA BLA BLA BLA BLA BLA BLA BLA BLA BLA BLA BLA BLA 
BLA BLA BLA BLA BLA BLA BLA BLA BLA BLA BLA BLA BLA BLA BLA BLA BLA BLA BLA BLA 
BLA BLA BLA BLA BLA BLA BLA BLA BLA BLA BLA BLA BLA BLA BLA BLA BLA BLA BLA BLA 
BLA BLA BLA BLA BLA BLA BLA BLA BLA BLA BLA BLA BLA BLA BLA BLA BLA BLA BLA BLA 
BLA BLA BLA BLA BLA BLA BLA BLA BLA BLA BLA BLA BLA BLA BLA BLA BLA BLA BLA BLA 
BLA BLA BLA BLA BLA BLA BLA BLA BLA BLA BLA BLA BLA BLA BLA BLA BLA BLA BLA BLA 
BLA BLA BLA BLA BLA BLA BLA BLA BLA BLA BLA BLA BLA BLA BLA BLA BLA BLA BLA BLA 
BLA BLA BLA BLA BLA BLA BLA BLA BLA BLA BLA BLA BLA BLA BLA BLA BLA BLA BLA BLA 
BLA BLA BLA BLA BLA BLA BLA BLA BLA BLA BLA BLA BLA BLA BLA BLA BLA BLA BLA BLA 
BLA BLA BLA BLA BLA BLA BLA BLA BLA BLA BLA BLA BLA BLA BLA BLA BLA BLA BLA BLA 
BLA BLA BLA BLA BLA BLA BLA BLA BLA BLA BLA BLA BLA BLA BLA BLA BLA BLA BLA BLA 
BLA BLA BLA BLA BLA BLA BLA BLA BLA BLA BLA BLA BLA BLA BLA BLA BLA BLA BLA BLA 
BLA BLA BLA BLA BLA BLA BLA BLA BLA BLA BLA BLA BLA BLA BLA BLA BLA BLA BLA BLA 
BLA BLA BLA BLA BLA BLA BLA BLA BLA BLA BLA BLA BLA BLA BLA BLA BLA BLA BLA BLA 
BLA BLA BLA BLA BLA BLA BLA BLA BLA BLA BLA BLA BLA BLA BLA BLA BLA BLA BLA BLA 
BLA BLA BLA BLA BLA BLA BLA BLA BLA BLA BLA BLA BLA BLA BLA BLA BLA BLA BLA BLA 
BLA BLA BLA BLA BLA BLA BLA BLA BLA BLA BLA BLA BLA BLA BLA BLA BLA BLA BLA BLA 
BLA BLA BLA BLA BLA BLA BLA BLA BLA BLA BLA BLA BLA BLA BLA BLA BLA BLA BLA BLA 
BLA BLA BLA BLA BLA BLA BLA BLA BLA BLA BLA BLA BLA BLA BLA BLA BLA BLA BLA BLA 
BLA BLA BLA BLA BLA BLA BLA BLA BLA BLA BLA BLA BLA BLA BLA BLA BLA BLA BLA BLA 
BLA BLA BLA BLA BLA BLA BLA BLA BLA BLA BLA BLA BLA BLA BLA BLA BLA BLA BLA BLA 
BLA BLA BLA BLA BLA BLA BLA BLA BLA BLA BLA BLA BLA BLA BLA BLA BLA BLA BLA BLA 
BLA BLA BLA BLA BLA BLA BLA BLA BLA BLA BLA BLA BLA BLA BLA BLA BLA BLA BLA BLA 
BLA BLA BLA BLA BLA BLA BLA BLA BLA BLA BLA BLA BLA BLA BLA BLA BLA BLA BLA BLA 
BLA BLA BLA BLA BLA BLA BLA BLA BLA BLA BLA BLA BLA BLA BLA BLA BLA BLA BLA BLA 
BLA BLA BLA BLA BLA BLA BLA BLA BLA BLA BLA BLA BLA BLA BLA BLA BLA BLA BLA BLA 
BLA BLA BLA BLA BLA BLA BLA BLA BLA BLA BLA BLA BLA BLA BLA BLA BLA BLA BLA BLA 
BLA BLA BLA BLA BLA BLA BLA BLA BLA BLA BLA BLA BLA BLA BLA BLA BLA BLA BLA BLA 
BLA BLA BLA BLA BLA BLA BLA BLA BLA BLA BLA BLA BLA BLA BLA BLA BLA BLA BLA BLA 
BLA BLA BLA BLA BLA BLA BLA BLA BLA BLA BLA BLA BLA BLA BLA BLA BLA BLA BLA BLA 
BLA BLA BLA BLA BLA BLA BLA BLA BLA BLA BLA BLA BLA BLA BLA BLA BLA BLA BLA BLA 
BLA BLA BLA BLA BLA BLA BLA BLA BLA BLA BLA BLA BLA BLA BLA BLA BLA BLA BLA BLA 
BLA BLA BLA BLA BLA BLA BLA BLA BLA BLA BLA BLA BLA BLA BLA BLA BLA BLA BLA BLA 
BLA BLA BLA BLA BLA BLA BLA BLA BLA BLA BLA BLA BLA BLA BLA BLA BLA BLA BLA BLA 
BLA BLA BLA BLA BLA BLA BLA BLA BLA BLA BLA BLA BLA BLA BLA BLA BLA BLA BLA BLA 
BLA BLA BLA BLA BLA BLA BLA BLA BLA BLA BLA BLA BLA BLA BLA BLA BLA BLA BLA BLA 
BLA BLA BLA BLA BLA BLA BLA BLA BLA BLA BLA BLA BLA BLA BLA BLA BLA BLA BLA BLA 
BLA BLA BLA BLA BLA BLA BLA BLA BLA BLA BLA BLA BLA BLA BLA BLA BLA BLA BLA BLA 
BLA BLA BLA BLA BLA BLA BLA BLA BLA BLA BLA BLA BLA BLA BLA BLA BLA BLA BLA BLA 
BLA BLA BLA BLA BLA BLA BLA BLA BLA BLA BLA BLA BLA BLA BLA BLA BLA BLA BLA BLA 
BLA BLA BLA BLA BLA BLA BLA BLA BLA BLA BLA BLA BLA BLA BLA BLA BLA BLA BLA BLA 
BLA BLA BLA BLA BLA BLA BLA BLA BLA BLA BLA BLA BLA BLA BLA BLA BLA BLA BLA BLA 
BLA BLA BLA BLA BLA BLA BLA BLA BLA BLA BLA BLA BLA BLA BLA BLA BLA BLA BLA BLA 
BLA BLA BLA BLA BLA BLA BLA BLA BLA BLA BLA BLA BLA BLA BLA BLA BLA BLA BLA BLA 
BLA BLA BLA BLA BLA BLA BLA BLA BLA BLA BLA BLA BLA BLA BLA BLA BLA BLA BLA BLA 
BLA BLA BLA BLA BLA BLA BLA BLA BLA BLA BLA BLA BLA BLA BLA BLA BLA BLA BLA BLA 
BLA BLA BLA BLA BLA BLA BLA BLA BLA BLA BLA BLA BLA BLA BLA BLA BLA BLA BLA BLA 
BLA BLA BLA BLA BLA BLA BLA BLA BLA BLA BLA BLA BLA BLA BLA BLA BLA BLA BLA BLA 
BLA BLA BLA BLA BLA BLA BLA BLA BLA BLA BLA BLA BLA BLA BLA BLA BLA BLA BLA BLA 
BLA BLA BLA BLA BLA BLA BLA BLA BLA BLA BLA BLA BLA BLA BLA BLA BLA BLA BLA BLA 
BLA BLA BLA BLA BLA BLA BLA BLA BLA BLA BLA BLA BLA BLA BLA BLA BLA BLA BLA BLA 
BLA BLA BLA BLA BLA BLA BLA BLA BLA BLA BLA BLA BLA BLA BLA BLA BLA BLA BLA BLA 
BLA BLA BLA BLA BLA BLA BLA BLA BLA BLA BLA BLA BLA BLA BLA BLA BLA BLA BLA BLA 
BLA BLA BLA BLA BLA BLA BLA BLA BLA BLA BLA BLA BLA BLA BLA BLA BLA BLA BLA BLA 
BLA BLA BLA BLA BLA BLA BLA BLA BLA BLA BLA BLA BLA BLA BLA BLA BLA BLA BLA BLA 
BLA BLA BLA BLA BLA BLA BLA BLA BLA BLA BLA BLA BLA BLA BLA BLA BLA BLA BLA BLA 
BLA BLA BLA BLA BLA BLA BLA BLA BLA BLA BLA BLA BLA BLA BLA BLA BLA BLA BLA BLA 
BLA BLA BLA BLA BLA BLA BLA BLA BLA BLA BLA BLA BLA BLA BLA BLA BLA BLA BLA BLA 
BLA BLA BLA BLA BLA BLA BLA BLA BLA BLA BLA BLA BLA BLA BLA BLA BLA BLA BLA BLA 
BLA BLA BLA BLA BLA BLA BLA BLA BLA BLA BLA BLA BLA BLA BLA BLA BLA BLA BLA BLA 
BLA BLA BLA BLA BLA BLA BLA BLA BLA BLA BLA BLA BLA BLA BLA BLA BLA BLA BLA BLA 
BLA BLA BLA BLA BLA BLA BLA BLA BLA BLA BLA BLA BLA BLA BLA BLA BLA BLA BLA BLA 
BLA BLA BLA BLA BLA BLA BLA BLA BLA BLA BLA BLA BLA BLA BLA BLA BLA BLA BLA BLA 
BLA BLA BLA BLA BLA BLA BLA BLA BLA BLA BLA BLA BLA BLA BLA BLA BLA BLA BLA BLA 
BLA BLA BLA BLA BLA BLA BLA BLA BLA BLA BLA BLA BLA BLA BLA BLA BLA BLA BLA BLA 
BLA BLA BLA BLA BLA BLA BLA BLA BLA BLA BLA BLA BLA BLA BLA BLA BLA BLA BLA BLA 
BLA BLA BLA BLA BLA BLA BLA BLA BLA BLA BLA BLA BLA BLA BLA BLA BLA BLA BLA BLA 
BLA BLA BLA BLA BLA BLA BLA BLA BLA BLA BLA BLA BLA BLA BLA BLA BLA BLA BLA BLA 
BLA BLA BLA BLA BLA BLA BLA BLA BLA BLA BLA BLA BLA BLA BLA BLA BLA BLA BLA BLA 
BLA BLA BLA BLA BLA BLA BLA BLA BLA BLA BLA BLA BLA BLA BLA BLA BLA BLA BLA BLA 
BLA BLA BLA BLA BLA BLA BLA BLA BLA BLA BLA BLA BLA BLA BLA BLA BLA BLA BLA BLA 
BLA BLA BLA BLA BLA BLA BLA BLA BLA BLA BLA BLA BLA BLA BLA BLA BLA BLA BLA BLA 
BLA BLA BLA BLA BLA BLA BLA BLA BLA BLA BLA BLA BLA BLA BLA BLA BLA BLA BLA BLA 
BLA BLA BLA BLA BLA BLA BLA BLA BLA BLA BLA BLA BLA BLA BLA BLA BLA BLA BLA BLA 
BLA BLA BLA BLA BLA BLA BLA BLA BLA BLA BLA BLA BLA BLA BLA BLA BLA BLA BLA BLA 
BLA BLA BLA BLA BLA BLA BLA BLA BLA BLA BLA BLA BLA BLA BLA BLA BLA BLA BLA BLA 
BLA BLA BLA BLA BLA BLA BLA BLA BLA BLA BLA BLA BLA BLA BLA BLA BLA BLA BLA BLA 
BLA BLA BLA BLA BLA BLA BLA BLA BLA BLA BLA BLA BLA BLA BLA BLA BLA BLA BLA BLA 
BLA BLA BLA BLA BLA BLA BLA BLA BLA BLA BLA BLA BLA BLA BLA BLA BLA BLA BLA BLA 
BLA BLA BLA BLA BLA BLA BLA BLA BLA BLA BLA BLA BLA BLA BLA BLA BLA BLA BLA BLA 
BLA BLA BLA BLA BLA BLA BLA BLA BLA BLA BLA BLA BLA BLA BLA BLA BLA BLA BLA BLA 
BLA BLA BLA BLA BLA BLA BLA BLA BLA BLA BLA BLA BLA BLA BLA BLA BLA BLA BLA BLA 
BLA BLA BLA BLA BLA BLA BLA BLA BLA BLA BLA BLA BLA BLA BLA BLA BLA BLA BLA BLA 
BLA BLA BLA BLA BLA BLA BLA BLA BLA BLA BLA BLA BLA BLA BLA BLA BLA BLA BLA BLA 
BLA BLA BLA BLA BLA BLA BLA BLA BLA BLA BLA BLA BLA BLA BLA BLA BLA BLA BLA BLA 
BLA BLA BLA BLA BLA BLA BLA BLA BLA BLA BLA BLA BLA BLA BLA BLA BLA BLA BLA BLA 
BLA BLA BLA BLA BLA BLA BLA BLA BLA BLA BLA BLA BLA BLA BLA BLA BLA BLA BLA BLA 
BLA BLA BLA BLA BLA BLA BLA BLA BLA BLA BLA BLA BLA BLA BLA BLA BLA BLA BLA BLA 
BLA BLA BLA BLA BLA BLA BLA BLA BLA BLA BLA BLA BLA BLA BLA BLA BLA BLA BLA BLA 
BLA BLA BLA BLA BLA BLA BLA BLA BLA BLA BLA BLA BLA BLA BLA BLA BLA BLA BLA BLA 
BLA BLA BLA BLA BLA BLA BLA BLA BLA BLA BLA BLA BLA BLA BLA BLA BLA BLA BLA BLA 
BLA BLA BLA BLA BLA BLA BLA BLA BLA BLA BLA BLA BLA BLA BLA BLA BLA BLA BLA BLA 
BLA BLA BLA BLA BLA BLA BLA BLA BLA BLA BLA BLA BLA BLA BLA BLA BLA BLA BLA BLA 
BLA BLA BLA BLA BLA BLA BLA BLA BLA BLA BLA BLA BLA BLA BLA BLA BLA BLA BLA BLA 
BLA BLA BLA BLA BLA BLA BLA BLA BLA BLA BLA BLA BLA BLA BLA BLA BLA BLA BLA BLA 
BLA BLA BLA BLA BLA BLA BLA BLA BLA BLA BLA BLA BLA BLA BLA BLA BLA BLA BLA BLA 
BLA BLA BLA BLA BLA BLA BLA BLA BLA BLA BLA BLA BLA BLA BLA BLA BLA BLA BLA BLA 
BLA BLA BLA BLA BLA BLA BLA BLA BLA BLA BLA BLA BLA BLA BLA BLA BLA BLA BLA BLA 
BLA BLA BLA BLA BLA BLA BLA BLA BLA BLA BLA BLA BLA BLA BLA BLA BLA BLA BLA BLA 
BLA BLA BLA BLA BLA BLA BLA BLA BLA BLA BLA BLA BLA BLA BLA BLA BLA BLA BLA BLA 
BLA BLA BLA BLA BLA BLA BLA BLA BLA BLA BLA BLA BLA BLA BLA BLA BLA BLA BLA BLA 
BLA BLA BLA BLA BLA BLA BLA BLA BLA BLA BLA BLA BLA BLA BLA BLA BLA BLA BLA BLA 
BLA BLA BLA BLA BLA BLA BLA BLA BLA BLA BLA BLA BLA BLA BLA BLA BLA BLA BLA BLA 
BLA BLA BLA BLA BLA BLA BLA BLA BLA BLA BLA BLA BLA BLA BLA BLA BLA BLA BLA BLA 
BLA BLA BLA BLA BLA BLA BLA BLA BLA BLA BLA BLA BLA BLA BLA BLA BLA BLA BLA BLA 
BLA BLA BLA BLA BLA BLA BLA BLA BLA BLA BLA BLA BLA BLA BLA BLA BLA BLA BLA BLA 
BLA BLA BLA BLA BLA BLA BLA BLA BLA BLA BLA BLA BLA BLA BLA BLA BLA BLA BLA BLA 
BLA BLA BLA BLA BLA BLA BLA BLA BLA BLA BLA BLA BLA BLA BLA BLA BLA BLA BLA BLA 
BLA BLA BLA BLA BLA BLA BLA BLA BLA BLA BLA BLA BLA BLA BLA BLA BLA BLA BLA BLA 
BLA BLA BLA BLA BLA BLA BLA BLA BLA BLA BLA BLA BLA BLA BLA BLA BLA BLA BLA BLA 
BLA BLA BLA BLA BLA BLA BLA BLA BLA BLA BLA BLA BLA BLA BLA BLA BLA BLA BLA BLA 
BLA BLA BLA BLA BLA BLA BLA BLA BLA BLA BLA BLA BLA BLA BLA BLA BLA BLA BLA BLA 
BLA BLA BLA BLA BLA BLA BLA BLA BLA BLA BLA BLA BLA BLA BLA BLA BLA BLA BLA BLA 
BLA BLA BLA BLA BLA BLA BLA BLA BLA BLA BLA BLA BLA BLA BLA BLA BLA BLA BLA BLA 
BLA BLA BLA BLA BLA BLA BLA BLA BLA BLA BLA BLA BLA BLA BLA BLA BLA BLA BLA BLA 
BLA BLA BLA BLA BLA BLA BLA BLA BLA BLA BLA BLA BLA BLA BLA BLA BLA BLA BLA BLA 
BLA BLA BLA BLA BLA BLA BLA BLA BLA BLA BLA BLA BLA BLA BLA BLA BLA BLA BLA BLA 
BLA BLA BLA BLA BLA BLA BLA BLA BLA BLA BLA BLA BLA BLA BLA BLA BLA BLA BLA BLA 
BLA BLA BLA BLA BLA BLA BLA BLA BLA BLA BLA BLA BLA BLA BLA BLA BLA BLA BLA BLA 
BLA BLA BLA BLA BLA BLA BLA BLA BLA BLA BLA BLA BLA BLA BLA BLA BLA BLA BLA BLA 
BLA BLA BLA BLA BLA BLA BLA BLA BLA BLA BLA BLA BLA BLA BLA BLA BLA BLA BLA BLA 
BLA BLA BLA BLA BLA BLA BLA BLA BLA BLA BLA BLA BLA BLA BLA BLA BLA BLA BLA BLA 
BLA BLA BLA BLA BLA BLA BLA BLA BLA BLA BLA BLA BLA BLA BLA BLA BLA BLA BLA BLA 
BLA BLA BLA BLA BLA BLA BLA BLA BLA BLA BLA BLA BLA BLA BLA BLA BLA BLA BLA BLA 
BLA BLA BLA BLA BLA BLA BLA BLA BLA BLA BLA BLA BLA BLA BLA BLA BLA BLA BLA BLA 
BLA BLA BLA BLA BLA BLA BLA BLA BLA BLA BLA BLA BLA BLA BLA BLA BLA BLA BLA BLA 
BLA BLA BLA BLA BLA BLA BLA BLA BLA BLA BLA BLA BLA BLA BLA BLA BLA BLA BLA BLA 
BLA BLA BLA BLA BLA BLA BLA BLA BLA BLA BLA BLA BLA BLA BLA BLA BLA BLA BLA BLA 
BLA BLA BLA BLA BLA BLA BLA BLA BLA BLA BLA BLA BLA BLA BLA BLA BLA BLA BLA BLA 
BLA BLA BLA BLA BLA BLA BLA BLA BLA BLA BLA BLA BLA BLA BLA BLA BLA BLA BLA BLA 
BLA BLA BLA BLA BLA BLA BLA BLA BLA BLA BLA BLA BLA BLA BLA BLA BLA BLA BLA BLA 
BLA BLA BLA BLA BLA BLA BLA BLA BLA BLA BLA BLA BLA BLA BLA BLA BLA BLA BLA BLA 
BLA BLA BLA BLA BLA BLA BLA BLA BLA BLA BLA BLA BLA BLA BLA BLA BLA BLA BLA BLA 
BLA BLA BLA BLA BLA BLA BLA BLA BLA BLA BLA BLA BLA BLA BLA BLA BLA BLA BLA BLA 
BLA BLA BLA BLA BLA BLA BLA BLA BLA BLA BLA BLA BLA BLA BLA BLA BLA BLA BLA BLA 
BLA BLA BLA BLA BLA BLA BLA BLA BLA BLA BLA BLA BLA BLA BLA BLA BLA BLA BLA BLA 
BLA BLA BLA BLA BLA BLA BLA BLA BLA BLA BLA BLA BLA BLA BLA BLA BLA BLA BLA BLA 
BLA BLA BLA BLA BLA BLA BLA BLA BLA BLA BLA BLA BLA BLA BLA BLA BLA BLA BLA BLA 
BLA BLA BLA BLA BLA BLA BLA BLA BLA BLA BLA BLA BLA BLA BLA BLA BLA BLA BLA BLA 
BLA BLA BLA BLA BLA BLA BLA BLA BLA BLA BLA BLA BLA BLA BLA BLA BLA BLA BLA BLA 
BLA BLA BLA BLA BLA BLA BLA BLA BLA BLA BLA BLA BLA BLA BLA BLA BLA BLA BLA BLA 
BLA BLA BLA BLA BLA BLA BLA BLA BLA BLA BLA BLA BLA BLA BLA BLA BLA BLA BLA BLA 
BLA BLA BLA BLA BLA BLA BLA BLA BLA BLA BLA BLA BLA BLA BLA BLA BLA BLA BLA BLA 
BLA BLA BLA BLA BLA BLA BLA BLA BLA BLA BLA BLA BLA BLA BLA BLA BLA BLA BLA BLA 
BLA BLA BLA BLA BLA BLA BLA BLA BLA BLA BLA BLA BLA BLA BLA BLA BLA BLA BLA BLA 
BLA BLA BLA BLA BLA BLA BLA BLA BLA BLA BLA BLA BLA BLA BLA BLA BLA BLA BLA BLA 
BLA BLA BLA BLA BLA BLA BLA BLA BLA BLA BLA BLA BLA BLA BLA BLA BLA BLA BLA BLA 
BLA BLA BLA BLA BLA BLA BLA BLA BLA BLA BLA BLA BLA BLA BLA BLA BLA BLA BLA BLA 
BLA BLA BLA BLA BLA BLA BLA BLA BLA BLA BLA BLA BLA BLA BLA BLA BLA BLA BLA BLA 
BLA BLA BLA BLA BLA BLA BLA BLA BLA BLA BLA BLA BLA BLA BLA BLA BLA BLA BLA BLA 
BLA BLA BLA BLA BLA BLA BLA BLA BLA BLA BLA BLA BLA BLA BLA BLA BLA BLA BLA BLA 
BLA BLA BLA BLA BLA BLA BLA BLA BLA BLA BLA BLA BLA BLA BLA BLA BLA BLA BLA BLA 
BLA BLA BLA BLA BLA BLA BLA BLA BLA BLA BLA BLA BLA BLA BLA BLA BLA BLA BLA BLA 
BLA BLA BLA BLA BLA BLA BLA BLA BLA BLA BLA BLA BLA BLA BLA BLA BLA BLA BLA BLA 
BLA BLA BLA BLA BLA BLA BLA BLA BLA BLA BLA BLA BLA BLA BLA BLA BLA BLA BLA BLA 
BLA BLA BLA BLA BLA BLA BLA BLA BLA BLA BLA BLA BLA BLA BLA BLA BLA BLA BLA BLA 
BLA BLA BLA BLA BLA BLA BLA BLA BLA BLA BLA BLA BLA BLA BLA BLA BLA BLA BLA BLA 
BLA BLA BLA BLA BLA BLA BLA BLA BLA BLA BLA BLA BLA BLA BLA BLA BLA BLA BLA BLA 
BLA BLA BLA BLA BLA BLA BLA BLA BLA BLA BLA BLA BLA BLA BLA BLA BLA BLA BLA BLA 
BLA BLA BLA BLA BLA BLA BLA BLA BLA BLA BLA BLA BLA BLA BLA BLA BLA BLA BLA BLA 
BLA BLA BLA BLA BLA BLA BLA BLA BLA BLA BLA BLA BLA BLA BLA BLA BLA BLA BLA BLA 
BLA BLA BLA BLA BLA BLA BLA BLA BLA BLA BLA BLA BLA BLA BLA BLA BLA BLA BLA BLA 
BLA BLA BLA BLA BLA BLA BLA BLA BLA BLA BLA BLA BLA BLA BLA BLA BLA BLA BLA BLA 
BLA BLA BLA BLA BLA BLA BLA BLA BLA BLA BLA BLA BLA BLA BLA BLA BLA BLA BLA BLA 
BLA BLA BLA BLA BLA BLA BLA BLA BLA BLA BLA BLA BLA BLA BLA BLA BLA BLA BLA BLA 
BLA BLA BLA BLA BLA BLA BLA BLA BLA BLA BLA BLA BLA BLA BLA BLA BLA BLA BLA BLA 
BLA BLA BLA BLA BLA BLA BLA BLA BLA BLA BLA BLA BLA BLA BLA BLA BLA BLA BLA BLA 
BLA BLA BLA BLA BLA BLA BLA BLA BLA BLA BLA BLA BLA BLA BLA BLA BLA BLA BLA BLA 
BLA BLA BLA BLA BLA BLA BLA BLA BLA BLA BLA BLA BLA BLA BLA BLA BLA BLA BLA BLA 
BLA BLA BLA BLA BLA BLA BLA BLA BLA BLA BLA BLA BLA BLA BLA BLA BLA BLA BLA BLA 
BLA BLA BLA BLA BLA BLA BLA BLA BLA BLA BLA BLA BLA BLA BLA BLA BLA BLA BLA BLA 
BLA BLA BLA BLA BLA BLA BLA BLA BLA BLA BLA BLA BLA BLA BLA BLA BLA BLA BLA BLA 
BLA BLA BLA BLA BLA BLA BLA BLA BLA BLA BLA BLA BLA BLA BLA BLA BLA BLA BLA BLA 
BLA BLA BLA BLA BLA BLA BLA BLA BLA BLA BLA BLA BLA BLA BLA BLA BLA BLA BLA BLA 
BLA BLA BLA BLA BLA BLA BLA BLA BLA BLA BLA BLA BLA BLA BLA BLA BLA BLA BLA BLA 
BLA BLA BLA BLA BLA BLA BLA BLA BLA BLA BLA BLA BLA BLA BLA BLA BLA BLA BLA BLA 
BLA BLA BLA BLA BLA BLA BLA BLA BLA BLA BLA BLA BLA BLA BLA BLA BLA BLA BLA BLA 
BLA BLA BLA BLA BLA BLA BLA BLA BLA BLA BLA BLA BLA BLA BLA BLA BLA BLA BLA BLA 
BLA BLA BLA BLA BLA BLA BLA BLA BLA BLA BLA BLA BLA BLA BLA BLA BLA BLA BLA BLA 
BLA BLA BLA BLA BLA BLA BLA BLA BLA BLA BLA BLA BLA BLA BLA BLA BLA BLA BLA BLA 
BLA BLA BLA BLA BLA BLA BLA BLA BLA BLA BLA BLA BLA BLA BLA BLA BLA BLA BLA BLA 
BLA BLA BLA BLA BLA BLA BLA BLA BLA BLA BLA BLA BLA BLA BLA BLA BLA BLA BLA BLA 
BLA BLA BLA BLA BLA BLA BLA BLA BLA BLA BLA BLA BLA BLA BLA BLA BLA BLA BLA BLA 
BLA BLA BLA BLA BLA BLA BLA BLA BLA BLA BLA BLA BLA BLA BLA BLA BLA BLA BLA BLA 
BLA BLA BLA BLA BLA BLA BLA BLA BLA BLA BLA BLA BLA BLA BLA BLA BLA BLA BLA BLA 
BLA BLA BLA BLA BLA BLA BLA BLA BLA BLA BLA BLA BLA BLA BLA BLA BLA BLA BLA BLA 
BLA BLA BLA BLA BLA BLA BLA BLA BLA BLA BLA BLA BLA BLA BLA BLA BLA BLA BLA BLA 
BLA BLA BLA BLA BLA BLA BLA BLA BLA BLA BLA BLA BLA BLA BLA BLA BLA BLA BLA BLA 
BLA BLA BLA BLA BLA BLA BLA BLA BLA BLA BLA BLA BLA BLA BLA BLA BLA BLA BLA BLA 
BLA BLA BLA BLA BLA BLA BLA BLA BLA BLA BLA BLA BLA BLA BLA BLA BLA BLA BLA BLA 
BLA BLA BLA BLA BLA BLA BLA BLA BLA BLA BLA BLA BLA BLA BLA BLA BLA BLA BLA BLA 
BLA BLA BLA BLA BLA BLA BLA BLA BLA BLA BLA BLA BLA BLA BLA BLA BLA BLA BLA BLA 
BLA BLA BLA BLA BLA BLA BLA BLA BLA BLA BLA BLA BLA BLA BLA BLA BLA BLA BLA BLA 
BLA BLA BLA BLA BLA BLA BLA BLA BLA BLA BLA BLA BLA BLA BLA BLA BLA BLA BLA BLA 
BLA BLA BLA BLA BLA BLA BLA BLA BLA BLA BLA BLA BLA BLA BLA BLA BLA BLA BLA BLA 
BLA BLA BLA BLA BLA BLA BLA BLA BLA BLA BLA BLA BLA BLA BLA BLA BLA BLA BLA BLA 
BLA BLA BLA BLA BLA BLA BLA BLA BLA BLA BLA BLA BLA BLA BLA BLA BLA BLA BLA BLA 
BLA BLA BLA BLA BLA BLA BLA BLA BLA BLA BLA BLA BLA BLA BLA BLA BLA BLA BLA BLA 
BLA BLA BLA BLA BLA BLA BLA BLA BLA BLA BLA BLA BLA BLA BLA BLA BLA BLA BLA BLA 
BLA BLA BLA BLA BLA BLA BLA BLA BLA BLA BLA BLA BLA BLA BLA BLA BLA BLA BLA BLA 
BLA BLA BLA BLA BLA BLA BLA BLA BLA BLA BLA BLA BLA BLA BLA BLA BLA BLA BLA BLA 
BLA BLA BLA BLA BLA BLA BLA BLA BLA BLA BLA BLA BLA BLA BLA BLA BLA BLA BLA BLA 
BLA BLA BLA BLA BLA BLA BLA BLA BLA BLA BLA BLA BLA BLA BLA BLA BLA BLA BLA BLA 
BLA BLA BLA BLA BLA BLA BLA BLA BLA BLA BLA BLA BLA BLA BLA BLA BLA BLA BLA BLA 
BLA BLA BLA BLA BLA BLA BLA BLA BLA BLA BLA BLA BLA BLA BLA BLA BLA BLA BLA BLA 
BLA BLA BLA BLA BLA BLA BLA BLA BLA BLA BLA BLA BLA BLA BLA BLA BLA BLA BLA BLA 
BLA BLA BLA BLA BLA BLA BLA BLA BLA BLA BLA BLA BLA BLA BLA BLA BLA BLA BLA BLA 
BLA BLA BLA BLA BLA BLA BLA BLA BLA BLA BLA BLA BLA BLA BLA BLA BLA BLA BLA BLA 
BLA BLA BLA BLA BLA BLA BLA BLA BLA BLA BLA BLA BLA BLA BLA BLA BLA BLA BLA BLA 
BLA BLA BLA BLA BLA BLA BLA BLA BLA BLA BLA BLA BLA BLA BLA BLA BLA BLA BLA BLA 
BLA BLA BLA BLA BLA BLA BLA BLA BLA BLA BLA BLA BLA BLA BLA BLA BLA BLA BLA BLA 
BLA BLA BLA BLA BLA BLA BLA BLA BLA BLA BLA BLA BLA BLA BLA BLA BLA BLA BLA BLA 
BLA BLA BLA BLA BLA BLA BLA BLA BLA BLA BLA BLA BLA BLA BLA BLA BLA BLA BLA BLA 
BLA BLA BLA BLA BLA BLA BLA BLA BLA BLA BLA BLA BLA BLA BLA BLA BLA BLA BLA BLA 
BLA BLA BLA BLA BLA BLA BLA BLA BLA BLA BLA BLA BLA BLA BLA BLA BLA BLA BLA BLA 
BLA BLA BLA BLA BLA BLA BLA BLA BLA BLA BLA BLA BLA BLA BLA BLA BLA BLA BLA BLA 
BLA BLA BLA BLA BLA BLA BLA BLA BLA BLA BLA BLA BLA BLA BLA BLA BLA BLA BLA BLA 
BLA BLA BLA BLA BLA BLA BLA BLA BLA BLA BLA BLA BLA BLA BLA BLA BLA BLA BLA BLA 
BLA BLA BLA BLA BLA BLA BLA BLA BLA BLA BLA BLA BLA BLA BLA BLA BLA BLA BLA BLA 
BLA BLA BLA BLA BLA BLA BLA BLA BLA BLA BLA BLA BLA BLA BLA BLA BLA BLA BLA BLA 
BLA BLA BLA BLA BLA BLA BLA BLA BLA BLA BLA BLA BLA BLA BLA BLA BLA BLA BLA BLA 
BLA BLA BLA BLA BLA BLA BLA BLA BLA BLA BLA BLA BLA BLA BLA BLA BLA BLA BLA BLA 
BLA BLA BLA BLA BLA BLA BLA BLA BLA BLA BLA BLA BLA BLA BLA BLA BLA BLA BLA BLA 
BLA BLA BLA BLA BLA BLA BLA BLA BLA BLA BLA BLA BLA BLA BLA BLA BLA BLA BLA BLA 
BLA BLA BLA BLA BLA BLA BLA BLA BLA BLA BLA BLA BLA BLA BLA BLA BLA BLA BLA BLA 
BLA BLA BLA BLA BLA BLA BLA BLA BLA BLA BLA BLA BLA BLA BLA BLA BLA BLA BLA BLA 
BLA BLA BLA BLA BLA BLA BLA BLA BLA BLA BLA BLA BLA BLA BLA BLA BLA BLA BLA BLA 
BLA BLA BLA BLA BLA BLA BLA BLA BLA BLA BLA BLA BLA BLA BLA BLA BLA BLA BLA BLA 
BLA BLA BLA BLA BLA BLA BLA BLA BLA BLA BLA BLA BLA BLA BLA BLA BLA BLA BLA BLA 
BLA BLA BLA BLA BLA BLA BLA BLA BLA BLA BLA BLA BLA BLA BLA BLA BLA BLA BLA BLA 
BLA BLA BLA BLA BLA BLA BLA BLA BLA BLA BLA BLA BLA BLA BLA BLA BLA BLA BLA BLA 
BLA BLA BLA BLA BLA BLA BLA BLA BLA BLA BLA BLA BLA BLA BLA BLA BLA BLA BLA BLA 
BLA BLA BLA BLA BLA BLA BLA BLA BLA BLA BLA BLA BLA BLA BLA BLA BLA BLA BLA BLA 
BLA BLA BLA BLA BLA BLA BLA BLA BLA BLA BLA BLA BLA BLA BLA BLA BLA BLA BLA BLA 
BLA BLA BLA BLA BLA BLA BLA BLA BLA BLA BLA BLA BLA BLA BLA BLA BLA BLA BLA BLA 
BLA BLA BLA BLA BLA BLA BLA BLA BLA BLA BLA BLA BLA BLA BLA BLA BLA BLA BLA BLA 
BLA BLA BLA BLA BLA BLA BLA BLA BLA BLA BLA BLA BLA BLA BLA BLA BLA BLA BLA BLA 
BLA BLA BLA BLA BLA BLA BLA BLA BLA BLA BLA BLA BLA BLA BLA BLA BLA BLA BLA BLA 
BLA BLA BLA BLA BLA BLA BLA BLA BLA BLA BLA BLA BLA BLA BLA BLA BLA BLA BLA BLA 
BLA BLA BLA BLA BLA BLA BLA BLA BLA BLA BLA BLA BLA BLA BLA BLA BLA BLA BLA BLA 
BLA BLA BLA BLA BLA BLA BLA BLA BLA BLA BLA BLA BLA BLA BLA BLA BLA BLA BLA BLA 
BLA BLA BLA BLA BLA BLA BLA BLA BLA BLA BLA BLA BLA BLA BLA BLA BLA BLA BLA BLA 
BLA BLA BLA BLA BLA BLA BLA BLA BLA BLA BLA BLA BLA BLA BLA BLA BLA BLA BLA BLA 
BLA BLA BLA BLA BLA BLA BLA BLA BLA BLA BLA BLA BLA BLA BLA BLA BLA BLA BLA BLA 
BLA BLA BLA BLA BLA BLA BLA BLA BLA BLA BLA BLA BLA BLA BLA BLA BLA BLA BLA BLA 
BLA BLA BLA BLA BLA BLA BLA BLA BLA BLA BLA BLA BLA BLA BLA BLA BLA BLA BLA BLA 
BLA BLA BLA BLA BLA BLA BLA BLA BLA BLA BLA BLA BLA BLA BLA BLA BLA BLA BLA BLA 
BLA BLA BLA BLA BLA BLA BLA BLA BLA BLA BLA BLA BLA BLA BLA BLA BLA BLA BLA BLA 
BLA BLA BLA BLA BLA BLA BLA BLA BLA BLA BLA BLA BLA BLA BLA BLA BLA BLA BLA BLA 
BLA BLA BLA BLA BLA BLA BLA BLA BLA BLA BLA BLA BLA BLA BLA BLA BLA BLA BLA BLA 
BLA BLA BLA BLA BLA BLA BLA BLA BLA BLA BLA BLA BLA BLA BLA BLA BLA BLA BLA BLA 
BLA BLA BLA BLA BLA BLA BLA BLA BLA BLA BLA BLA BLA BLA BLA BLA BLA BLA BLA BLA 
BLA BLA BLA BLA BLA BLA BLA BLA BLA BLA BLA BLA BLA BLA BLA BLA BLA BLA BLA BLA 
BLA BLA BLA BLA BLA BLA BLA BLA BLA BLA BLA BLA BLA BLA BLA BLA BLA BLA BLA BLA 
BLA BLA BLA BLA BLA BLA BLA BLA BLA BLA BLA BLA BLA BLA BLA BLA BLA BLA BLA BLA 
BLA BLA BLA BLA BLA BLA BLA BLA BLA BLA BLA BLA BLA BLA BLA BLA BLA BLA BLA BLA 
BLA BLA BLA BLA BLA BLA BLA BLA BLA BLA BLA BLA BLA BLA BLA BLA BLA BLA BLA BLA 
BLA BLA BLA BLA BLA BLA BLA BLA BLA BLA BLA BLA BLA BLA BLA BLA BLA BLA BLA BLA 
BLA BLA BLA BLA BLA BLA BLA BLA BLA BLA BLA BLA BLA BLA BLA BLA BLA BLA BLA BLA 
BLA BLA BLA BLA BLA BLA BLA BLA BLA BLA BLA BLA BLA BLA BLA BLA BLA BLA BLA BLA 
BLA BLA BLA BLA BLA BLA BLA BLA BLA BLA BLA BLA BLA BLA BLA BLA BLA BLA BLA BLA 
BLA BLA BLA BLA BLA BLA BLA BLA BLA BLA BLA BLA BLA BLA BLA BLA BLA BLA BLA BLA 
BLA BLA BLA BLA BLA BLA BLA BLA BLA BLA BLA BLA BLA BLA BLA BLA BLA BLA BLA BLA 
BLA BLA BLA BLA BLA BLA BLA BLA BLA BLA BLA BLA BLA BLA BLA BLA BLA BLA BLA BLA 
BLA BLA BLA BLA BLA BLA BLA BLA BLA BLA BLA BLA BLA BLA BLA BLA BLA BLA BLA BLA 
BLA BLA BLA BLA BLA BLA BLA BLA BLA BLA BLA BLA BLA BLA BLA BLA BLA BLA BLA BLA 
BLA BLA BLA BLA BLA BLA BLA BLA BLA BLA BLA BLA BLA BLA BLA BLA BLA BLA BLA BLA 
BLA BLA BLA BLA BLA BLA BLA BLA BLA BLA BLA BLA BLA BLA BLA BLA BLA BLA BLA BLA 
BLA BLA BLA BLA BLA BLA BLA BLA BLA BLA BLA BLA BLA BLA BLA BLA BLA BLA BLA BLA 
BLA BLA BLA BLA BLA BLA BLA BLA BLA BLA BLA BLA BLA BLA BLA BLA BLA BLA BLA BLA 
BLA BLA BLA BLA BLA BLA BLA BLA BLA BLA BLA BLA BLA BLA BLA BLA BLA BLA BLA BLA 
BLA BLA BLA BLA BLA BLA BLA BLA BLA BLA BLA BLA BLA BLA BLA BLA BLA BLA BLA BLA 
BLA BLA BLA BLA BLA BLA BLA BLA BLA BLA BLA BLA BLA BLA BLA BLA BLA BLA BLA BLA 
BLA BLA BLA BLA BLA BLA BLA BLA BLA BLA BLA BLA BLA BLA BLA BLA BLA BLA BLA BLA 
BLA BLA BLA BLA BLA BLA BLA BLA BLA BLA BLA BLA BLA BLA BLA BLA BLA BLA BLA BLA 
BLA BLA BLA BLA BLA BLA BLA BLA BLA BLA BLA BLA BLA BLA BLA BLA BLA BLA BLA BLA 
BLA BLA BLA BLA BLA BLA BLA BLA BLA BLA BLA BLA BLA BLA BLA BLA BLA BLA BLA BLA 
BLA BLA BLA BLA BLA BLA BLA BLA BLA BLA BLA BLA BLA BLA BLA BLA BLA BLA BLA BLA 
BLA BLA BLA BLA BLA BLA BLA BLA BLA BLA BLA BLA BLA BLA BLA BLA BLA BLA BLA BLA 
BLA BLA BLA BLA BLA BLA BLA BLA BLA BLA BLA BLA BLA BLA BLA BLA BLA BLA BLA BLA 
BLA BLA BLA BLA BLA BLA BLA BLA BLA BLA BLA BLA BLA BLA BLA BLA BLA BLA BLA BLA 
BLA BLA BLA BLA BLA BLA BLA BLA BLA BLA BLA BLA BLA BLA BLA BLA BLA BLA BLA BLA 
BLA BLA BLA BLA BLA BLA BLA BLA BLA BLA BLA BLA BLA BLA BLA BLA BLA BLA BLA BLA 
BLA BLA BLA BLA BLA BLA BLA BLA BLA BLA BLA BLA BLA BLA BLA BLA BLA BLA BLA BLA 
BLA BLA BLA BLA BLA BLA BLA BLA BLA BLA BLA BLA BLA BLA BLA BLA BLA BLA BLA BLA 
BLA BLA BLA BLA BLA BLA BLA BLA BLA BLA BLA BLA BLA BLA BLA BLA BLA BLA BLA BLA 
BLA BLA BLA BLA BLA BLA BLA BLA BLA BLA BLA BLA BLA BLA BLA BLA BLA BLA BLA BLA 
BLA BLA BLA BLA BLA BLA BLA BLA BLA BLA BLA BLA BLA BLA BLA BLA BLA BLA BLA BLA 
BLA BLA BLA BLA BLA BLA BLA BLA BLA BLA BLA BLA BLA BLA BLA BLA BLA BLA BLA BLA 
BLA BLA BLA BLA BLA BLA BLA BLA BLA BLA BLA BLA BLA BLA BLA BLA BLA BLA BLA BLA 
BLA BLA BLA BLA BLA BLA BLA BLA BLA BLA BLA BLA BLA BLA BLA BLA BLA BLA BLA BLA 
BLA BLA BLA BLA BLA BLA BLA BLA BLA BLA BLA BLA BLA BLA BLA BLA BLA BLA BLA BLA 
BLA BLA BLA BLA BLA BLA BLA BLA BLA BLA BLA BLA BLA BLA BLA BLA BLA BLA BLA BLA 
BLA BLA BLA BLA BLA BLA BLA BLA BLA BLA BLA BLA BLA BLA BLA BLA BLA BLA BLA BLA 
BLA BLA BLA BLA BLA BLA BLA BLA BLA BLA BLA BLA BLA BLA BLA BLA BLA BLA BLA BLA 
BLA BLA BLA BLA BLA BLA BLA BLA BLA BLA BLA BLA BLA BLA BLA BLA BLA BLA BLA BLA 
BLA BLA BLA BLA BLA BLA BLA BLA BLA BLA BLA BLA BLA BLA BLA BLA BLA BLA BLA BLA 
BLA BLA BLA BLA BLA BLA BLA BLA BLA BLA BLA BLA BLA BLA BLA BLA BLA BLA BLA BLA 
BLA BLA BLA BLA BLA BLA BLA BLA BLA BLA BLA BLA BLA BLA BLA BLA BLA BLA BLA BLA 
BLA BLA BLA BLA BLA BLA BLA BLA BLA BLA BLA BLA BLA BLA BLA BLA BLA BLA BLA BLA 
BLA BLA BLA BLA BLA BLA BLA BLA BLA BLA BLA BLA BLA BLA BLA BLA BLA BLA BLA BLA 
BLA BLA BLA BLA BLA BLA BLA BLA BLA BLA BLA BLA BLA BLA BLA BLA BLA BLA BLA BLA 
BLA BLA BLA BLA BLA BLA BLA BLA BLA BLA BLA BLA BLA BLA BLA BLA BLA BLA BLA BLA 
BLA BLA BLA BLA BLA BLA BLA BLA BLA BLA BLA BLA BLA BLA BLA BLA BLA BLA BLA BLA 
BLA BLA BLA BLA BLA BLA BLA BLA BLA BLA BLA BLA BLA BLA BLA BLA BLA BLA BLA BLA 
BLA BLA BLA BLA BLA BLA BLA BLA BLA BLA BLA BLA BLA BLA BLA BLA BLA BLA BLA BLA 
BLA BLA BLA BLA BLA BLA BLA BLA BLA BLA BLA BLA BLA BLA BLA BLA BLA BLA BLA BLA 
BLA BLA BLA BLA BLA BLA BLA BLA BLA BLA BLA BLA BLA BLA BLA BLA BLA BLA BLA BLA 
BLA BLA BLA BLA BLA BLA BLA BLA BLA BLA BLA BLA BLA BLA BLA BLA BLA BLA BLA BLA 
BLA BLA BLA BLA BLA BLA BLA BLA BLA BLA BLA BLA BLA BLA BLA BLA BLA BLA BLA BLA 
BLA BLA BLA BLA BLA BLA BLA BLA BLA BLA BLA BLA BLA BLA BLA BLA BLA BLA BLA BLA 
BLA BLA BLA BLA BLA BLA BLA BLA BLA BLA BLA BLA BLA BLA BLA BLA BLA BLA BLA BLA 
BLA BLA BLA BLA BLA BLA BLA BLA BLA BLA BLA BLA BLA BLA BLA BLA BLA BLA BLA BLA 
BLA BLA BLA BLA BLA BLA BLA BLA BLA BLA BLA BLA BLA BLA BLA BLA BLA BLA BLA BLA 
BLA BLA BLA BLA BLA BLA BLA BLA BLA BLA BLA BLA BLA BLA BLA BLA BLA BLA BLA BLA 
BLA BLA BLA BLA BLA BLA BLA BLA BLA BLA BLA BLA BLA BLA BLA BLA BLA BLA BLA BLA 
BLA BLA BLA BLA BLA BLA BLA BLA BLA BLA BLA BLA BLA BLA BLA BLA BLA BLA BLA BLA 
BLA BLA BLA BLA BLA BLA BLA BLA BLA BLA BLA BLA BLA BLA BLA BLA BLA BLA BLA BLA 
BLA BLA BLA BLA BLA BLA BLA BLA BLA BLA BLA BLA BLA BLA BLA BLA BLA BLA BLA BLA 
BLA BLA BLA BLA BLA BLA BLA BLA BLA BLA BLA BLA BLA BLA BLA BLA BLA BLA BLA BLA 
BLA BLA BLA BLA BLA BLA BLA BLA BLA BLA BLA BLA BLA BLA BLA BLA BLA BLA BLA BLA 
BLA BLA BLA BLA BLA BLA BLA BLA BLA BLA BLA BLA BLA BLA BLA BLA BLA BLA BLA BLA 
BLA BLA BLA BLA BLA BLA BLA BLA BLA BLA BLA BLA BLA BLA BLA BLA BLA BLA BLA BLA 
BLA BLA BLA BLA BLA BLA BLA BLA BLA BLA BLA BLA BLA BLA BLA BLA BLA BLA BLA BLA 
BLA BLA BLA BLA BLA BLA BLA BLA BLA BLA BLA BLA BLA BLA BLA BLA BLA BLA BLA BLA 
BLA BLA BLA BLA BLA BLA BLA BLA BLA BLA BLA BLA BLA BLA BLA BLA BLA BLA BLA BLA 
BLA BLA BLA BLA BLA BLA BLA BLA BLA BLA BLA BLA BLA BLA BLA BLA BLA BLA BLA BLA 
BLA BLA BLA BLA BLA BLA BLA BLA BLA BLA BLA BLA BLA BLA BLA BLA BLA BLA BLA BLA 
BLA BLA BLA BLA BLA BLA BLA BLA BLA BLA BLA BLA BLA BLA BLA BLA BLA BLA BLA BLA 
BLA BLA BLA BLA BLA BLA BLA BLA BLA BLA BLA BLA BLA BLA BLA BLA BLA BLA BLA BLA 
BLA BLA BLA BLA BLA BLA BLA BLA BLA BLA BLA BLA BLA BLA BLA BLA BLA BLA BLA BLA 
BLA BLA BLA BLA BLA BLA BLA BLA BLA BLA BLA BLA BLA BLA BLA BLA BLA BLA BLA BLA 
BLA BLA BLA BLA BLA BLA BLA BLA BLA BLA BLA BLA BLA BLA BLA BLA BLA BLA BLA BLA 
BLA BLA BLA BLA BLA BLA BLA BLA BLA BLA BLA BLA BLA BLA BLA BLA BLA BLA BLA BLA 
BLA BLA BLA BLA BLA BLA BLA BLA BLA BLA BLA BLA BLA BLA BLA BLA BLA BLA BLA BLA 
BLA BLA BLA BLA BLA BLA BLA BLA BLA BLA BLA BLA BLA BLA BLA BLA BLA BLA BLA BLA 
BLA BLA BLA BLA BLA BLA BLA BLA BLA BLA BLA BLA BLA BLA BLA BLA BLA BLA BLA BLA 
BLA BLA BLA BLA BLA BLA BLA BLA BLA BLA BLA BLA BLA BLA BLA BLA BLA BLA BLA BLA 
BLA BLA BLA BLA BLA BLA BLA BLA BLA BLA BLA BLA BLA BLA BLA BLA BLA BLA BLA BLA 
BLA BLA BLA BLA BLA BLA BLA BLA BLA BLA BLA BLA BLA BLA BLA BLA BLA BLA BLA BLA 
BLA BLA BLA BLA BLA BLA BLA BLA BLA BLA BLA BLA BLA BLA BLA BLA BLA BLA BLA BLA 
BLA BLA BLA BLA BLA BLA BLA BLA BLA BLA BLA BLA BLA BLA BLA BLA BLA BLA BLA BLA 
BLA BLA BLA BLA BLA BLA BLA BLA BLA BLA BLA BLA BLA BLA BLA BLA BLA BLA BLA BLA 
BLA BLA BLA BLA BLA BLA BLA BLA BLA BLA BLA BLA BLA BLA BLA BLA BLA BLA BLA BLA 
BLA BLA BLA BLA BLA BLA BLA BLA BLA BLA BLA BLA BLA BLA BLA BLA BLA BLA BLA BLA 
BLA BLA BLA BLA BLA BLA BLA BLA BLA BLA BLA BLA BLA BLA BLA BLA BLA BLA BLA BLA 
BLA BLA BLA BLA BLA BLA BLA BLA BLA BLA BLA BLA BLA BLA BLA BLA BLA BLA BLA BLA 
BLA BLA BLA BLA BLA BLA BLA BLA BLA BLA BLA BLA BLA BLA BLA BLA BLA BLA BLA BLA 
BLA BLA BLA BLA BLA BLA BLA BLA BLA BLA BLA BLA BLA BLA BLA BLA BLA BLA BLA BLA 
BLA BLA BLA BLA BLA BLA BLA BLA BLA BLA BLA BLA BLA BLA BLA BLA BLA BLA BLA BLA 
BLA BLA BLA BLA BLA BLA BLA BLA BLA BLA BLA BLA BLA BLA BLA BLA BLA BLA BLA BLA 
BLA BLA BLA BLA BLA BLA BLA BLA BLA BLA BLA BLA BLA BLA BLA BLA BLA BLA BLA BLA 
BLA BLA BLA BLA BLA BLA BLA BLA BLA BLA BLA BLA BLA BLA BLA BLA BLA BLA BLA BLA 
BLA BLA BLA BLA BLA BLA BLA BLA BLA BLA BLA BLA BLA BLA BLA BLA BLA BLA BLA BLA 
BLA BLA BLA BLA BLA BLA BLA BLA BLA BLA BLA BLA BLA BLA BLA BLA BLA BLA BLA BLA 
BLA BLA BLA BLA BLA BLA BLA BLA BLA BLA BLA BLA BLA BLA BLA BLA BLA BLA BLA BLA 
BLA BLA BLA BLA BLA BLA BLA BLA BLA BLA BLA BLA BLA BLA BLA BLA BLA BLA BLA BLA 
BLA BLA BLA BLA BLA BLA BLA BLA BLA BLA BLA BLA BLA BLA BLA BLA BLA BLA BLA BLA 
BLA BLA BLA BLA BLA BLA BLA BLA BLA BLA BLA BLA BLA BLA BLA BLA BLA BLA BLA BLA 
BLA BLA BLA BLA BLA BLA BLA BLA BLA BLA BLA BLA BLA BLA BLA BLA BLA BLA BLA BLA 
BLA BLA BLA BLA BLA BLA BLA BLA BLA BLA BLA BLA BLA BLA BLA BLA BLA BLA BLA BLA 
BLA BLA BLA BLA BLA BLA BLA BLA BLA BLA BLA BLA BLA BLA BLA BLA BLA BLA BLA BLA 
BLA BLA BLA BLA BLA BLA BLA BLA BLA BLA BLA BLA BLA BLA BLA BLA BLA BLA BLA BLA 
BLA BLA BLA BLA BLA BLA BLA BLA BLA BLA BLA BLA BLA BLA BLA BLA BLA BLA BLA BLA 
BLA BLA BLA BLA BLA BLA BLA BLA BLA BLA BLA BLA BLA BLA BLA BLA BLA BLA BLA BLA 
BLA BLA BLA BLA BLA BLA BLA BLA BLA BLA BLA BLA BLA BLA BLA BLA BLA BLA BLA BLA 
BLA BLA BLA BLA BLA BLA BLA BLA BLA BLA BLA BLA BLA BLA BLA BLA BLA BLA BLA BLA 
BLA BLA BLA BLA BLA BLA BLA BLA BLA BLA BLA BLA BLA BLA BLA BLA BLA BLA BLA BLA 
BLA BLA BLA BLA BLA BLA BLA BLA BLA BLA BLA BLA BLA BLA BLA BLA BLA BLA BLA BLA 
BLA BLA BLA BLA BLA BLA BLA BLA BLA BLA BLA BLA BLA BLA BLA BLA BLA BLA BLA BLA 
BLA BLA BLA BLA BLA BLA BLA BLA BLA BLA BLA BLA BLA BLA BLA BLA BLA BLA BLA BLA 
BLA BLA BLA BLA BLA BLA BLA BLA BLA BLA BLA BLA BLA BLA BLA BLA BLA BLA BLA BLA 
BLA BLA BLA BLA BLA BLA BLA BLA BLA BLA BLA BLA BLA BLA BLA BLA BLA BLA BLA BLA 
BLA BLA BLA BLA BLA BLA BLA BLA BLA BLA BLA BLA BLA BLA BLA BLA BLA BLA BLA BLA 
BLA BLA BLA BLA BLA BLA BLA BLA BLA BLA BLA BLA BLA BLA BLA BLA BLA BLA BLA BLA 
BLA BLA BLA BLA BLA BLA BLA BLA BLA BLA BLA BLA BLA BLA BLA BLA BLA BLA BLA BLA 
BLA BLA BLA BLA BLA BLA BLA BLA BLA BLA BLA BLA BLA BLA BLA BLA BLA BLA BLA BLA 
BLA BLA BLA BLA BLA BLA BLA BLA BLA BLA BLA BLA BLA BLA BLA BLA BLA BLA BLA BLA 
BLA BLA BLA BLA BLA BLA BLA BLA BLA BLA BLA BLA BLA BLA BLA BLA BLA BLA BLA BLA 
BLA BLA BLA BLA BLA BLA BLA BLA BLA BLA BLA BLA BLA BLA BLA BLA BLA BLA BLA BLA 
BLA BLA BLA BLA BLA BLA BLA BLA BLA BLA BLA BLA BLA BLA BLA BLA BLA BLA BLA BLA 
BLA BLA BLA BLA BLA BLA BLA BLA BLA BLA BLA BLA BLA BLA BLA BLA BLA BLA BLA BLA 
BLA BLA BLA BLA BLA BLA BLA BLA BLA BLA BLA BLA BLA BLA BLA BLA BLA BLA BLA BLA 
BLA BLA BLA BLA BLA BLA BLA BLA BLA BLA BLA BLA BLA BLA BLA BLA BLA BLA BLA BLA 
BLA BLA BLA BLA BLA BLA BLA BLA BLA BLA BLA BLA BLA BLA BLA BLA BLA BLA BLA BLA 
BLA BLA BLA BLA BLA BLA BLA BLA BLA BLA BLA BLA BLA BLA BLA BLA BLA BLA BLA BLA 
BLA BLA BLA BLA BLA BLA BLA BLA BLA BLA BLA BLA BLA BLA BLA BLA BLA BLA BLA BLA 
BLA BLA BLA BLA BLA BLA BLA BLA BLA BLA BLA BLA BLA BLA BLA BLA BLA BLA BLA BLA 
BLA BLA BLA BLA BLA BLA BLA BLA BLA BLA BLA BLA BLA BLA BLA BLA BLA BLA BLA BLA 
BLA BLA BLA BLA BLA BLA BLA BLA BLA BLA BLA BLA BLA BLA BLA BLA BLA BLA BLA BLA 
BLA BLA BLA BLA BLA BLA BLA BLA BLA BLA BLA BLA BLA BLA BLA BLA BLA BLA BLA BLA 
BLA BLA BLA BLA BLA BLA BLA BLA BLA BLA BLA BLA BLA BLA BLA BLA BLA BLA BLA BLA 
BLA BLA BLA BLA BLA BLA BLA BLA BLA BLA BLA BLA BLA BLA BLA BLA BLA BLA BLA BLA 
BLA BLA BLA BLA BLA BLA BLA BLA BLA BLA BLA BLA BLA BLA BLA BLA BLA BLA BLA BLA 
BLA BLA BLA BLA BLA BLA BLA BLA BLA BLA BLA BLA BLA BLA BLA BLA BLA BLA BLA BLA 
BLA BLA BLA BLA BLA BLA BLA BLA BLA BLA BLA BLA BLA BLA BLA BLA BLA BLA BLA BLA 
BLA BLA BLA BLA BLA BLA BLA BLA BLA BLA BLA BLA BLA BLA BLA BLA BLA BLA BLA BLA 
BLA BLA BLA BLA BLA BLA BLA BLA BLA BLA BLA BLA BLA BLA BLA BLA BLA BLA BLA BLA 
BLA BLA BLA BLA BLA BLA BLA BLA BLA BLA BLA BLA BLA BLA BLA BLA BLA BLA BLA BLA 
BLA BLA BLA BLA BLA BLA BLA BLA BLA BLA BLA BLA BLA BLA BLA BLA BLA BLA BLA BLA 
BLA BLA BLA BLA BLA BLA BLA BLA BLA BLA BLA BLA BLA BLA BLA BLA BLA BLA BLA BLA 
BLA BLA BLA BLA BLA BLA BLA BLA BLA BLA BLA BLA BLA BLA BLA BLA BLA BLA BLA BLA 
BLA BLA BLA BLA BLA BLA BLA BLA BLA BLA BLA BLA BLA BLA BLA BLA BLA BLA BLA BLA 
BLA BLA BLA BLA BLA BLA BLA BLA BLA BLA BLA BLA BLA BLA BLA BLA BLA BLA BLA BLA 
BLA BLA BLA BLA BLA BLA BLA BLA BLA BLA BLA BLA BLA BLA BLA BLA BLA BLA BLA BLA 
BLA BLA BLA BLA BLA BLA BLA BLA BLA BLA BLA BLA BLA BLA BLA BLA BLA BLA BLA BLA 
BLA BLA BLA BLA BLA BLA BLA BLA BLA BLA BLA BLA BLA BLA BLA BLA BLA BLA BLA BLA 
BLA BLA BLA BLA BLA BLA BLA BLA BLA BLA BLA BLA BLA BLA BLA BLA BLA BLA BLA BLA 
BLA BLA BLA BLA BLA BLA BLA BLA BLA BLA BLA BLA BLA BLA BLA BLA BLA BLA BLA BLA 
BLA BLA BLA BLA BLA BLA BLA BLA BLA BLA BLA BLA BLA BLA BLA BLA BLA BLA BLA BLA 
BLA BLA BLA BLA BLA BLA BLA BLA BLA BLA BLA BLA BLA BLA BLA BLA BLA BLA BLA BLA 
BLA BLA BLA BLA BLA BLA BLA BLA BLA BLA BLA BLA BLA BLA BLA BLA BLA BLA BLA BLA 
BLA BLA BLA BLA BLA BLA BLA BLA BLA BLA BLA BLA BLA BLA BLA BLA BLA BLA BLA BLA 
BLA BLA BLA BLA BLA BLA BLA BLA BLA BLA BLA BLA BLA BLA BLA BLA BLA BLA BLA BLA 
BLA BLA BLA BLA BLA BLA BLA BLA BLA BLA BLA BLA BLA BLA BLA BLA BLA BLA BLA BLA 
BLA BLA BLA BLA BLA BLA BLA BLA BLA BLA BLA BLA BLA BLA BLA BLA BLA BLA BLA BLA 
BLA BLA BLA BLA BLA BLA BLA BLA BLA BLA BLA BLA BLA BLA BLA BLA BLA BLA BLA BLA 
BLA BLA BLA BLA BLA BLA BLA BLA BLA BLA BLA BLA BLA BLA BLA BLA BLA BLA BLA BLA 
BLA BLA BLA BLA BLA BLA BLA BLA BLA BLA BLA BLA BLA BLA BLA BLA BLA BLA BLA BLA 
BLA BLA BLA BLA BLA BLA BLA BLA BLA BLA BLA BLA BLA BLA BLA BLA BLA BLA BLA BLA 
BLA BLA BLA BLA BLA BLA BLA BLA BLA BLA BLA BLA BLA BLA BLA BLA BLA BLA BLA BLA 
BLA BLA BLA BLA BLA BLA BLA BLA BLA BLA BLA BLA BLA BLA BLA BLA BLA BLA BLA BLA 
BLA BLA BLA BLA BLA BLA BLA BLA BLA BLA BLA BLA BLA BLA BLA BLA BLA BLA BLA BLA 
BLA BLA BLA BLA BLA BLA BLA BLA BLA BLA BLA BLA BLA BLA BLA BLA BLA BLA BLA BLA 
BLA BLA BLA BLA BLA BLA BLA BLA BLA BLA BLA BLA BLA BLA BLA BLA BLA BLA BLA BLA 
BLA BLA BLA BLA BLA BLA BLA BLA BLA BLA BLA BLA BLA BLA BLA BLA BLA BLA BLA BLA 
BLA BLA BLA BLA BLA BLA BLA BLA BLA BLA BLA BLA BLA BLA BLA BLA BLA BLA BLA BLA 
BLA BLA BLA BLA BLA BLA BLA BLA BLA BLA BLA BLA BLA BLA BLA BLA BLA BLA BLA BLA 
BLA BLA BLA BLA BLA BLA BLA BLA BLA BLA BLA BLA BLA BLA BLA BLA BLA BLA BLA BLA 
BLA BLA BLA BLA BLA BLA BLA BLA BLA BLA BLA BLA BLA BLA BLA BLA BLA BLA BLA BLA 
BLA BLA BLA BLA BLA BLA BLA BLA BLA BLA BLA BLA BLA BLA BLA BLA BLA BLA BLA BLA 
BLA BLA BLA BLA BLA BLA BLA BLA BLA BLA BLA BLA BLA BLA BLA BLA BLA BLA BLA BLA 
BLA BLA BLA BLA BLA BLA BLA BLA BLA BLA BLA BLA BLA BLA BLA BLA BLA BLA BLA BLA 
BLA BLA BLA BLA BLA BLA BLA BLA BLA BLA BLA BLA BLA BLA BLA BLA BLA BLA BLA BLA 
BLA BLA BLA BLA BLA BLA BLA BLA BLA BLA BLA BLA BLA BLA BLA BLA BLA BLA BLA BLA 
BLA BLA BLA BLA BLA BLA BLA BLA BLA BLA BLA BLA BLA BLA BLA BLA BLA BLA BLA BLA 
BLA BLA BLA BLA BLA BLA BLA BLA BLA BLA BLA BLA BLA BLA BLA BLA BLA BLA BLA BLA 
BLA BLA BLA BLA BLA BLA BLA BLA BLA BLA BLA BLA BLA BLA BLA BLA BLA BLA BLA BLA 
BLA BLA BLA BLA BLA BLA BLA BLA BLA BLA BLA BLA BLA BLA BLA BLA BLA BLA BLA BLA 
BLA BLA BLA BLA BLA BLA BLA BLA BLA BLA BLA BLA BLA BLA BLA BLA BLA BLA BLA BLA 
BLA BLA BLA BLA BLA BLA BLA BLA BLA BLA BLA BLA BLA BLA BLA BLA BLA BLA BLA BLA 
BLA BLA BLA BLA BLA BLA BLA BLA BLA BLA BLA BLA BLA BLA BLA BLA BLA BLA BLA BLA 
BLA BLA BLA BLA BLA BLA BLA BLA BLA BLA BLA BLA BLA BLA BLA BLA BLA BLA BLA BLA 
BLA BLA BLA BLA BLA BLA BLA BLA BLA BLA BLA BLA BLA BLA BLA BLA BLA BLA BLA BLA 
BLA BLA BLA BLA BLA BLA BLA BLA BLA BLA BLA BLA BLA BLA BLA BLA BLA BLA BLA BLA 
BLA BLA BLA BLA BLA BLA BLA BLA BLA BLA BLA BLA BLA BLA BLA BLA BLA BLA BLA BLA 
BLA BLA BLA BLA BLA BLA BLA BLA BLA BLA BLA BLA BLA BLA BLA BLA BLA BLA BLA BLA 
BLA BLA BLA BLA BLA BLA BLA BLA BLA BLA BLA BLA BLA BLA BLA BLA BLA BLA BLA BLA 
BLA BLA BLA BLA BLA BLA BLA BLA BLA BLA BLA BLA BLA BLA BLA BLA BLA BLA BLA BLA 
BLA BLA BLA BLA BLA BLA BLA BLA BLA BLA BLA BLA BLA BLA BLA BLA BLA BLA BLA BLA 
BLA BLA BLA BLA BLA BLA BLA BLA BLA BLA BLA BLA BLA BLA BLA BLA BLA BLA BLA BLA 
BLA BLA BLA BLA BLA BLA BLA BLA BLA BLA BLA BLA BLA BLA BLA BLA BLA BLA BLA BLA 
BLA BLA BLA BLA BLA BLA BLA BLA BLA BLA BLA BLA BLA BLA BLA BLA BLA BLA BLA BLA 
BLA BLA BLA BLA BLA BLA BLA BLA BLA BLA BLA BLA BLA BLA BLA BLA BLA BLA BLA BLA 
BLA BLA BLA BLA BLA BLA BLA BLA BLA BLA BLA BLA BLA BLA BLA BLA BLA BLA BLA BLA 
BLA BLA BLA BLA BLA BLA BLA BLA BLA BLA BLA BLA BLA BLA BLA BLA BLA BLA BLA BLA 
BLA BLA BLA BLA BLA BLA BLA BLA BLA BLA BLA BLA BLA BLA BLA BLA BLA BLA BLA BLA 
BLA BLA BLA BLA BLA BLA BLA BLA BLA BLA BLA BLA BLA BLA BLA BLA BLA BLA BLA BLA 
BLA BLA BLA BLA BLA BLA BLA BLA BLA BLA BLA BLA BLA BLA BLA BLA BLA BLA BLA BLA 
BLA BLA BLA BLA BLA BLA BLA BLA BLA BLA BLA BLA BLA BLA BLA BLA BLA BLA BLA BLA 
BLA BLA BLA BLA BLA BLA BLA BLA BLA BLA BLA BLA BLA BLA BLA BLA BLA BLA BLA BLA 
BLA BLA BLA BLA BLA BLA BLA BLA BLA BLA BLA BLA BLA BLA BLA BLA BLA BLA BLA BLA 
BLA BLA BLA BLA BLA BLA BLA BLA BLA BLA BLA BLA BLA BLA BLA BLA BLA BLA BLA BLA 
BLA BLA BLA BLA BLA BLA BLA BLA BLA BLA BLA BLA BLA BLA BLA BLA BLA BLA BLA BLA 
BLA BLA BLA BLA BLA BLA BLA BLA BLA BLA BLA BLA BLA BLA BLA BLA BLA BLA BLA BLA 
BLA BLA BLA BLA BLA BLA BLA BLA BLA BLA BLA BLA BLA BLA BLA BLA BLA BLA BLA BLA 
BLA BLA BLA BLA BLA BLA BLA BLA BLA BLA BLA BLA BLA BLA BLA BLA BLA BLA BLA BLA 
BLA BLA BLA BLA BLA BLA BLA BLA BLA BLA BLA BLA BLA BLA BLA BLA BLA BLA BLA BLA 
BLA BLA BLA BLA BLA BLA BLA BLA BLA BLA BLA BLA BLA BLA BLA BLA BLA BLA BLA BLA 
BLA BLA BLA BLA BLA BLA 
%FLAG JOIN_ARRAY                                                                
%FORMAT(10I8)                                                                   
       0       0       0       0       0       0       0       0       0       0
       0       0       0       0       0       0       0       0       0       0
       0       0       0       0       0       0       0       0       0       0
       0       0       0       0       0       0       0       0       0       0
       0       0       0       0       0       0       0       0       0       0
       0       0       0       0       0       0       0       0       0       0
       0       0       0       0       0       0       0       0       0       0
       0       0       0       0       0       0       0       0       0       0
       0       0       0       0       0       0       0       0       0       0
       0       0       0       0       0       0       0       0       0       0
       0       0       0       0       0       0       0       0       0       0
       0       0       0       0       0       0       0       0       0       0
       0       0       0       0       0       0       0       0       0       0
       0       0       0       0       0       0       0       0       0       0
       0       0       0       0       0       0       0       0       0       0
       0       0       0       0       0       0       0       0       0       0
       0       0       0       0       0       0       0       0       0       0
       0       0       0       0       0       0       0       0       0       0
       0       0       0       0       0       0       0       0       0       0
       0       0       0       0       0       0       0       0       0       0
       0       0       0       0       0       0       0       0       0       0
       0       0       0       0       0       0       0       0       0       0
       0       0       0       0       0       0       0       0       0       0
       0       0       0       0       0       0       0       0       0       0
       0       0       0       0       0       0       0       0       0       0
       0       0       0       0       0       0       0       0       0       0
       0       0       0       0       0       0       0       0       0       0
       0       0       0       0       0       0       0       0       0       0
       0       0       0       0       0       0       0       0       0       0
       0       0       0       0       0       0       0       0       0       0
       0       0       0       0       0       0       0       0       0       0
       0       0       0       0       0       0       0       0       0       0
       0       0       0       0       0       0       0       0       0       0
       0       0       0       0       0       0       0       0       0       0
       0       0       0       0       0       0       0       0       0       0
       0       0       0       0       0       0       0       0       0       0
       0       0       0       0       0       0       0       0       0       0
       0       0       0       0       0       0       0       0       0       0
       0       0       0       0       0       0       0       0       0       0
       0       0       0       0       0       0       0       0       0       0
       0       0       0       0       0       0       0       0       0       0
       0       0       0       0       0       0       0       0       0       0
       0       0       0       0       0       0       0       0       0       0
       0       0       0       0       0       0       0       0       0       0
       0       0       0       0       0       0       0       0       0       0
       0       0       0       0       0       0       0       0       0       0
       0       0       0       0       0       0       0       0       0       0
       0       0       0       0       0       0       0       0       0       0
       0       0       0       0       0       0       0       0       0       0
       0       0       0       0       0       0       0       0       0       0
       0       0       0       0       0       0       0       0       0       0
       0       0       0       0       0       0       0       0       0       0
       0       0       0       0       0       0       0       0       0       0
       0       0       0       0       0       0       0       0       0       0
       0       0       0       0       0       0       0       0       0       0
       0       0       0       0       0       0       0       0       0       0
       0       0       0       0       0       0       0       0       0       0
       0       0       0       0       0       0       0       0       0       0
       0       0       0       0       0       0       0       0       0       0
       0       0       0       0       0       0       0       0       0       0
       0       0       0       0       0       0       0       0       0       0
       0       0       0       0       0       0       0       0       0       0
       0       0       0       0       0       0       0       0       0       0
       0       0       0       0       0       0       0       0       0       0
       0       0       0       0       0       0       0       0       0       0
       0       0       0       0       0       0       0       0       0       0
       0       0       0       0       0       0       0       0       0       0
       0       0       0       0       0       0       0       0       0       0
       0       0       0       0       0       0       0       0       0       0
       0       0       0       0       0       0       0       0       0       0
       0       0       0       0       0       0       0       0       0       0
       0       0       0       0       0       0       0       0       0       0
       0       0       0       0       0       0       0       0       0       0
       0       0       0       0       0       0       0       0       0       0
       0       0       0       0       0       0       0       0       0       0
       0       0       0       0       0       0       0       0       0       0
       0       0       0       0       0       0       0       0       0       0
       0       0       0       0       0       0       0       0       0       0
       0       0       0       0       0       0       0       0       0       0
       0       0       0       0       0       0       0       0       0       0
       0       0       0       0       0       0       0       0       0       0
       0       0       0       0       0       0       0       0       0       0
       0       0       0       0       0       0       0       0       0       0
       0       0       0       0       0       0       0       0       0       0
       0       0       0       0       0       0       0       0       0       0
       0       0       0       0       0       0       0       0       0       0
       0       0       0       0       0       0       0       0       0       0
       0       0       0       0       0       0       0       0       0       0
       0       0       0       0       0       0       0       0       0       0
       0       0       0       0       0       0       0       0       0       0
       0       0       0       0       0       0       0       0       0       0
       0       0       0       0       0       0       0       0       0       0
       0       0       0       0       0       0       0       0       0       0
       0       0       0       0       0       0       0       0       0       0
       0       0       0       0       0       0       0       0       0       0
       0       0       0       0       0       0       0       0       0       0
       0       0       0       0       0       0       0       0       0       0
       0       0       0       0       0       0       0       0       0       0
       0       0       0       0       0       0       0       0       0       0
       0       0       0       0       0       0       0       0       0       0
       0       0       0       0       0       0       0       0       0       0
       0       0       0       0       0       0       0       0       0       0
       0       0       0       0       0       0       0       0       0       0
       0       0       0       0       0       0       0       0       0       0
       0       0       0       0       0       0       0       0       0       0
       0       0       0       0       0       0       0       0       0       0
       0       0       0       0       0       0       0       0       0       0
       0       0       0       0       0       0       0       0       0       0
       0       0       0       0       0       0       0       0       0       0
       0       0       0       0       0       0       0       0       0       0
       0       0       0       0       0       0       0       0       0       0
       0       0       0       0       0       0       0       0       0       0
       0       0       0       0       0       0       0       0       0       0
       0       0       0       0       0       0       0       0       0       0
       0       0       0       0       0       0       0       0       0       0
       0       0       0       0       0       0       0       0       0       0
       0       0       0       0       0       0       0       0       0       0
       0       0       0       0       0       0       0       0       0       0
       0       0       0       0       0       0       0       0       0       0
       0       0       0       0       0       0       0       0       0       0
       0       0       0       0       0       0       0       0       0       0
       0       0       0       0       0       0       0       0       0       0
       0       0       0       0       0       0       0       0       0       0
       0       0       0       0       0       0       0       0       0       0
       0       0       0       0       0       0       0       0       0       0
       0       0       0       0       0       0       0       0       0       0
       0       0       0       0       0       0       0       0       0       0
       0       0       0       0       0       0       0       0       0       0
       0       0       0       0       0       0       0       0       0       0
       0       0       0       0       0       0       0       0       0       0
       0       0       0       0       0       0       0       0       0       0
       0       0       0       0       0       0       0       0       0       0
       0       0       0       0       0       0       0       0       0       0
       0       0       0       0       0       0       0       0       0       0
       0       0       0       0       0       0       0       0       0       0
       0       0       0       0       0       0       0       0       0       0
       0       0       0       0       0       0       0       0       0       0
       0       0       0       0       0       0       0       0       0       0
       0       0       0       0       0       0       0       0       0       0
       0       0       0       0       0       0       0       0       0       0
       0       0       0       0       0       0       0       0       0       0
       0       0       0       0       0       0       0       0       0       0
       0       0       0       0       0       0       0       0       0       0
       0       0       0       0       0       0       0       0       0       0
       0       0       0       0       0       0       0       0       0       0
       0       0       0       0       0       0       0       0       0       0
       0       0       0       0       0       0       0       0       0       0
       0       0       0       0       0       0       0       0       0       0
       0       0       0       0       0       0       0       0       0       0
       0       0       0       0       0       0       0       0       0       0
       0       0       0       0       0       0       0       0       0       0
       0       0       0       0       0       0       0       0       0       0
       0       0       0       0       0       0       0       0       0       0
       0       0       0       0       0       0       0       0       0       0
       0       0       0       0       0       0       0       0       0       0
       0       0       0       0       0       0       0       0       0       0
       0       0       0       0       0       0       0       0       0       0
       0       0       0       0       0       0       0       0       0       0
       0       0       0       0       0       0       0       0       0       0
       0       0       0       0       0       0       0       0       0       0
       0       0       0       0       0       0       0       0       0       0
       0       0       0       0       0       0       0       0       0       0
       0       0       0       0       0       0       0       0       0       0
       0       0       0       0       0       0       0       0       0       0
       0       0       0       0       0       0       0       0       0       0
       0       0       0       0       0       0       0       0       0       0
       0       0       0       0       0       0       0       0       0       0
       0       0       0       0       0       0       0       0       0       0
       0       0       0       0       0       0       0       0       0       0
       0       0       0       0       0       0       0       0       0       0
       0       0       0       0       0       0       0       0       0       0
       0       0       0       0       0       0       0       0       0       0
       0       0       0       0       0       0       0       0       0       0
       0       0       0       0       0       0       0       0       0       0
       0       0       0       0       0       0       0       0       0       0
       0       0       0       0       0       0       0       0       0       0
       0       0       0       0       0       0       0       0       0       0
       0       0       0       0       0       0       0       0       0       0
       0       0       0       0       0       0       0       0       0       0
       0       0       0       0       0       0       0       0       0       0
       0       0       0       0       0       0       0       0       0       0
       0       0       0       0       0       0       0       0       0       0
       0       0       0       0       0       0       0       0       0       0
       0       0       0       0       0       0       0       0       0       0
       0       0       0       0       0       0       0       0       0       0
       0       0       0       0       0       0       0       0       0       0
       0       0       0       0       0       0       0       0       0       0
       0       0       0       0       0       0       0       0       0       0
       0       0       0       0       0       0       0       0       0       0
       0       0       0       0       0       0       0       0       0       0
       0       0       0       0       0       0       0       0       0       0
       0       0       0       0       0       0       0       0       0       0
       0       0       0       0       0       0       0       0       0       0
       0       0       0       0       0       0       0       0       0       0
       0       0       0       0       0       0       0       0       0       0
       0       0       0       0       0       0       0       0       0       0
       0       0       0       0       0       0       0       0       0       0
       0       0       0       0       0       0       0       0       0       0
       0       0       0       0       0       0       0       0       0       0
       0       0       0       0       0       0       0       0       0       0
       0       0       0       0       0       0       0       0       0       0
       0       0       0       0       0       0       0       0       0       0
       0       0       0       0       0       0       0       0       0       0
       0       0       0       0       0       0       0       0       0       0
       0       0       0       0       0       0       0       0       0       0
       0       0       0       0       0       0       0       0       0       0
       0       0       0       0       0       0       0       0       0       0
       0       0       0       0       0       0       0       0       0       0
       0       0       0       0       0       0       0       0       0       0
       0       0       0       0       0       0       0       0       0       0
       0       0       0       0       0       0       0       0       0       0
       0       0       0       0       0       0       0       0       0       0
       0       0       0       0       0       0       0       0       0       0
       0       0       0       0       0       0       0       0       0       0
       0       0       0       0       0       0       0       0       0       0
       0       0       0       0       0       0       0       0       0       0
       0       0       0       0       0       0       0       0       0       0
       0       0       0       0       0       0       0       0       0       0
       0       0       0       0       0       0       0       0       0       0
       0       0       0       0       0       0       0       0       0       0
       0       0       0       0       0       0       0       0       0       0
       0       0       0       0       0       0       0       0       0       0
       0       0       0       0       0       0       0       0       0       0
       0       0       0       0       0       0       0       0       0       0
       0       0       0       0       0       0       0       0       0       0
       0       0       0       0       0       0       0       0       0       0
       0       0       0       0       0       0       0       0       0       0
       0       0       0       0       0       0       0       0       0       0
       0       0       0       0       0       0       0       0       0       0
       0       0       0       0       0       0       0       0       0       0
       0       0       0       0       0       0       0       0       0       0
       0       0       0       0       0       0       0       0       0       0
       0       0       0       0       0       0       0       0       0       0
       0       0       0       0       0       0       0       0       0       0
       0       0       0       0       0       0       0       0       0       0
       0       0       0       0       0       0       0       0       0       0
       0       0       0       0       0       0       0       0       0       0
       0       0       0       0       0       0       0       0       0       0
       0       0       0       0       0       0       0       0       0       0
       0       0       0       0       0       0       0       0       0       0
       0       0       0       0       0       0       0       0       0       0
       0       0       0       0       0       0       0       0       0       0
       0       0       0       0       0       0       0       0       0       0
       0       0       0       0       0       0       0       0       0       0
       0       0       0       0       0       0       0       0       0       0
       0       0       0       0       0       0       0       0       0       0
       0       0       0       0       0       0       0       0       0       0
       0       0       0       0       0       0       0       0       0       0
       0       0       0       0       0       0       0       0       0       0
       0       0       0       0       0       0       0       0       0       0
       0       0       0       0       0       0       0       0       0       0
       0       0       0       0       0       0       0       0       0       0
       0       0       0       0       0       0       0       0       0       0
       0       0       0       0       0       0       0       0       0       0
       0       0       0       0       0       0       0       0       0       0
       0       0       0       0       0       0       0       0       0       0
       0       0       0       0       0       0       0       0       0       0
       0       0       0       0       0       0       0       0       0       0
       0       0       0       0       0       0       0       0       0       0
       0       0       0       0       0       0       0       0       0       0
       0       0       0       0       0       0       0       0       0       0
       0       0       0       0       0       0       0       0       0       0
       0       0       0       0       0       0       0       0       0       0
       0       0       0       0       0       0       0       0       0       0
       0       0       0       0       0       0       0       0       0       0
       0       0       0       0       0       0       0       0       0       0
       0       0       0       0       0       0       0       0       0       0
       0       0       0       0       0       0       0       0       0       0
       0       0       0       0       0       0       0       0       0       0
       0       0       0       0       0       0       0       0       0       0
       0       0       0       0       0       0       0       0       0       0
       0       0       0       0       0       0       0       0       0       0
       0       0       0       0       0       0       0       0       0       0
       0       0       0       0       0       0       0       0       0       0
       0       0       0       0       0       0       0       0       0       0
       0       0       0       0       0       0       0       0       0       0
       0       0       0       0       0       0       0       0       0       0
       0       0       0       0       0       0       0       0       0       0
       0       0       0       0       0       0       0       0       0       0
       0       0       0       0       0       0       0       0       0       0
       0       0       0       0       0       0       0       0       0       0
       0       0       0       0       0       0       0       0       0       0
       0       0       0       0       0       0       0       0       0       0
       0       0       0       0       0       0       0       0       0       0
       0       0       0       0       0       0       0       0       0       0
       0       0       0       0       0       0       0       0       0       0
       0       0       0       0       0       0       0       0       0       0
       0       0       0       0       0       0       0       0       0       0
       0       0       0       0       0       0       0       0       0       0
       0       0       0       0       0       0       0       0       0       0
       0       0       0       0       0       0       0       0       0       0
       0       0       0       0       0       0       0       0       0       0
       0       0       0       0       0       0       0       0       0       0
       0       0       0       0       0       0       0       0       0       0
       0       0       0       0       0       0       0       0       0       0
       0       0       0       0       0       0       0       0       0       0
       0       0       0       0       0       0       0       0       0       0
       0       0       0       0       0       0       0       0       0       0
       0       0       0       0       0       0       0       0       0       0
       0       0       0       0       0       0       0       0       0       0
       0       0       0       0       0       0       0       0       0       0
       0       0       0       0       0       0       0       0       0       0
       0       0       0       0       0       0       0       0       0       0
       0       0       0       0       0       0       0       0       0       0
       0       0       0       0       0       0       0       0       0       0
       0       0       0       0       0       0       0       0       0       0
       0       0       0       0       0       0       0       0       0       0
       0       0       0       0       0       0       0       0       0       0
       0       0       0       0       0       0       0       0       0       0
       0       0       0       0       0       0       0       0       0       0
       0       0       0       0       0       0       0       0       0       0
       0       0       0       0       0       0       0       0       0       0
       0       0       0       0       0       0       0       0       0       0
       0       0       0       0       0       0       0       0       0       0
       0       0       0       0       0       0       0       0       0       0
       0       0       0       0       0       0       0       0       0       0
       0       0       0       0       0       0       0       0       0       0
       0       0       0       0       0       0       0       0       0       0
       0       0       0       0       0       0       0       0       0       0
       0       0       0       0       0       0       0       0       0       0
       0       0       0       0       0       0       0       0       0       0
       0       0       0       0       0       0       0       0       0       0
       0       0       0       0       0       0       0       0       0       0
       0       0       0       0       0       0       0       0       0       0
       0       0       0       0       0       0       0       0       0       0
       0       0       0       0       0       0       0       0       0       0
       0       0       0       0       0       0       0       0       0       0
       0       0       0       0       0       0       0       0       0       0
       0       0       0       0       0       0       0       0       0       0
       0       0       0       0       0       0       0       0       0       0
       0       0       0       0       0       0       0       0       0       0
       0       0       0       0       0       0       0       0       0       0
       0       0       0       0       0       0       0       0       0       0
       0       0       0       0       0       0       0       0       0       0
       0       0       0       0       0       0       0       0       0       0
       0       0       0       0       0       0       0       0       0       0
       0       0       0       0       0       0       0       0       0       0
       0       0       0       0       0       0       0       0       0       0
       0       0       0       0       0       0       0       0       0       0
       0       0       0       0       0       0       0       0       0       0
       0       0       0       0       0       0       0       0       0       0
       0       0       0       0       0       0       0       0       0       0
       0       0       0       0       0       0       0       0       0       0
       0       0       0       0       0       0       0       0       0       0
       0       0       0       0       0       0       0       0       0       0
       0       0       0       0       0       0       0       0       0       0
       0       0       0       0       0       0       0       0       0       0
       0       0       0       0       0       0       0       0       0       0
       0       0       0       0       0       0       0       0       0       0
       0       0       0       0       0       0       0       0       0       0
       0       0       0       0       0       0       0       0       0       0
       0       0       0       0       0       0       0       0       0       0
       0       0       0       0       0       0       0       0       0       0
       0       0       0       0       0       0       0       0       0       0
       0       0       0       0       0       0       0       0       0       0
       0       0       0       0       0       0       0       0       0       0
       0       0       0       0       0       0       0       0       0       0
       0       0       0       0       0       0       0       0       0       0
       0       0       0       0       0       0       0       0       0       0
       0       0       0       0       0       0       0       0       0       0
       0       0       0       0       0       0       0       0       0       0
       0       0       0       0       0       0       0       0       0       0
       0       0       0       0       0       0       0       0       0       0
       0       0       0       0       0       0       0       0       0       0
       0       0       0       0       0       0       0       0       0       0
       0       0       0       0       0       0       0       0       0       0
       0       0       0       0       0       0       0       0       0       0
       0       0       0       0       0       0       0       0       0       0
       0       0       0       0       0       0       0       0       0       0
       0       0       0       0       0       0       0       0       0       0
       0       0       0       0       0       0       0       0       0       0
       0       0       0       0       0       0       0       0       0       0
       0       0       0       0       0       0       0       0       0       0
       0       0       0       0       0       0       0       0       0       0
       0       0       0       0       0       0       0       0       0       0
       0       0       0       0       0       0       0       0       0       0
       0       0       0       0       0       0       0       0       0       0
       0       0       0       0       0       0       0       0       0       0
       0       0       0       0       0       0       0       0       0       0
       0       0       0       0       0       0       0       0       0       0
       0       0       0       0       0       0       0       0       0       0
       0       0       0       0       0       0       0       0       0       0
       0       0       0       0       0       0       0       0       0       0
       0       0       0       0       0       0       0       0       0       0
       0       0       0       0       0       0       0       0       0       0
       0       0       0       0       0       0       0       0       0       0
       0       0       0       0       0       0       0       0       0       0
       0       0       0       0       0       0       0       0       0       0
       0       0       0       0       0       0       0       0       0       0
       0       0       0       0       0       0       0       0       0       0
       0       0       0       0       0       0       0       0       0       0
       0       0       0       0       0       0       0       0       0       0
       0       0       0       0       0       0       0       0       0       0
       0       0       0       0       0       0       0       0       0       0
       0       0       0       0       0       0       0       0       0       0
       0       0       0       0       0       0       0       0       0       0
       0       0       0       0       0       0       0       0       0       0
       0       0       0       0       0       0       0       0       0       0
       0       0       0       0       0       0       0       0       0       0
       0       0       0       0       0       0       0       0       0       0
       0       0       0       0       0       0       0       0       0       0
       0       0       0       0       0       0       0       0       0       0
       0       0       0       0       0       0       0       0       0       0
       0       0       0       0       0       0       0       0       0       0
       0       0       0       0       0       0       0       0       0       0
       0       0       0       0       0       0       0       0       0       0
       0       0       0       0       0       0       0       0       0       0
       0       0       0       0       0       0       0       0       0       0
       0       0       0       0       0       0       0       0       0       0
       0       0       0       0       0       0       0       0       0       0
       0       0       0       0       0       0       0       0       0       0
       0       0       0       0       0       0       0       0       0       0
       0       0       0       0       0       0       0       0       0       0
       0       0       0       0       0       0       0       0       0       0
       0       0       0       0       0       0       0       0       0       0
       0       0       0       0       0       0       0       0       0       0
       0       0       0       0       0       0       0       0       0       0
       0       0       0       0       0       0       0       0       0       0
       0       0       0       0       0       0       0       0       0       0
       0       0       0       0       0       0       0       0       0       0
       0       0       0       0       0       0       0       0       0       0
       0       0       0       0       0       0       0       0       0       0
       0       0       0       0       0       0       0       0       0       0
       0       0       0       0       0       0       0       0       0       0
       0       0       0       0       0       0       0       0       0       0
       0       0       0       0       0       0       0       0       0       0
       0       0       0       0       0       0       0       0       0       0
       0       0       0       0       0       0       0       0       0       0
       0       0       0       0       0       0       0       0       0       0
       0       0       0       0       0       0       0       0       0       0
       0       0       0       0       0       0       0       0       0       0
       0       0       0       0       0       0       0       0       0       0
       0       0       0       0       0       0       0       0       0       0
       0       0       0       0       0       0       0       0       0       0
       0       0       0       0       0       0       0       0       0       0
       0       0       0       0       0       0       0       0       0       0
       0       0       0       0       0       0       0       0       0       0
       0       0       0       0       0       0       0       0       0       0
       0       0       0       0       0       0       0       0       0       0
       0       0       0       0       0       0       0       0       0       0
       0       0       0       0       0       0       0       0       0       0
       0       0       0       0       0       0       0       0       0       0
       0       0       0       0       0       0       0       0       0       0
       0       0       0       0       0       0       0       0       0       0
       0       0       0       0       0       0       0       0       0       0
       0       0       0       0       0       0       0       0       0       0
       0       0       0       0       0       0       0       0       0       0
       0       0       0       0       0       0       0       0       0       0
       0       0       0       0       0       0       0       0       0       0
       0       0       0       0       0       0       0       0       0       0
       0       0       0       0       0       0       0       0       0       0
       0       0       0       0       0       0       0       0       0       0
       0       0       0       0       0       0       0       0       0       0
       0       0       0       0       0       0       0       0       0       0
       0       0       0       0       0       0       0       0       0       0
       0       0       0       0       0       0       0       0       0       0
       0       0       0       0       0       0       0       0       0       0
       0       0       0       0       0       0       0       0       0       0
       0       0       0       0       0       0       0       0       0       0
       0       0       0       0       0       0       0       0       0       0
       0       0       0       0       0       0       0       0       0       0
       0       0       0       0       0       0       0       0       0       0
       0       0       0       0       0       0       0       0       0       0
       0       0       0       0       0       0       0       0       0       0
       0       0       0       0       0       0       0       0       0       0
       0       0       0       0       0       0       0       0       0       0
       0       0       0       0       0       0       0       0       0       0
       0       0       0       0       0       0       0       0       0       0
       0       0       0       0       0       0       0       0       0       0
       0       0       0       0       0       0       0       0       0       0
       0       0       0       0       0       0       0       0       0       0
       0       0       0       0       0       0       0       0       0       0
       0       0       0       0       0       0       0       0       0       0
       0       0       0       0       0       0       0       0       0       0
       0       0       0       0       0       0       0       0       0       0
       0       0       0       0       0       0       0       0       0       0
       0       0       0       0       0       0       0       0       0       0
       0       0       0       0       0       0       0       0       0       0
       0       0       0       0       0       0       0       0       0       0
       0       0       0       0       0       0       0       0       0       0
       0       0       0       0       0       0       0       0       0       0
       0       0       0       0       0       0       0       0       0       0
       0       0       0       0       0       0       0       0       0       0
       0       0       0       0       0       0       0       0       0       0
       0       0       0       0       0       0       0       0       0       0
       0       0       0       0       0       0       0       0       0       0
       0       0       0       0       0       0       0       0       0       0
       0       0       0       0       0       0       0       0       0       0
       0       0       0       0       0       0       0       0       0       0
       0       0       0       0       0       0       0       0       0       0
       0       0       0       0       0       0       0       0       0       0
       0       0       0       0       0       0       0       0       0       0
       0       0       0       0       0       0       0       0       0       0
       0       0       0       0       0       0       0       0       0       0
       0       0       0       0       0       0       0       0       0       0
       0       0       0       0       0       0       0       0       0       0
       0       0       0       0       0       0       0       0       0       0
       0       0       0       0       0       0       0       0       0       0
       0       0       0       0       0       0       0       0       0       0
       0       0       0       0       0       0       0       0       0       0
       0       0       0       0       0       0       0       0       0       0
       0       0       0       0       0       0       0       0       0       0
       0       0       0       0       0       0       0       0       0       0
       0       0       0       0       0       0       0       0       0       0
       0       0       0       0       0       0       0       0       0       0
       0       0       0       0       0       0       0       0       0       0
       0       0       0       0       0       0       0       0       0       0
       0       0       0       0       0       0       0       0       0       0
       0       0       0       0       0       0       0       0       0       0
       0       0       0       0       0       0       0       0       0       0
       0       0       0       0       0       0       0       0       0       0
       0       0       0       0       0       0       0       0       0       0
       0       0       0       0       0       0       0       0       0       0
       0       0       0       0       0       0       0       0       0       0
       0       0       0       0       0       0       0       0       0       0
       0       0       0       0       0       0       0       0       0       0
       0       0       0       0       0       0       0       0       0       0
       0       0       0       0       0       0       0       0       0       0
       0       0       0       0       0       0       0       0       0       0
       0       0       0       0       0       0       0       0       0       0
       0       0       0       0       0       0       0       0       0       0
       0       0       0       0       0       0       0       0       0       0
       0       0       0       0       0       0       0       0       0       0
       0       0       0       0       0       0       0       0       0       0
       0       0       0       0       0       0       0       0       0       0
       0       0       0       0       0       0       0       0       0       0
       0       0       0       0       0       0       0       0       0       0
       0       0       0       0       0       0       0       0       0       0
       0       0       0       0       0       0       0       0       0       0
       0       0       0       0       0       0       0       0       0       0
       0       0       0       0       0       0       0       0       0       0
       0       0       0       0       0       0       0       0       0       0
       0       0       0       0       0       0       0       0       0       0
       0       0       0       0       0       0       0       0       0       0
       0       0       0       0       0       0       0       0       0       0
       0       0       0       0       0       0       0       0       0       0
       0       0       0       0       0       0       0       0       0       0
       0       0       0       0       0       0       0       0       0       0
       0       0       0       0       0       0       0       0       0       0
       0       0       0       0       0       0       0       0       0       0
       0       0       0       0       0       0       0       0       0       0
       0       0       0       0       0       0       0       0       0       0
       0       0       0       0       0       0       0       0       0       0
       0       0       0       0       0       0       0       0       0       0
       0       0       0       0       0       0       0       0       0       0
       0       0       0       0       0       0       0       0       0       0
       0       0       0       0       0       0       0       0       0       0
       0       0       0       0       0       0       0       0       0       0
       0       0       0       0       0       0       0       0       0       0
       0       0       0       0       0       0       0       0       0       0
       0       0       0       0       0       0       0       0       0       0
       0       0       0       0       0       0       0       0       0       0
       0       0       0       0       0       0       0       0       0       0
       0       0       0       0       0       0       0       0       0       0
       0       0       0       0       0       0       0       0       0       0
       0       0       0       0       0       0       0       0       0       0
       0       0       0       0       0       0       0       0       0       0
       0       0       0       0       0       0       0       0       0       0
       0       0       0       0       0       0       0       0       0       0
       0       0       0       0       0       0       0       0       0       0
       0       0       0       0       0       0       0       0       0       0
       0       0       0       0       0       0       0       0       0       0
       0       0       0       0       0       0       0       0       0       0
       0       0       0       0       0       0       0       0       0       0
       0       0       0       0       0       0       0       0       0       0
       0       0       0       0       0       0       0       0       0       0
       0       0       0       0       0       0       0       0       0       0
       0       0       0       0       0       0       0       0       0       0
       0       0       0       0       0       0       0       0       0       0
       0       0       0       0       0       0       0       0       0       0
       0       0       0       0       0       0       0       0       0       0
       0       0       0       0       0       0       0       0       0       0
       0       0       0       0       0       0       0       0       0       0
       0       0       0       0       0       0       0       0       0       0
       0       0       0       0       0       0       0       0       0       0
       0       0       0       0       0       0       0       0       0       0
       0       0       0       0       0       0       0       0       0       0
       0       0       0       0       0       0       0       0       0       0
       0       0       0       0       0       0       0       0       0       0
       0       0       0       0       0       0       0       0       0       0
       0       0       0       0       0       0       0       0       0       0
       0       0       0       0       0       0       0       0       0       0
       0       0       0       0       0       0       0       0       0       0
       0       0       0       0       0       0       0       0       0       0
       0       0       0       0       0       0       0       0       0       0
       0       0       0       0       0       0       0       0       0       0
       0       0       0       0       0       0       0       0       0       0
       0       0       0       0       0       0       0       0       0       0
       0       0       0       0       0       0       0       0       0       0
       0       0       0       0       0       0       0       0       0       0
       0       0       0       0       0       0       0       0       0       0
       0       0       0       0       0       0       0       0       0       0
       0       0       0       0       0       0       0       0       0       0
       0       0       0       0       0       0       0       0       0       0
       0       0       0       0       0       0       0       0       0       0
       0       0       0       0       0       0       0       0       0       0
       0       0       0       0       0       0       0       0       0       0
       0       0       0       0       0       0       0       0       0       0
       0       0       0       0       0       0       0       0       0       0
       0       0       0       0       0       0       0       0       0       0
       0       0       0       0       0       0       0       0       0       0
       0       0       0       0       0       0       0       0       0       0
       0       0       0       0       0       0       0       0       0       0
       0       0       0       0       0       0       0       0       0       0
       0       0       0       0       0       0       0       0       0       0
       0       0       0       0       0       0       0       0       0       0
       0       0       0       0       0       0       0       0       0       0
       0       0       0       0       0       0       0       0       0       0
       0       0       0       0       0       0       0       0       0       0
       0       0       0       0       0       0       0       0       0       0
       0       0       0       0       0       0       0       0       0       0
       0       0       0       0       0       0       0       0       0       0
       0       0       0       0       0       0       0       0       0       0
       0       0       0       0       0       0       0       0       0       0
       0       0       0       0       0       0       0       0       0       0
       0       0       0       0       0       0       0       0       0       0
       0       0       0       0       0       0       0       0       0       0
       0       0       0       0       0       0       0       0       0       0
       0       0       0       0       0       0       0       0       0       0
       0       0       0       0       0       0       0       0       0       0
       0       0       0       0       0       0       0       0       0       0
       0       0       0       0       0       0       0       0       0       0
       0       0       0       0       0       0       0       0       0       0
       0       0       0       0       0       0       0       0       0       0
       0       0       0       0       0       0       0       0       0       0
       0       0       0       0       0       0       0       0       0       0
       0       0       0       0       0       0       0       0       0       0
       0       0       0       0       0       0       0       0       0       0
       0       0       0       0       0       0       0       0       0       0
       0       0       0       0       0       0       0       0       0       0
       0       0       0       0       0       0       0       0       0       0
       0       0       0       0       0       0       0       0       0       0
       0       0       0       0       0       0       0       0       0       0
       0       0       0       0       0       0       0       0       0       0
       0       0       0       0       0       0       0       0       0       0
       0       0       0       0       0       0       0       0       0       0
       0       0       0       0       0       0       0       0       0       0
       0       0       0       0       0       0       0       0       0       0
       0       0       0       0       0       0       0       0       0       0
       0       0       0       0       0       0       0       0       0       0
       0       0       0       0       0       0       0       0       0       0
       0       0       0       0       0       0       0       0       0       0
       0       0       0       0       0       0       0       0       0       0
       0       0       0       0       0       0       0       0       0       0
       0       0       0       0       0       0       0       0       0       0
       0       0       0       0       0       0       0       0       0       0
       0       0       0       0       0       0       0       0       0       0
       0       0       0       0       0       0       0       0       0       0
       0       0       0       0       0       0       0       0       0       0
       0       0       0       0       0       0       0       0       0       0
       0       0       0       0       0       0       0       0       0       0
       0       0       0       0       0       0       0       0       0       0
       0       0       0       0       0       0       0       0       0       0
       0       0       0       0       0       0       0       0       0       0
       0       0       0       0       0       0       0       0       0       0
       0       0       0       0       0       0       0       0       0       0
       0       0       0       0       0       0       0       0       0       0
       0       0       0       0       0       0       0       0       0       0
       0       0       0       0       0       0       0       0       0       0
       0       0       0       0       0       0       0       0       0       0
       0       0       0       0       0       0       0       0       0       0
       0       0       0       0       0       0       0       0       0       0
       0       0       0       0       0       0       0       0       0       0
       0       0       0       0       0       0       0       0       0       0
       0       0       0       0       0       0       0       0       0       0
       0       0       0       0       0       0       0       0       0       0
       0       0       0       0       0       0       0       0       0       0
       0       0       0       0       0       0       0       0       0       0
       0       0       0       0       0       0       0       0       0       0
       0       0       0       0       0       0       0       0       0       0
       0       0       0       0       0       0       0       0       0       0
       0       0       0       0       0       0       0       0       0       0
       0       0       0       0       0       0       0       0       0       0
       0       0       0       0       0       0       0       0       0       0
       0       0       0       0       0       0       0       0       0       0
       0       0       0       0       0       0       0       0       0       0
       0       0       0       0       0       0       0       0       0       0
       0       0       0       0       0       0       0       0       0       0
       0       0       0       0       0       0       0       0       0       0
       0       0       0       0       0       0       0       0       0       0
       0       0       0       0       0       0       0       0       0       0
       0       0       0       0       0       0       0       0       0       0
       0       0       0       0       0       0       0       0       0       0
       0       0       0       0       0       0       0       0       0       0
       0       0       0       0       0       0       0       0       0       0
       0       0       0       0       0       0       0       0       0       0
       0       0       0       0       0       0       0       0       0       0
       0       0       0       0       0       0       0       0       0       0
       0       0       0       0       0       0       0       0       0       0
       0       0       0       0       0       0       0       0       0       0
       0       0       0       0       0       0       0       0       0       0
       0       0       0       0       0       0       0       0       0       0
       0       0       0       0       0       0       0       0       0       0
       0       0       0       0       0       0       0       0       0       0
       0       0       0       0       0       0       0       0       0       0
       0       0       0       0       0       0       0       0       0       0
       0       0       0       0       0       0       0       0       0       0
       0       0       0       0       0       0       0       0       0       0
       0       0       0       0       0       0       0       0       0       0
       0       0       0       0       0       0       0       0       0       0
       0       0       0       0       0       0       0       0       0       0
       0       0       0       0       0       0       0       0       0       0
       0       0       0       0       0       0       0       0       0       0
       0       0       0       0       0       0       0       0       0       0
       0       0       0       0       0       0       0       0       0       0
       0       0       0       0       0       0       0       0       0       0
       0       0       0       0       0       0       0       0       0       0
       0       0       0       0       0       0       0       0       0       0
       0       0       0       0       0       0       0       0       0       0
       0       0       0       0       0       0       0       0       0       0
       0       0       0       0       0       0       0       0       0       0
       0       0       0       0       0       0       0       0       0       0
       0       0       0       0       0       0       0       0       0       0
       0       0       0       0       0       0       0       0       0       0
       0       0       0       0       0       0       0       0       0       0
       0       0       0       0       0       0       0       0       0       0
       0       0       0       0       0       0       0       0       0       0
       0       0       0       0       0       0       0       0       0       0
       0       0       0       0       0       0       0       0       0       0
       0       0       0       0       0       0       0       0       0       0
       0       0       0       0       0       0       0       0       0       0
       0       0       0       0       0       0       0       0       0       0
       0       0       0       0       0       0       0       0       0       0
       0       0       0       0       0       0       0       0       0       0
       0       0       0       0       0       0       0       0       0       0
       0       0       0       0       0       0       0       0       0       0
       0       0       0       0       0       0       0       0       0       0
       0       0       0       0       0       0       0       0       0       0
       0       0       0       0       0       0       0       0       0       0
       0       0       0       0       0       0       0       0       0       0
       0       0       0       0       0       0       0       0       0       0
       0       0       0       0       0       0       0       0       0       0
       0       0       0       0       0       0       0       0       0       0
       0       0       0       0       0       0       0       0       0       0
       0       0       0       0       0       0       0       0       0       0
       0       0       0       0       0       0       0       0       0       0
       0       0       0       0       0       0       0       0       0       0
       0       0       0       0       0       0       0       0       0       0
       0       0       0       0       0       0       0       0       0       0
       0       0       0       0       0       0       0       0       0       0
       0       0       0       0       0       0       0       0       0       0
       0       0       0       0       0       0       0       0       0       0
       0       0       0       0       0       0       0       0       0       0
       0       0       0       0       0       0       0       0       0       0
       0       0       0       0       0       0       0       0       0       0
       0       0       0       0       0       0       0       0       0       0
       0       0       0       0       0       0       0       0       0       0
       0       0       0       0       0       0       0       0       0       0
       0       0       0       0       0       0       0       0       0       0
       0       0       0       0       0       0       0       0       0       0
       0       0       0       0       0       0       0       0       0       0
       0       0       0       0       0       0       0       0       0       0
       0       0       0       0       0       0       0       0       0       0
       0       0       0       0       0       0       0       0       0       0
       0       0       0       0       0       0       0       0       0       0
       0       0       0       0       0       0       0       0       0       0
       0       0       0       0       0       0       0       0       0       0
       0       0       0       0       0       0       0       0       0       0
       0       0       0       0       0       0       0       0       0       0
       0       0       0       0       0       0       0       0       0       0
       0       0       0       0       0       0       0       0       0       0
       0       0       0       0       0       0       0       0       0       0
       0       0       0       0       0       0       0       0       0       0
       0       0       0       0       0       0       0       0       0       0
       0       0       0       0       0       0       0       0       0       0
       0       0       0       0       0       0       0       0       0       0
       0       0       0       0       0       0       0       0       0       0
       0       0       0       0       0       0       0       0       0       0
       0       0       0       0       0       0       0       0       0       0
       0       0       0       0       0       0       0       0       0       0
       0       0       0       0       0       0       0       0       0       0
       0       0       0       0       0       0       0       0       0       0
       0       0       0       0       0       0       0       0       0       0
       0       0       0       0       0       0       0       0       0       0
       0       0       0       0       0       0       0       0       0       0
       0       0       0       0       0       0       0       0       0       0
       0       0       0       0       0       0       0       0       0       0
       0       0       0       0       0       0       0       0       0       0
       0       0       0       0       0       0       0       0       0       0
       0       0       0       0       0       0       0       0       0       0
       0       0       0       0       0       0       0       0       0       0
       0       0       0       0       0       0       0       0       0       0
       0       0       0       0       0       0       0       0       0       0
       0       0       0       0       0       0       0       0       0       0
       0       0       0       0       0       0       0       0       0       0
       0       0       0       0       0       0       0       0       0       0
       0       0       0       0       0       0       0       0       0       0
       0       0       0       0       0       0       0       0       0       0
       0       0       0       0       0       0       0       0       0       0
       0       0       0       0       0       0       0       0       0       0
       0       0       0       0       0       0       0       0       0       0
       0       0       0       0       0       0       0       0       0       0
       0       0       0       0       0       0       0       0       0       0
       0       0       0       0       0       0       0       0       0       0
       0       0       0       0       0       0       0       0       0       0
       0       0       0       0       0       0       0       0       0       0
       0       0       0       0       0       0       0       0       0       0
       0       0       0       0       0       0       0       0       0       0
       0       0       0       0       0       0       0       0       0       0
       0       0       0       0       0       0       0       0       0       0
       0       0       0       0       0       0       0       0       0       0
       0       0       0       0       0       0       0       0       0       0
       0       0       0       0       0       0       0       0       0       0
       0       0       0       0       0       0       0       0       0       0
       0       0       0       0       0       0       0       0       0       0
       0       0       0       0       0       0       0       0       0       0
       0       0       0       0       0       0       0       0       0       0
       0       0       0       0       0       0       0       0       0       0
       0       0       0       0       0       0       0       0       0       0
       0       0       0       0       0       0       0       0       0       0
       0       0       0       0       0       0       0       0       0       0
       0       0       0       0       0       0       0       0       0       0
       0       0       0       0       0       0       0       0       0       0
       0       0       0       0       0       0       0       0       0       0
       0       0       0       0       0       0       0       0       0       0
       0       0       0       0       0       0       0       0       0       0
       0       0       0       0       0       0       0       0       0       0
       0       0       0       0       0       0       0       0       0       0
       0       0       0       0       0       0       0       0       0       0
       0       0       0       0       0       0       0       0       0       0
       0       0       0       0       0       0       0       0       0       0
       0       0       0       0       0       0       0       0       0       0
       0       0       0       0       0       0       0       0       0       0
       0       0       0       0       0       0       0       0       0       0
       0       0       0       0       0       0       0       0       0       0
       0       0       0       0       0       0       0       0       0       0
       0       0       0       0       0       0       0       0       0       0
       0       0       0       0       0       0       0       0       0       0
       0       0       0       0       0       0       0       0       0       0
       0       0       0       0       0       0       0       0       0       0
       0       0       0       0       0       0       0       0       0       0
       0       0       0       0       0       0       0       0       0       0
       0       0       0       0       0       0       0       0       0       0
       0       0       0       0       0       0       0       0       0       0
       0       0       0       0       0       0       0       0       0       0
       0       0       0       0       0       0       0       0       0       0
       0       0       0       0       0       0       0       0       0       0
       0       0       0       0       0       0       0       0       0       0
       0       0       0       0       0       0       0       0       0       0
       0       0       0       0       0       0       0       0       0       0
       0       0       0       0       0       0       0       0       0       0
       0       0       0       0       0       0       0       0       0       0
       0       0       0       0       0       0       0       0       0       0
       0       0       0       0       0       0       0       0       0       0
       0       0       0       0       0       0       0       0       0       0
       0       0       0       0       0       0       0       0       0       0
       0       0       0       0       0       0       0       0       0       0
       0       0       0       0       0       0       0       0       0       0
       0       0       0       0       0       0       0       0       0       0
       0       0       0       0       0       0       0       0       0       0
       0       0       0       0       0       0       0       0       0       0
       0       0       0       0       0       0       0       0       0       0
       0       0       0       0       0       0       0       0       0       0
       0       0       0       0       0       0       0       0       0       0
       0       0       0       0       0       0       0       0       0       0
       0       0       0       0       0       0       0       0       0       0
       0       0       0       0       0       0       0       0       0       0
       0       0       0       0       0       0       0       0       0       0
       0       0       0       0       0       0       0       0       0       0
       0       0       0       0       0       0       0       0       0       0
       0       0       0       0       0       0       0       0       0       0
       0       0       0       0       0       0       0       0       0       0
       0       0       0       0       0       0       0       0       0       0
       0       0       0       0       0       0       0       0       0       0
       0       0       0       0       0       0       0       0       0       0
       0       0       0       0       0       0       0       0       0       0
       0       0       0       0       0       0       0       0       0       0
       0       0       0       0       0       0       0       0       0       0
       0       0       0       0       0       0       0       0       0       0
       0       0       0       0       0       0       0       0       0       0
       0       0       0       0       0       0       0       0       0       0
       0       0       0       0       0       0       0       0       0       0
       0       0       0       0       0       0       0       0       0       0
       0       0       0       0       0       0       0       0       0       0
       0       0       0       0       0       0       0       0       0       0
       0       0       0       0       0       0       0       0       0       0
       0       0       0       0       0       0       0       0       0       0
       0       0       0       0       0       0       0       0       0       0
       0       0       0       0       0       0       0       0       0       0
       0       0       0       0       0       0       0       0       0       0
       0       0       0       0       0       0       0       0       0       0
       0       0       0       0       0       0       0       0       0       0
       0       0       0       0       0       0       0       0       0       0
       0       0       0       0       0       0       0       0       0       0
       0       0       0       0       0       0       0       0       0       0
       0       0       0       0       0       0       0       0       0       0
       0       0       0       0       0       0       0       0       0       0
       0       0       0       0       0       0       0       0       0       0
       0       0       0       0       0       0       0       0       0       0
       0       0       0       0       0       0       0       0       0       0
       0       0       0       0       0       0       0       0       0       0
       0       0       0       0       0       0       0       0       0       0
       0       0       0       0       0       0       0       0       0       0
       0       0       0       0       0       0       0       0       0       0
       0       0       0       0       0       0       0       0       0       0
       0       0       0       0       0       0       0       0       0       0
       0       0       0       0       0       0       0       0       0       0
       0       0       0       0       0       0       0       0       0       0
       0       0       0       0       0       0       0       0       0       0
       0       0       0       0       0       0       0       0       0       0
       0       0       0       0       0       0       0       0       0       0
       0       0       0       0       0       0       0       0       0       0
       0       0       0       0       0       0       0       0       0       0
       0       0       0       0       0       0       0       0       0       0
       0       0       0       0       0       0       0       0       0       0
       0       0       0       0       0       0       0       0       0       0
       0       0       0       0       0       0       0       0       0       0
       0       0       0       0       0       0       0       0       0       0
       0       0       0       0       0       0       0       0       0       0
       0       0       0       0       0       0       0       0       0       0
       0       0       0       0       0       0       0       0       0       0
       0       0       0       0       0       0       0       0       0       0
       0       0       0       0       0       0       0       0       0       0
       0       0       0       0       0       0       0       0       0       0
       0       0       0       0       0       0       0       0       0       0
       0       0       0       0       0       0       0       0       0       0
       0       0       0       0       0       0       0       0       0       0
       0       0       0       0       0       0       0       0       0       0
       0       0       0       0       0       0       0       0       0       0
       0       0       0       0       0       0       0       0       0       0
       0       0       0       0       0       0       0       0       0       0
       0       0       0       0       0       0       0       0       0       0
       0       0       0       0       0       0       0       0       0       0
       0       0       0       0       0       0       0       0       0       0
       0       0       0       0       0       0       0       0       0       0
       0       0       0       0       0       0       0       0       0       0
       0       0       0       0       0       0       0       0       0       0
       0       0       0       0       0       0       0       0       0       0
       0       0       0       0       0       0       0       0       0       0
       0       0       0       0       0       0       0       0       0       0
       0       0       0       0       0       0       0       0       0       0
       0       0       0       0       0       0       0       0       0       0
       0       0       0       0       0       0       0       0       0       0
       0       0       0       0       0       0       0       0       0       0
       0       0       0       0       0       0       0       0       0       0
       0       0       0       0       0       0       0       0       0       0
       0       0       0       0       0       0       0       0       0       0
       0       0       0       0       0       0       0       0       0       0
       0       0       0       0       0       0       0       0       0       0
       0       0       0       0       0       0       0       0       0       0
       0       0       0       0       0       0       0       0       0       0
       0       0       0       0       0       0       0       0       0       0
       0       0       0       0       0       0       0       0       0       0
       0       0       0       0       0       0       0       0       0       0
       0       0       0       0       0       0       0       0       0       0
       0       0       0       0       0       0       0       0       0       0
       0       0       0       0       0       0       0       0       0       0
       0       0       0       0       0       0       0       0       0       0
       0       0       0       0       0       0       0       0       0       0
       0       0       0       0       0       0       0       0       0       0
       0       0       0       0       0       0       0       0       0       0
       0       0       0       0       0       0       0       0       0       0
       0       0       0       0       0       0       0       0       0       0
       0       0       0       0       0       0       0       0       0       0
       0       0       0       0       0       0       0       0       0       0
       0       0       0       0       0       0       0       0       0       0
       0       0       0       0       0       0       0       0       0       0
       0       0       0       0       0       0       0       0       0       0
       0       0       0       0       0       0       0       0       0       0
       0       0       0       0       0       0       0       0       0       0
       0       0       0       0       0       0       0       0       0       0
       0       0       0       0       0       0       0       0       0       0
       0       0       0       0       0       0       0       0       0       0
       0       0       0       0       0       0       0       0       0       0
       0       0       0       0       0       0       0       0       0       0
       0       0       0       0       0       0       0       0       0       0
       0       0       0       0       0       0       0       0       0       0
       0       0       0       0       0       0       0       0       0       0
       0       0       0       0       0       0       0       0       0       0
       0       0       0       0       0       0       0       0       0       0
       0       0       0       0       0       0       0       0       0       0
       0       0       0       0       0       0       0       0       0       0
       0       0       0       0       0       0       0       0       0       0
       0       0       0       0       0       0       0       0       0       0
       0       0       0       0       0       0       0       0       0       0
       0       0       0       0       0       0       0       0       0       0
       0       0       0       0       0       0       0       0       0       0
       0       0       0       0       0       0       0       0       0       0
       0       0       0       0       0       0       0       0       0       0
       0       0       0       0       0       0       0       0       0       0
       0       0       0       0       0       0       0       0       0       0
       0       0       0       0       0       0       0       0       0       0
       0       0       0       0       0       0       0       0       0       0
       0       0       0       0       0       0       0       0       0       0
       0       0       0       0       0       0       0       0       0       0
       0       0       0       0       0       0       0       0       0       0
       0       0       0       0       0       0       0       0       0       0
       0       0       0       0       0       0       0       0       0       0
       0       0       0       0       0       0       0       0       0       0
       0       0       0       0       0       0       0       0       0       0
       0       0       0       0       0       0       0       0       0       0
       0       0       0       0       0       0       0       0       0       0
       0       0       0       0       0       0       0       0       0       0
       0       0       0       0       0       0       0       0       0       0
       0       0       0       0       0       0       0       0       0       0
       0       0       0       0       0       0       0       0       0       0
       0       0       0       0       0       0       0       0       0       0
       0       0       0       0       0       0       0       0       0       0
       0       0       0       0       0       0       0       0       0       0
       0       0       0       0       0       0       0       0       0       0
       0       0       0       0       0       0       0       0       0       0
       0       0       0       0       0       0       0       0       0       0
       0       0       0       0       0       0       0       0       0       0
       0       0       0       0       0       0       0       0       0       0
       0       0       0       0       0       0       0       0       0       0
       0       0       0       0       0       0       0       0       0       0
       0       0       0       0       0       0       0       0       0       0
       0       0       0       0       0       0       0       0       0       0
       0       0       0       0       0       0       0       0       0       0
       0       0       0       0       0       0       0       0       0       0
       0       0       0       0       0       0       0       0       0       0
       0       0       0       0       0       0       0       0       0       0
       0       0       0       0       0       0       0       0       0       0
       0       0       0       0       0       0       0       0       0       0
       0       0       0       0       0       0       0       0       0       0
       0       0       0       0       0       0       0       0       0       0
       0       0       0       0       0       0       0       0       0       0
       0       0       0       0       0       0       0       0       0       0
       0       0       0       0       0       0       0       0       0       0
       0       0       0       0       0       0       0       0       0       0
       0       0       0       0       0       0       0       0       0       0
       0       0       0       0       0       0       0       0       0       0
       0       0       0       0       0       0       0       0       0       0
       0       0       0       0       0       0       0       0       0       0
       0       0       0       0       0       0       0       0       0       0
       0       0       0       0       0       0       0       0       0       0
       0       0       0       0       0       0       0       0       0       0
       0       0       0       0       0       0       0       0       0       0
       0       0       0       0       0       0       0       0       0       0
       0       0       0       0       0       0       0       0       0       0
       0       0       0       0       0       0       0       0       0       0
       0       0       0       0       0       0       0       0       0       0
       0       0       0       0       0       0       0       0       0       0
       0       0       0       0       0       0       0       0       0       0
       0       0       0       0       0       0       0       0       0       0
       0       0       0       0       0       0       0       0       0       0
       0       0       0       0       0       0       0       0       0       0
       0       0       0       0       0       0       0       0       0       0
       0       0       0       0       0       0       0       0       0       0
       0       0       0       0       0       0       0       0       0       0
       0       0       0       0       0       0       0       0       0       0
       0       0       0       0       0       0       0       0       0       0
       0       0       0       0       0       0       0       0       0       0
       0       0       0       0       0       0       0       0       0       0
       0       0       0       0       0       0       0       0       0       0
       0       0       0       0       0       0       0       0       0       0
       0       0       0       0       0       0       0       0       0       0
       0       0       0       0       0       0       0       0       0       0
       0       0       0       0       0       0       0       0       0       0
       0       0       0       0       0       0       0       0       0       0
       0       0       0       0       0       0       0       0       0       0
       0       0       0       0       0       0       0       0       0       0
       0       0       0       0       0       0       0       0       0       0
       0       0       0       0       0       0       0       0       0       0
       0       0       0       0       0       0       0       0       0       0
       0       0       0       0       0       0       0       0       0       0
       0       0       0       0       0       0       0       0       0       0
       0       0       0       0       0       0       0       0       0       0
       0       0       0       0       0       0       0       0       0       0
       0       0       0       0       0       0       0       0       0       0
       0       0       0       0       0       0       0       0       0       0
       0       0       0       0       0       0       0       0       0       0
       0       0       0       0       0       0       0       0       0       0
       0       0       0       0       0       0       0       0       0       0
       0       0       0       0       0       0       0       0       0       0
       0       0       0       0       0       0       0       0       0       0
       0       0       0       0       0       0       0       0       0       0
       0       0       0       0       0       0       0       0       0       0
       0       0       0       0       0       0       0       0       0       0
       0       0       0       0       0       0       0       0       0       0
       0       0       0       0       0       0       0       0       0       0
       0       0       0       0       0       0       0       0       0       0
       0       0       0       0       0       0       0       0       0       0
       0       0       0       0       0       0       0       0       0       0
       0       0       0       0       0       0       0       0       0       0
       0       0       0       0       0       0       0       0       0       0
       0       0       0       0       0       0       0       0       0       0
       0       0       0       0       0       0       0       0       0       0
       0       0       0       0       0       0       0       0       0       0
       0       0       0       0       0       0       0       0       0       0
       0       0       0       0       0       0       0       0       0       0
       0       0       0       0       0       0       0       0       0       0
       0       0       0       0       0       0       0       0       0       0
       0       0       0       0       0       0       0       0       0       0
       0       0       0       0       0       0       0       0       0       0
       0       0       0       0       0       0       0       0       0       0
       0       0       0       0       0       0       0       0       0       0
       0       0       0       0       0       0       0       0       0       0
       0       0       0       0       0       0       0       0       0       0
       0       0       0       0       0       0       0       0       0       0
       0       0       0       0       0       0       0       0       0       0
       0       0       0       0       0       0       0       0       0       0
       0       0       0       0       0       0       0       0       0       0
       0       0       0       0       0       0       0       0       0       0
       0       0       0       0       0       0       0       0       0       0
       0       0       0       0       0       0       0       0       0       0
       0       0       0       0       0       0       0       0       0       0
       0       0       0       0       0       0       0       0       0       0
       0       0       0       0       0       0       0       0       0       0
       0       0       0       0       0       0       0       0       0       0
       0       0       0       0       0       0       0       0       0       0
       0       0       0       0       0       0       0       0       0       0
       0       0       0       0       0       0       0       0       0       0
       0       0       0       0       0       0       0       0       0       0
       0       0       0       0       0       0       0       0       0       0
       0       0       0       0       0       0       0       0       0       0
       0       0       0       0       0       0       0       0       0       0
       0       0       0       0       0       0       0       0       0       0
       0       0       0       0       0       0       0       0       0       0
       0       0       0       0       0       0       0       0       0       0
       0       0       0       0       0       0       0       0       0       0
       0       0       0       0       0       0       0       0       0       0
       0       0       0       0       0       0       0       0       0       0
       0       0       0       0       0       0       0       0       0       0
       0       0       0       0       0       0       0       0       0       0
       0       0       0       0       0       0       0       0       0       0
       0       0       0       0       0       0       0       0       0       0
       0       0       0       0       0       0       0       0       0       0
       0       0       0       0       0       0       0       0       0       0
       0       0       0       0       0       0       0       0       0       0
       0       0       0       0       0       0       0       0       0       0
       0       0       0       0       0       0       0       0       0       0
       0       0       0       0       0       0       0       0       0       0
       0       0       0       0       0       0       0       0       0       0
       0       0       0       0       0       0       0       0       0       0
       0       0       0       0       0       0       0       0       0       0
       0       0       0       0       0       0       0       0       0       0
       0       0       0       0       0       0       0       0       0       0
       0       0       0       0       0       0       0       0       0       0
       0       0       0       0       0       0       0       0       0       0
       0       0       0       0       0       0       0       0       0       0
       0       0       0       0       0       0       0       0       0       0
       0       0       0       0       0       0       0       0       0       0
       0       0       0       0       0       0       0       0       0       0
       0       0       0       0       0       0       0       0       0       0
       0       0       0       0       0       0       0       0       0       0
       0       0       0       0       0       0       0       0       0       0
       0       0       0       0       0       0       0       0       0       0
       0       0       0       0       0       0       0       0       0       0
       0       0       0       0       0       0       0       0       0       0
       0       0       0       0       0       0       0       0       0       0
       0       0       0       0       0       0       0       0       0       0
       0       0       0       0       0       0       0       0       0       0
       0       0       0       0       0       0       0       0       0       0
       0       0       0       0       0       0       0       0       0       0
       0       0       0       0       0       0       0       0       0       0
       0       0       0       0       0       0       0       0       0       0
       0       0       0       0       0       0       0       0       0       0
       0       0       0       0       0       0       0       0       0       0
       0       0       0       0       0       0       0       0       0       0
       0       0       0       0       0       0       0       0       0       0
       0       0       0       0       0       0       0       0       0       0
       0       0       0       0       0       0       0       0       0       0
       0       0       0       0       0       0       0       0       0       0
       0       0       0       0       0       0       0       0       0       0
       0       0       0       0       0       0       0       0       0       0
       0       0       0       0       0       0       0       0       0       0
       0       0       0       0       0       0       0       0       0       0
       0       0       0       0       0       0       0       0       0       0
       0       0       0       0       0       0       0       0       0       0
       0       0       0       0       0       0       0       0       0       0
       0       0       0       0       0       0       0       0       0       0
       0       0       0       0       0       0       0       0       0       0
       0       0       0       0       0       0       0       0       0       0
       0       0       0       0       0       0       0       0       0       0
       0       0       0       0       0       0       0       0       0       0
       0       0       0       0       0       0       0       0       0       0
       0       0       0       0       0       0       0       0       0       0
       0       0       0       0       0       0       0       0       0       0
       0       0       0       0       0       0       0       0       0       0
       0       0       0       0       0       0       0       0       0       0
       0       0       0       0       0       0       0       0       0       0
       0       0       0       0       0       0       0       0       0       0
       0       0       0       0       0       0       0       0       0       0
       0       0       0       0       0       0       0       0       0       0
       0       0       0       0       0       0       0       0       0       0
       0       0       0       0       0       0       0       0       0       0
       0       0       0       0       0       0       0       0       0       0
       0       0       0       0       0       0       0       0       0       0
       0       0       0       0       0       0       0       0       0       0
       0       0       0       0       0       0       0       0       0       0
       0       0       0       0       0       0       0       0       0       0
       0       0       0       0       0       0       0       0       0       0
       0       0       0       0       0       0       0       0       0       0
       0       0       0       0       0       0       0       0       0       0
       0       0       0       0       0       0       0       0       0       0
       0       0       0       0       0       0       0       0       0       0
       0       0       0       0       0       0       0       0       0       0
       0       0       0       0       0       0       0       0       0       0
       0       0       0       0       0       0       0       0       0       0
       0       0       0       0       0       0       0       0       0       0
       0       0       0       0       0       0       0       0       0       0
       0       0       0       0       0       0       0       0       0       0
       0       0       0       0       0       0       0       0       0       0
       0       0       0       0       0       0       0       0       0       0
       0       0       0       0       0       0       0       0       0       0
       0       0       0       0       0       0       0       0       0       0
       0       0       0       0       0       0       0       0       0       0
       0       0       0       0       0       0       0       0       0       0
       0       0       0       0       0       0       0       0       0       0
       0       0       0       0       0       0       0       0       0       0
       0       0       0       0       0       0       0       0       0       0
       0       0       0       0       0       0       0       0       0       0
       0       0       0       0       0       0       0       0       0       0
       0       0       0       0       0       0       0       0       0       0
       0       0       0       0       0       0       0       0       0       0
       0       0       0       0       0       0       0       0       0       0
       0       0       0       0       0       0       0       0       0       0
       0       0       0       0       0       0       0       0       0       0
       0       0       0       0       0       0       0       0       0       0
       0       0       0       0       0       0       0       0       0       0
       0       0       0       0       0       0       0       0       0       0
       0       0       0       0       0       0       0       0       0       0
       0       0       0       0       0       0       0       0       0       0
       0       0       0       0       0       0       0       0       0       0
       0       0       0       0       0       0       0       0       0       0
       0       0       0       0       0       0       0       0       0       0
       0       0       0       0       0       0       0       0       0       0
       0       0       0       0       0       0       0       0       0       0
       0       0       0       0       0       0       0       0       0       0
       0       0       0       0       0       0       0       0       0       0
       0       0       0       0       0       0       0       0       0       0
       0       0       0       0       0       0       0       0       0       0
       0       0       0       0       0       0       0       0       0       0
       0       0       0       0       0       0       0       0       0       0
       0       0       0       0       0       0       0       0       0       0
       0       0       0       0       0       0       0       0       0       0
       0       0       0       0       0       0       0       0       0       0
       0       0       0       0       0       0       0       0       0       0
       0       0       0       0       0       0       0       0       0       0
       0       0       0       0       0       0       0       0       0       0
       0       0       0       0       0       0       0       0       0       0
       0       0       0       0       0       0       0       0       0       0
       0       0       0       0       0       0       0       0       0       0
       0       0       0       0       0       0       0       0       0       0
       0       0       0       0       0       0       0       0       0       0
       0       0       0       0       0       0       0       0       0       0
       0       0       0       0       0       0       0       0       0       0
       0       0       0       0       0       0       0       0       0       0
       0       0       0       0       0       0       0       0       0       0
       0       0       0       0       0       0       0       0       0       0
       0       0       0       0       0       0       0       0       0       0
       0       0       0       0       0       0       0       0       0       0
       0       0       0       0       0       0       0       0       0       0
       0       0       0       0       0       0       0       0       0       0
       0       0       0       0       0       0       0       0       0       0
       0       0       0       0       0       0       0       0       0       0
       0       0       0       0       0       0       0       0       0       0
       0       0       0       0       0       0       0       0       0       0
       0       0       0       0       0       0       0       0       0       0
       0       0       0       0       0       0       0       0       0       0
       0       0       0       0       0       0       0       0       0       0
       0       0       0       0       0       0       0       0       0       0
       0       0       0       0       0       0       0       0       0       0
       0       0       0       0       0       0       0       0       0       0
       0       0       0       0       0       0       0       0       0       0
       0       0       0       0       0       0       0       0       0       0
       0       0       0       0       0       0       0       0       0       0
       0       0       0       0       0       0       0       0       0       0
       0       0       0       0       0       0       0       0       0       0
       0       0       0       0       0       0       0       0       0       0
       0       0       0       0       0       0       0       0       0       0
       0       0       0       0       0       0       0       0       0       0
       0       0       0       0       0       0       0       0       0       0
       0       0       0       0       0       0       0       0       0       0
       0       0       0       0       0       0       0       0       0       0
       0       0       0       0       0       0       0       0       0       0
       0       0       0       0       0       0       0       0       0       0
       0       0       0       0       0       0       0       0       0       0
       0       0       0       0       0       0       0       0       0       0
       0       0       0       0       0       0       0       0       0       0
       0       0       0       0       0       0       0       0       0       0
       0       0       0       0       0       0       0       0       0       0
       0       0       0       0       0       0       0       0       0       0
       0       0       0       0       0       0       0       0       0       0
       0       0       0       0       0       0       0       0       0       0
       0       0       0       0       0       0       0       0       0       0
       0       0       0       0       0       0       0       0       0       0
       0       0       0       0       0       0       0       0       0       0
       0       0       0       0       0       0       0       0       0       0
       0       0       0       0       0       0       0       0       0       0
       0       0       0       0       0       0       0       0       0       0
       0       0       0       0       0       0       0       0       0       0
       0       0       0       0       0       0       0       0       0       0
       0       0       0       0       0       0       0       0       0       0
       0       0       0       0       0       0       0       0       0       0
       0       0       0       0       0       0       0       0       0       0
       0       0       0       0       0       0       0       0       0       0
       0       0       0       0       0       0       0       0       0       0
       0       0       0       0       0       0       0       0       0       0
       0       0       0       0       0       0       0       0       0       0
       0       0       0       0       0       0       0       0       0       0
       0       0       0       0       0       0       0       0       0       0
       0       0       0       0       0       0       0       0       0       0
       0       0       0       0       0       0       0       0       0       0
       0       0       0       0       0       0       0       0       0       0
       0       0       0       0       0       0       0       0       0       0
       0       0       0       0       0       0       0       0       0       0
       0       0       0       0       0       0       0       0       0       0
       0       0       0       0       0       0       0       0       0       0
       0       0       0       0       0       0       0       0       0       0
       0       0       0       0       0       0       0       0       0       0
       0       0       0       0       0       0       0       0       0       0
       0       0       0       0       0       0       0       0       0       0
       0       0       0       0       0       0       0       0       0       0
       0       0       0       0       0       0       0       0       0       0
       0       0       0       0       0       0       0       0       0       0
       0       0       0       0       0       0       0       0       0       0
       0       0       0       0       0       0       0       0       0       0
       0       0       0       0       0       0       0       0       0       0
       0       0       0       0       0       0       0       0       0       0
       0       0       0       0       0       0       0       0       0       0
       0       0       0       0       0       0       0       0       0       0
       0       0       0       0       0       0       0       0       0       0
       0       0       0       0       0       0       0       0       0       0
       0       0       0       0       0       0       0       0       0       0
       0       0       0       0       0       0       0       0       0       0
       0       0       0       0       0       0       0       0       0       0
       0       0       0       0       0       0       0       0       0       0
       0       0       0       0       0       0       0       0       0       0
       0       0       0       0       0       0       0       0       0       0
       0       0       0       0       0       0       0       0       0       0
       0       0       0       0       0       0       0       0       0       0
       0       0       0       0       0       0       0       0       0       0
       0       0       0       0       0       0       0       0       0       0
       0       0       0       0       0       0       0       0       0       0
       0       0       0       0       0       0       0       0       0       0
       0       0       0       0       0       0       0       0       0       0
       0       0       0       0       0       0       0       0       0       0
       0       0       0       0       0       0       0       0       0       0
       0       0       0       0       0       0       0       0       0       0
       0       0       0       0       0       0       0       0       0       0
       0       0       0       0       0       0       0       0       0       0
       0       0       0       0       0       0       0       0       0       0
       0       0       0       0       0       0       0       0       0       0
       0       0       0       0       0       0       0       0       0       0
       0       0       0       0       0       0       0       0       0       0
       0       0       0       0       0       0       0       0       0       0
       0       0       0       0       0       0       0       0       0       0
       0       0       0       0       0       0       0       0       0       0
       0       0       0       0       0       0       0       0       0       0
       0       0       0       0       0       0       0       0       0       0
       0       0       0       0       0       0       0       0       0       0
       0       0       0       0       0       0       0       0       0       0
       0       0       0       0       0       0       0       0       0       0
       0       0       0       0       0       0       0       0       0       0
       0       0       0       0       0       0       0       0       0       0
       0       0       0       0       0       0       0       0       0       0
       0       0       0       0       0       0       0       0       0       0
       0       0       0       0       0       0       0       0       0       0
       0       0       0       0       0       0       0       0       0       0
       0       0       0       0       0       0       0       0       0       0
       0       0       0       0       0       0       0       0       0       0
       0       0       0       0       0       0       0       0       0       0
       0       0       0       0       0       0       0       0       0       0
       0       0       0       0       0       0       0       0       0       0
       0       0       0       0       0       0       0       0       0       0
       0       0       0       0       0       0       0       0       0       0
       0       0       0       0       0       0       0       0       0       0
       0       0       0       0       0       0       0       0       0       0
       0       0       0       0       0       0       0       0       0       0
       0       0       0       0       0       0       0       0       0       0
       0       0       0       0       0       0       0       0       0       0
       0       0       0       0       0       0       0       0       0       0
       0       0       0       0       0       0       0       0       0       0
       0       0       0       0       0       0       0       0       0       0
       0       0       0       0       0       0       0       0       0       0
       0       0       0       0       0       0       0       0       0       0
       0       0       0       0       0       0       0       0       0       0
       0       0       0       0       0       0       0       0       0       0
       0       0       0       0       0       0       0       0       0       0
       0       0       0       0       0       0       0       0       0       0
       0       0       0       0       0       0       0       0       0       0
       0       0       0       0       0       0       0       0       0       0
       0       0       0       0       0       0       0       0       0       0
       0       0       0       0       0       0       0       0       0       0
       0       0       0       0       0       0       0       0       0       0
       0       0       0       0       0       0       0       0       0       0
       0       0       0       0       0       0       0       0       0       0
       0       0       0       0       0       0       0       0       0       0
       0       0       0       0       0       0       0       0       0       0
       0       0       0       0       0       0       0       0       0       0
       0       0       0       0       0       0       0       0       0       0
       0       0       0       0       0       0       0       0       0       0
       0       0       0       0       0       0       0       0       0       0
       0       0       0       0       0       0       0       0       0       0
       0       0       0       0       0       0       0       0       0       0
       0       0       0       0       0       0       0       0       0       0
       0       0       0       0       0       0       0       0       0       0
       0       0       0       0       0       0       0       0       0       0
       0       0       0       0       0       0       0       0       0       0
       0       0       0       0       0       0       0       0       0       0
       0       0       0       0       0       0       0       0       0       0
       0       0       0       0       0       0       0       0       0       0
       0       0       0       0       0       0       0       0       0       0
       0       0       0       0       0       0       0       0       0       0
       0       0       0       0       0       0       0       0       0       0
       0       0       0       0       0       0       0       0       0       0
       0       0       0       0       0       0       0       0       0       0
       0       0       0       0       0       0       0       0       0       0
       0       0       0       0       0       0       0       0       0       0
       0       0       0       0       0       0       0       0       0       0
       0       0       0       0       0       0       0       0       0       0
       0       0       0       0       0       0       0       0       0       0
       0       0       0       0       0       0       0       0       0       0
       0       0       0       0       0       0       0       0       0       0
       0       0       0       0       0       0       0       0       0       0
       0       0       0       0       0       0       0       0       0       0
       0       0       0       0       0       0       0       0       0       0
       0       0       0       0       0       0       0       0       0       0
       0       0       0       0       0       0       0       0       0       0
       0       0       0       0       0       0       0       0       0       0
       0       0       0       0       0       0       0       0       0       0
       0       0       0       0       0       0       0       0       0       0
       0       0       0       0       0       0       0       0       0       0
       0       0       0       0       0       0       0       0       0       0
       0       0       0       0       0       0       0       0       0       0
       0       0       0       0       0       0       0       0       0       0
       0       0       0       0       0       0       0       0       0       0
       0       0       0       0       0       0       0       0       0       0
       0       0       0       0       0       0       0       0       0       0
       0       0       0       0       0       0       0       0       0       0
       0       0       0       0       0       0       0       0       0       0
       0       0       0       0       0       0       0       0       0       0
       0       0       0       0       0       0       0       0       0       0
       0       0       0       0       0       0       0       0       0       0
       0       0       0       0       0       0       0       0       0       0
       0       0       0       0       0       0       0       0       0       0
       0       0       0       0       0       0       0       0       0       0
       0       0       0       0       0       0       0       0       0       0
       0       0       0       0       0       0       0       0       0       0
       0       0       0       0       0       0       0       0       0       0
       0       0       0       0       0       0       0       0       0       0
       0       0       0       0       0       0       0       0       0       0
       0       0       0       0       0       0       0       0       0       0
       0       0       0       0       0       0       0       0       0       0
       0       0       0       0       0       0       0       0       0       0
       0       0       0       0       0       0       0       0       0       0
       0       0       0       0       0       0       0       0       0       0
       0       0       0       0       0       0       0       0       0       0
       0       0       0       0       0       0       0       0       0       0
       0       0       0       0       0       0       0       0       0       0
       0       0       0       0       0       0       0       0       0       0
       0       0       0       0       0       0       0       0       0       0
       0       0       0       0       0       0       0       0       0       0
       0       0       0       0       0       0       0       0       0       0
       0       0       0       0       0       0       0       0       0       0
       0       0       0       0       0       0       0       0       0       0
       0       0       0       0       0       0       0       0       0       0
       0       0       0       0       0       0       0       0       0       0
       0       0       0       0       0       0       0       0       0       0
       0       0       0       0       0       0       0       0       0       0
       0       0       0       0       0       0       0       0       0       0
       0       0       0       0       0       0       0       0       0       0
       0       0       0       0       0       0       0       0       0       0
       0       0       0       0       0       0       0       0       0       0
       0       0       0       0       0       0       0       0       0       0
       0       0       0       0       0       0       0       0       0       0
       0       0       0       0       0       0       0       0       0       0
       0       0       0       0       0       0       0       0       0       0
       0       0       0       0       0       0       0       0       0       0
       0       0       0       0       0       0       0       0       0       0
       0       0       0       0       0       0       0       0       0       0
       0       0       0       0       0       0       0       0       0       0
       0       0       0       0       0       0       0       0       0       0
       0       0       0       0       0       0       0       0       0       0
       0       0       0       0       0       0       0       0       0       0
       0       0       0       0       0       0       0       0       0       0
       0       0       0       0       0       0       0       0       0       0
       0       0       0       0       0       0       0       0       0       0
       0       0       0       0       0       0       0       0       0       0
       0       0       0       0       0       0       0       0       0       0
       0       0       0       0       0       0       0       0       0       0
       0       0       0       0       0       0       0       0       0       0
       0       0       0       0       0       0       0       0       0       0
       0       0       0       0       0       0       0       0       0       0
       0       0       0       0       0       0       0       0       0       0
       0       0       0       0       0       0       0       0       0       0
       0       0       0       0       0       0       0       0       0       0
       0       0       0       0       0       0       0       0       0       0
       0       0       0       0       0       0       0       0       0       0
       0       0       0       0       0       0       0       0       0       0
       0       0       0       0       0       0       0       0       0       0
       0       0       0       0       0       0       0       0       0       0
       0       0       0       0       0       0       0       0       0       0
       0       0       0       0       0       0       0       0       0       0
       0       0       0       0       0       0       0       0       0       0
       0       0       0       0       0       0       0       0       0       0
       0       0       0       0       0       0       0       0       0       0
       0       0       0       0       0       0       0       0       0       0
       0       0       0       0       0       0       0       0       0       0
       0       0       0       0       0       0       0       0       0       0
       0       0       0       0       0       0       0       0       0       0
       0       0       0       0       0       0       0       0       0       0
       0       0       0       0       0       0       0       0       0       0
       0       0       0       0       0       0       0       0       0       0
       0       0       0       0       0       0       0       0       0       0
       0       0       0       0       0       0       0       0       0       0
       0       0       0       0       0       0       0       0       0       0
       0       0       0       0       0       0       0       0       0       0
       0       0       0       0       0       0       0       0       0       0
       0       0       0       0       0       0       0       0       0       0
       0       0       0       0       0       0       0       0       0       0
       0       0       0       0       0       0       0       0       0       0
       0       0       0       0       0       0       0       0       0       0
       0       0       0       0       0       0       0       0       0       0
       0       0       0       0       0       0       0       0       0       0
       0       0       0       0       0       0       0       0       0       0
       0       0       0       0       0       0       0       0       0       0
       0       0       0       0       0       0       0       0       0       0
       0       0       0       0       0       0       0       0       0       0
       0       0       0       0       0       0       0       0       0       0
       0       0       0       0       0       0       0       0       0       0
       0       0       0       0       0       0       0       0       0       0
       0       0       0       0       0       0       0       0       0       0
       0       0       0       0       0       0       0       0       0       0
       0       0       0       0       0       0       0       0       0       0
       0       0       0       0       0       0       0       0       0       0
       0       0       0       0       0       0       0       0       0       0
       0       0       0       0       0       0       0       0       0       0
       0       0       0       0       0       0       0       0       0       0
       0       0       0       0       0       0       0       0       0       0
       0       0       0       0       0       0       0       0       0       0
       0       0       0       0       0       0       0       0       0       0
       0       0       0       0       0       0       0       0       0       0
       0       0       0       0       0       0       0       0       0       0
       0       0       0       0       0       0       0       0       0       0
       0       0       0       0       0       0       0       0       0       0
       0       0       0       0       0       0       0       0       0       0
       0       0       0       0       0       0       0       0       0       0
       0       0       0       0       0       0       0       0       0       0
       0       0       0       0       0       0       0       0       0       0
       0       0       0       0       0       0       0       0       0       0
       0       0       0       0       0       0       0       0       0       0
       0       0       0       0       0       0       0       0       0       0
       0       0       0       0       0       0       0       0       0       0
       0       0       0       0       0       0       0       0       0       0
       0       0       0       0       0       0       0       0       0       0
       0       0       0       0       0       0       0       0       0       0
       0       0       0       0       0       0       0       0       0       0
       0       0       0       0       0       0       0       0       0       0
       0       0       0       0       0       0       0       0       0       0
       0       0       0       0       0       0       0       0       0       0
       0       0       0       0       0       0       0       0       0       0
       0       0       0       0       0       0       0       0       0       0
       0       0       0       0       0       0       0       0       0       0
       0       0       0       0       0       0       0       0       0       0
       0       0       0       0       0       0       0       0       0       0
       0       0       0       0       0       0       0       0       0       0
       0       0       0       0       0       0       0       0       0       0
       0       0       0       0       0       0       0       0       0       0
       0       0       0       0       0       0       0       0       0       0
       0       0       0       0       0       0       0       0       0       0
       0       0       0       0       0       0       0       0       0       0
       0       0       0       0       0       0       0       0       0       0
       0       0       0       0       0       0       0       0       0       0
       0       0       0       0       0       0       0       0       0       0
       0       0       0       0       0       0       0       0       0       0
       0       0       0       0       0       0       0       0       0       0
       0       0       0       0       0       0       0       0       0       0
       0       0       0       0       0       0       0       0       0       0
       0       0       0       0       0       0       0       0       0       0
       0       0       0       0       0       0       0       0       0       0
       0       0       0       0       0       0       0       0       0       0
       0       0       0       0       0       0       0       0       0       0
       0       0       0       0       0       0       0       0       0       0
       0       0       0       0       0       0       0       0       0       0
       0       0       0       0       0       0       0       0       0       0
       0       0       0       0       0       0       0       0       0       0
       0       0       0       0       0       0       0       0       0       0
       0       0       0       0       0       0       0       0       0       0
       0       0       0       0       0       0       0       0       0       0
       0       0       0       0       0       0       0       0       0       0
       0       0       0       0       0       0       0       0       0       0
       0       0       0       0       0       0       0       0       0       0
       0       0       0       0       0       0       0       0       0       0
       0       0       0       0       0       0       0       0       0       0
       0       0       0       0       0       0       0       0       0       0
       0       0       0       0       0       0       0       0       0       0
       0       0       0       0       0       0       0       0       0       0
       0       0       0       0       0       0       0       0       0       0
       0       0       0       0       0       0       0       0       0       0
       0       0       0       0       0       0       0       0       0       0
       0       0       0       0       0       0       0       0       0       0
       0       0       0       0       0       0       0       0       0       0
       0       0       0       0       0       0       0       0       0       0
       0       0       0       0       0       0       0       0       0       0
       0       0       0       0       0       0       0       0       0       0
       0       0       0       0       0       0       0       0       0       0
       0       0       0       0       0       0       0       0       0       0
       0       0       0       0       0       0       0       0       0       0
       0       0       0       0       0       0       0       0       0       0
       0       0       0       0       0       0       0       0       0       0
       0       0       0       0       0       0       0       0       0       0
       0       0       0       0       0       0       0       0       0       0
       0       0       0       0       0       0       0       0       0       0
       0       0       0       0       0       0       0       0       0       0
       0       0       0       0       0       0       0       0       0       0
       0       0       0       0       0       0       0       0       0       0
       0       0       0       0       0       0       0       0       0       0
       0       0       0       0       0       0       0       0       0       0
       0       0       0       0       0       0       0       0       0       0
       0       0       0       0       0       0       0       0       0       0
       0       0       0       0       0       0       0       0       0       0
       0       0       0       0       0       0       0       0       0       0
       0       0       0       0       0       0       0       0       0       0
       0       0       0       0       0       0       0       0       0       0
       0       0       0       0       0       0       0       0       0       0
       0       0       0       0       0       0       0       0       0       0
       0       0       0       0       0       0       0       0       0       0
       0       0       0       0       0       0       0       0       0       0
       0       0       0       0       0       0       0       0       0       0
       0       0       0       0       0       0       0       0       0       0
       0       0       0       0       0       0       0       0       0       0
       0       0       0       0       0       0       0       0       0       0
       0       0       0       0       0       0       0       0       0       0
       0       0       0       0       0       0       0       0       0       0
       0       0       0       0       0       0       0       0       0       0
       0       0       0       0       0       0       0       0       0       0
       0       0       0       0       0       0       0       0       0       0
       0       0       0       0       0       0       0       0       0       0
       0       0       0       0       0       0       0       0       0       0
       0       0       0       0       0       0       0       0       0       0
       0       0       0       0       0       0       0       0       0       0
       0       0       0       0       0       0       0       0       0       0
       0       0       0       0       0       0       0       0       0       0
       0       0       0       0       0       0       0       0       0       0
       0       0       0       0       0       0       0       0       0       0
       0       0       0       0       0       0       0       0       0       0
       0       0       0       0       0       0       0       0       0       0
       0       0       0       0       0       0       0       0       0       0
       0       0       0       0       0       0       0       0       0       0
       0       0       0       0       0       0       0       0       0       0
       0       0       0       0       0       0       0       0       0       0
       0       0       0       0       0       0       0       0       0       0
       0       0       0       0       0       0       0       0       0       0
       0       0       0       0       0       0       0       0       0       0
       0       0       0       0       0       0       0       0       0       0
       0       0       0       0       0       0       0       0       0       0
       0       0       0       0       0       0       0       0       0       0
       0       0       0       0       0       0       0       0       0       0
       0       0       0       0       0       0       0       0       0       0
       0       0       0       0       0       0       0       0       0       0
       0       0       0       0       0       0       0       0       0       0
       0       0       0       0       0       0       0       0       0       0
       0       0       0       0       0       0       0       0       0       0
       0       0       0       0       0       0       0       0       0       0
       0       0       0       0       0       0       0       0       0       0
       0       0       0       0       0       0       0       0       0       0
       0       0       0       0       0       0       0       0       0       0
       0       0       0       0       0       0       0       0       0       0
       0       0       0       0       0       0       0       0       0       0
       0       0       0       0       0       0       0       0       0       0
       0       0       0       0       0       0       0       0       0       0
       0       0       0       0       0       0       0       0       0       0
       0       0       0       0       0       0       0       0       0       0
       0       0       0       0       0       0       0       0       0       0
       0       0       0       0       0       0       0       0       0       0
       0       0       0       0       0       0       0       0       0       0
       0       0       0       0       0       0       0       0       0       0
       0       0       0       0       0       0       0       0       0       0
       0       0       0       0       0       0       0       0       0       0
       0       0       0       0       0       0       0       0       0       0
       0       0       0       0       0       0       0       0       0       0
       0       0       0       0       0       0       0       0       0       0
       0       0       0       0       0       0       0       0       0       0
       0       0       0       0       0       0       0       0       0       0
       0       0       0       0       0       0       0       0       0       0
       0       0       0       0       0       0       0       0       0       0
       0       0       0       0       0       0       0       0       0       0
       0       0       0       0       0       0       0       0       0       0
       0       0       0       0       0       0       0       0       0       0
       0       0       0       0       0       0       0       0       0       0
       0       0       0       0       0       0       0       0       0       0
       0       0       0       0       0       0       0       0       0       0
       0       0       0       0       0       0       0       0       0       0
       0       0       0       0       0       0       0       0       0       0
       0       0       0       0       0       0       0       0       0       0
       0       0       0       0       0       0       0       0       0       0
       0       0       0       0       0       0       0       0       0       0
       0       0       0       0       0       0       0       0       0       0
       0       0       0       0       0       0       0       0       0       0
       0       0       0       0       0       0       0       0       0       0
       0       0       0       0       0       0       0       0       0       0
       0       0       0       0       0       0       0       0       0       0
       0       0       0       0       0       0       0       0       0       0
       0       0       0       0       0       0       0       0       0       0
       0       0       0       0       0       0       0       0       0       0
       0       0       0       0       0       0       0       0       0       0
       0       0       0       0       0       0       0       0       0       0
       0       0       0       0       0       0       0       0       0       0
       0       0       0       0       0       0       0       0       0       0
       0       0       0       0       0       0       0       0       0       0
       0       0       0       0       0       0       0       0       0       0
       0       0       0       0       0       0       0       0       0       0
       0       0       0       0       0       0       0       0       0       0
       0       0       0       0       0       0       0       0       0       0
       0       0       0       0       0       0       0       0       0       0
       0       0       0       0       0       0       0       0       0       0
       0       0       0       0       0       0       0       0       0       0
       0       0       0       0       0       0       0       0       0       0
       0       0       0       0       0       0       0       0       0       0
       0       0       0       0       0       0       0       0       0       0
       0       0       0       0       0       0       0       0       0       0
       0       0       0       0       0       0       0       0       0       0
       0       0       0       0       0       0       0       0       0       0
       0       0       0       0       0       0       0       0       0       0
       0       0       0       0       0       0       0       0       0       0
       0       0       0       0       0       0       0       0       0       0
       0       0       0       0       0       0       0       0       0       0
       0       0       0       0       0       0       0       0       0       0
       0       0       0       0       0       0       0       0       0       0
       0       0       0       0       0       0       0       0       0       0
       0       0       0       0       0       0       0       0       0       0
       0       0       0       0       0       0       0       0       0       0
       0       0       0       0       0       0       0       0       0       0
       0       0       0       0       0       0       0       0       0       0
       0       0       0       0       0       0       0       0       0       0
       0       0       0       0       0       0       0       0       0       0
       0       0       0       0       0       0       0       0       0       0
       0       0       0       0       0       0       0       0       0       0
       0       0       0       0       0       0       0       0       0       0
       0       0       0       0       0       0       0       0       0       0
       0       0       0       0       0       0       0       0       0       0
       0       0       0       0       0       0       0       0       0       0
       0       0       0       0       0       0       0       0       0       0
       0       0       0       0       0       0       0       0       0       0
       0       0       0       0       0       0       0       0       0       0
       0       0       0       0       0       0       0       0       0       0
       0       0       0       0       0       0       0       0       0       0
       0       0       0       0       0       0       0       0       0       0
       0       0       0       0       0       0       0       0       0       0
       0       0       0       0       0       0       0       0       0       0
       0       0       0       0       0       0       0       0       0       0
       0       0       0       0       0       0       0       0       0       0
       0       0       0       0       0       0       0       0       0       0
       0       0       0       0       0       0       0       0       0       0
       0       0       0       0       0       0       0       0       0       0
       0       0       0       0       0       0       0       0       0       0
       0       0       0       0       0       0       0       0       0       0
       0       0       0       0       0       0       0       0       0       0
       0       0       0       0       0       0       0       0       0       0
       0       0       0       0       0       0       0       0       0       0
       0       0       0       0       0       0       0       0       0       0
       0       0       0       0       0       0       0       0       0       0
       0       0       0       0       0       0       0       0       0       0
       0       0       0       0       0       0       0       0       0       0
       0       0       0       0       0       0       0       0       0       0
       0       0       0       0       0       0       0       0       0       0
       0       0       0       0       0       0       0       0       0       0
       0       0       0       0       0       0       0       0       0       0
       0       0       0       0       0       0       0       0       0       0
       0       0       0       0       0       0       0       0       0       0
       0       0       0       0       0       0       0       0       0       0
       0       0       0       0       0       0       0       0       0       0
       0       0       0       0       0       0       0       0       0       0
       0       0       0       0       0       0       0       0       0       0
       0       0       0       0       0       0       0       0       0       0
       0       0       0       0       0       0       0       0       0       0
       0       0       0       0       0       0       0       0       0       0
       0       0       0       0       0       0       0       0       0       0
       0       0       0       0       0       0       0       0       0       0
       0       0       0       0       0       0       0       0       0       0
       0       0       0       0       0       0       0       0       0       0
       0       0       0       0       0       0       0       0       0       0
       0       0       0       0       0       0       0       0       0       0
       0       0       0       0       0       0       0       0       0       0
       0       0       0       0       0       0       0       0       0       0
       0       0       0       0       0       0       0       0       0       0
       0       0       0       0       0       0       0       0       0       0
       0       0       0       0       0       0       0       0       0       0
       0       0       0       0       0       0       0       0       0       0
       0       0       0       0       0       0       0       0       0       0
       0       0       0       0       0       0       0       0       0       0
       0       0       0       0       0       0       0       0       0       0
       0       0       0       0       0       0       0       0       0       0
       0       0       0       0       0       0       0       0       0       0
       0       0       0       0       0       0       0       0       0       0
       0       0       0       0       0       0       0       0       0       0
       0       0       0       0       0       0       0       0       0       0
       0       0       0       0       0       0       0       0       0       0
       0       0       0       0       0       0       0       0       0       0
       0       0       0       0       0       0       0       0       0       0
       0       0       0       0       0       0       0       0       0       0
       0       0       0       0       0       0       0       0       0       0
       0       0       0       0       0       0       0       0       0       0
       0       0       0       0       0       0       0       0       0       0
       0       0       0       0       0       0       0       0       0       0
       0       0       0       0       0       0       0       0       0       0
       0       0       0       0       0       0       0       0       0       0
       0       0       0       0       0       0       0       0       0       0
       0       0       0       0       0       0       0       0       0       0
       0       0       0       0       0       0       0       0       0       0
       0       0       0       0       0       0       0       0       0       0
       0       0       0       0       0       0       0       0       0       0
       0       0       0       0       0       0       0       0       0       0
       0       0       0       0       0       0       0       0       0       0
       0       0       0       0       0       0       0       0       0       0
       0       0       0       0       0       0       0       0       0       0
       0       0       0       0       0       0       0       0       0       0
       0       0       0       0       0       0       0       0       0       0
       0       0       0       0       0       0       0       0       0       0
       0       0       0       0       0       0       0       0       0       0
       0       0       0       0       0       0       0       0       0       0
       0       0       0       0       0       0       0       0       0       0
       0       0       0       0       0       0       0       0       0       0
       0       0       0       0       0       0       0       0       0       0
       0       0       0       0       0       0       0       0       0       0
       0       0       0       0       0       0       0       0       0       0
       0       0       0       0       0       0       0       0       0       0
       0       0       0       0       0       0       0       0       0       0
       0       0       0       0       0       0       0       0       0       0
       0       0       0       0       0       0       0       0       0       0
       0       0       0       0       0       0       0       0       0       0
       0       0       0       0       0       0       0       0       0       0
       0       0       0       0       0       0       0       0       0       0
       0       0       0       0       0       0       0       0       0       0
       0       0       0       0       0       0       0       0       0       0
       0       0       0       0       0       0       0       0       0       0
       0       0       0       0       0       0       0       0       0       0
       0       0       0       0       0       0       0       0       0       0
       0       0       0       0       0       0       0       0       0       0
       0       0       0       0       0       0       0       0       0       0
       0       0       0       0       0       0       0       0       0       0
       0       0       0       0       0       0       0       0       0       0
       0       0       0       0       0       0       0       0       0       0
       0       0       0       0       0       0       0       0       0       0
       0       0       0       0       0       0       0       0       0       0
       0       0       0       0       0       0       0       0       0       0
       0       0       0       0       0       0       0       0       0       0
       0       0       0       0       0       0       0       0       0       0
       0       0       0       0       0       0       0       0       0       0
       0       0       0       0       0       0       0       0       0       0
       0       0       0       0       0       0       0       0       0       0
       0       0       0       0       0       0       0       0       0       0
       0       0       0       0       0       0       0       0       0       0
       0       0       0       0       0       0       0       0       0       0
       0       0       0       0       0       0       0       0       0       0
       0       0       0       0       0       0       0       0       0       0
       0       0       0       0       0       0       0       0       0       0
       0       0       0       0       0       0       0       0       0       0
       0       0       0       0       0       0       0       0       0       0
       0       0       0       0       0       0       0       0       0       0
       0       0       0       0       0       0       0       0       0       0
       0       0       0       0       0       0       0       0       0       0
       0       0       0       0       0       0       0       0       0       0
       0       0       0       0       0       0       0       0       0       0
       0       0       0       0       0       0       0       0       0       0
       0       0       0       0       0       0       0       0       0       0
       0       0       0       0       0       0       0       0       0       0
       0       0       0       0       0       0       0       0       0       0
       0       0       0       0       0       0       0       0       0       0
       0       0       0       0       0       0       0       0       0       0
       0       0       0       0       0       0       0       0       0       0
       0       0       0       0       0       0       0       0       0       0
       0       0       0       0       0       0       0       0       0       0
       0       0       0       0       0       0       0       0       0       0
       0       0       0       0       0       0       0       0       0       0
       0       0       0       0       0       0       0       0       0       0
       0       0       0       0       0       0       0       0       0       0
       0       0       0       0       0       0       0       0       0       0
       0       0       0       0       0       0       0       0       0       0
       0       0       0       0       0       0       0       0       0       0
       0       0       0       0       0       0       0       0       0       0
       0       0       0       0       0       0       0       0       0       0
       0       0       0       0       0       0       0       0       0       0
       0       0       0       0       0       0       0       0       0       0
       0       0       0       0       0       0       0       0       0       0
       0       0       0       0       0       0       0       0       0       0
       0       0       0       0       0       0       0       0       0       0
       0       0       0       0       0       0       0       0       0       0
       0       0       0       0       0       0       0       0       0       0
       0       0       0       0       0       0       0       0       0       0
       0       0       0       0       0       0       0       0       0       0
       0       0       0       0       0       0       0       0       0       0
       0       0       0       0       0       0       0       0       0       0
       0       0       0       0       0       0       0       0       0       0
       0       0       0       0       0       0       0       0       0       0
       0       0       0       0       0       0       0       0       0       0
       0       0       0       0       0       0       0       0       0       0
       0       0       0       0       0       0       0       0       0       0
       0       0       0       0       0       0       0       0       0       0
       0       0       0       0       0       0       0       0       0       0
       0       0       0       0       0       0       0       0       0       0
       0       0       0       0       0       0       0       0       0       0
       0       0       0       0       0       0       0       0       0       0
       0       0       0       0       0       0       0       0       0       0
       0       0       0       0       0       0       0       0       0       0
       0       0       0       0       0       0       0       0       0       0
       0       0       0       0       0       0       0       0       0       0
       0       0       0       0       0       0       0       0       0       0
       0       0       0       0       0       0       0       0       0       0
       0       0       0       0       0       0       0       0       0       0
       0       0       0       0       0       0       0       0       0       0
       0       0       0       0       0       0       0       0       0       0
       0       0       0       0       0       0       0       0       0       0
       0       0       0       0       0       0       0       0       0       0
       0       0       0       0       0       0       0       0       0       0
       0       0       0       0       0       0       0       0       0       0
       0       0       0       0       0       0       0       0       0       0
       0       0       0       0       0       0       0       0       0       0
       0       0       0       0       0       0       0       0       0       0
       0       0       0       0       0       0       0       0       0       0
       0       0       0       0       0       0       0       0       0       0
       0       0       0       0       0       0       0       0       0       0
       0       0       0       0       0       0       0       0       0       0
       0       0       0       0       0       0       0       0       0       0
       0       0       0       0       0       0       0       0       0       0
       0       0       0       0       0       0       0       0       0       0
       0       0       0       0       0       0       0       0       0       0
       0       0       0       0       0       0       0       0       0       0
       0       0       0       0       0       0       0       0       0       0
       0       0       0       0       0       0       0       0       0       0
       0       0       0       0       0       0       0       0       0       0
       0       0       0       0       0       0       0       0       0       0
       0       0       0       0       0       0       0       0       0       0
       0       0       0       0       0       0       0       0       0       0
       0       0       0       0       0       0       0       0       0       0
       0       0       0       0       0       0       0       0       0       0
       0       0       0       0       0       0       0       0       0       0
       0       0       0       0       0       0       0       0       0       0
       0       0       0       0       0       0       0       0       0       0
       0       0       0       0       0       0       0       0       0       0
       0       0       0       0       0       0       0       0       0       0
       0       0       0       0       0       0       0       0       0       0
       0       0       0       0       0       0       0       0       0       0
       0       0       0       0       0       0       0       0       0       0
       0       0       0       0       0       0       0       0       0       0
       0       0       0       0       0       0       0       0       0       0
       0       0       0       0       0       0       0       0       0       0
       0       0       0       0       0       0       0       0       0       0
       0       0       0       0       0       0       0       0       0       0
       0       0       0       0       0       0       0       0       0       0
       0       0       0       0       0       0       0       0       0       0
       0       0       0       0       0       0       0       0       0       0
       0       0       0       0       0       0       0       0       0       0
       0       0       0       0       0       0       0       0       0       0
       0       0       0       0       0       0       0       0       0       0
       0       0       0       0       0       0       0       0       0       0
       0       0       0       0       0       0       0       0       0       0
       0       0       0       0       0       0       0       0       0       0
       0       0       0       0       0       0       0       0       0       0
       0       0       0       0       0       0       0       0       0       0
       0       0       0       0       0       0       0       0       0       0
       0       0       0       0       0       0       0       0       0       0
       0       0       0       0       0       0       0       0       0       0
       0       0       0       0       0       0       0       0       0       0
       0       0       0       0       0       0       0       0       0       0
       0       0       0       0       0       0       0       0       0       0
       0       0       0       0       0       0       0       0       0       0
       0       0       0       0       0       0       0       0       0       0
       0       0       0       0       0       0       0       0       0       0
       0       0       0       0       0       0       0       0       0       0
       0       0       0       0       0       0       0       0       0       0
       0       0       0       0       0       0       0       0       0       0
       0       0       0       0       0       0       0       0       0       0
       0       0       0       0       0       0       0       0       0       0
       0       0       0       0       0       0       0       0       0       0
       0       0       0       0       0       0       0       0       0       0
       0       0       0       0       0       0       0       0       0       0
       0       0       0       0       0       0       0       0       0       0
       0       0       0       0       0       0       0       0       0       0
       0       0       0       0       0       0       0       0       0       0
       0       0       0       0       0       0       0       0       0       0
       0       0       0       0       0       0       0       0       0       0
       0       0       0       0       0       0       0       0       0       0
       0       0       0       0       0       0       0       0       0       0
       0       0       0       0       0       0       0       0       0       0
       0       0       0       0       0       0       0       0       0       0
       0       0       0       0       0       0       0       0       0       0
       0       0       0       0       0       0       0       0       0       0
       0       0       0       0       0       0       0       0       0       0
       0       0       0       0       0       0       0       0       0       0
       0       0       0       0       0       0       0       0       0       0
       0       0       0       0       0       0       0       0       0       0
       0       0       0       0       0       0       0       0       0       0
       0       0       0       0       0       0       0       0       0       0
       0       0       0       0       0       0       0       0       0       0
       0       0       0       0       0       0       0       0       0       0
       0       0       0       0       0       0       0       0       0       0
       0       0       0       0       0       0       0       0       0       0
       0       0       0       0       0       0       0       0       0       0
       0       0       0       0       0       0       0       0       0       0
       0       0       0       0       0       0       0       0       0       0
       0       0       0       0       0       0       0       0       0       0
       0       0       0       0       0       0       0       0       0       0
       0       0       0       0       0       0       0       0       0       0
       0       0       0       0       0       0       0       0       0       0
       0       0       0       0       0       0       0       0       0       0
       0       0       0       0       0       0       0       0       0       0
       0       0       0       0       0       0       0       0       0       0
       0       0       0       0       0       0       0       0       0       0
       0       0       0       0       0       0       0       0       0       0
       0       0       0       0       0       0       0       0       0       0
       0       0       0       0       0       0       0       0       0       0
       0       0       0       0       0       0       0       0       0       0
       0       0       0       0       0       0       0       0       0       0
       0       0       0       0       0       0       0       0       0       0
       0       0       0       0       0       0       0       0       0       0
       0       0       0       0       0       0       0       0       0       0
       0       0       0       0       0       0       0       0       0       0
       0       0       0       0       0       0       0       0       0       0
       0       0       0       0       0       0       0       0       0       0
       0       0       0       0       0       0       0       0       0       0
       0       0       0       0       0       0       0       0       0       0
       0       0       0       0       0       0       0       0       0       0
       0       0       0       0       0       0       0       0       0       0
       0       0       0       0       0       0       0       0       0       0
       0       0       0       0       0       0       0       0       0       0
       0       0       0       0       0       0       0       0       0       0
       0       0       0       0       0       0       0       0       0       0
       0       0       0       0       0       0       0       0       0       0
       0       0       0       0       0       0       0       0       0       0
       0       0       0       0       0       0       0       0       0       0
       0       0       0       0       0       0       0       0       0       0
       0       0       0       0       0       0       0       0       0       0
       0       0       0       0       0       0       0       0       0       0
       0       0       0       0       0       0       0       0       0       0
       0       0       0       0       0       0       0       0       0       0
       0       0       0       0       0       0       0       0       0       0
       0       0       0       0       0       0       0       0       0       0
       0       0       0       0       0       0       0       0       0       0
       0       0       0       0       0       0       0       0       0       0
       0       0       0       0       0       0       0       0       0       0
       0       0       0       0       0       0       0       0       0       0
       0       0       0       0       0       0       0       0       0       0
       0       0       0       0       0       0       0       0       0       0
       0       0       0       0       0       0       0       0       0       0
       0       0       0       0       0       0       0       0       0       0
       0       0       0       0       0       0       0       0       0       0
       0       0       0       0       0       0       0       0       0       0
       0       0       0       0       0       0       0       0       0       0
       0       0       0       0       0       0       0       0       0       0
       0       0       0       0       0       0       0       0       0       0
       0       0       0       0       0       0       0       0       0       0
       0       0       0       0       0       0       0       0       0       0
       0       0       0       0       0       0       0       0       0       0
       0       0       0       0       0       0       0       0       0       0
       0       0       0       0       0       0       0       0       0       0
       0       0       0       0       0       0       0       0       0       0
       0       0       0       0       0       0       0       0       0       0
       0       0       0       0       0       0       0       0       0       0
       0       0       0       0       0       0       0       0       0       0
       0       0       0       0       0       0       0       0       0       0
       0       0       0       0       0       0       0       0       0       0
       0       0       0       0       0       0       0       0       0       0
       0       0       0       0       0       0       0       0       0       0
       0       0       0       0       0       0       0       0       0       0
       0       0       0       0       0       0       0       0       0       0
       0       0       0       0       0       0       0       0       0       0
       0       0       0       0       0       0       0       0       0       0
       0       0       0       0       0       0       0       0       0       0
       0       0       0       0       0       0       0       0       0       0
       0       0       0       0       0       0       0       0       0       0
       0       0       0       0       0       0       0       0       0       0
       0       0       0       0       0       0       0       0       0       0
       0       0       0       0       0       0       0       0       0       0
       0       0       0       0       0       0       0       0       0       0
       0       0       0       0       0       0       0       0       0       0
       0       0       0       0       0       0       0       0       0       0
       0       0       0       0       0       0       0       0       0       0
       0       0       0       0       0       0       0       0       0       0
       0       0       0       0       0       0       0       0       0       0
       0       0       0       0       0       0       0       0       0       0
       0       0       0       0       0       0       0       0       0       0
       0       0       0       0       0       0       0       0       0       0
       0       0       0       0       0       0       0       0       0       0
       0       0       0       0       0       0       0       0       0       0
       0       0       0       0       0       0       0       0       0       0
       0       0       0       0       0       0       0       0       0       0
       0       0       0       0       0       0       0       0       0       0
       0       0       0       0       0       0       0       0       0       0
       0       0       0       0       0       0       0       0       0       0
       0       0       0       0       0       0       0       0       0       0
       0       0       0       0       0       0       0       0       0       0
       0       0       0       0       0       0       0       0       0       0
       0       0       0       0       0       0       0       0       0       0
       0       0       0       0       0       0       0       0       0       0
       0       0       0       0       0       0       0       0       0       0
       0       0       0       0       0       0       0       0       0       0
       0       0       0       0       0       0       0       0       0       0
       0       0       0       0       0       0       0       0       0       0
       0       0       0       0       0       0       0       0       0       0
       0       0       0       0       0       0       0       0       0       0
       0       0       0       0       0       0       0       0       0       0
       0       0       0       0       0       0       0       0       0       0
       0       0       0       0       0       0       0       0       0       0
       0       0       0       0       0       0       0       0       0       0
       0       0       0       0       0       0       0       0       0       0
       0       0       0       0       0       0       0       0       0       0
       0       0       0       0       0       0       0       0       0       0
       0       0       0       0       0       0       0       0       0       0
       0       0       0       0       0       0       0       0       0       0
       0       0       0       0       0       0       0       0       0       0
       0       0       0       0       0       0       0       0       0       0
       0       0       0       0       0       0       0       0       0       0
       0       0       0       0       0       0       0       0       0       0
       0       0       0       0       0       0       0       0       0       0
       0       0       0       0       0       0       0       0       0       0
       0       0       0       0       0       0       0       0       0       0
       0       0       0       0       0       0       0       0       0       0
       0       0       0       0       0       0       0       0       0       0
       0       0       0       0       0       0       0       0       0       0
       0       0       0       0       0       0       0       0       0       0
       0       0       0       0       0       0       0       0       0       0
       0       0       0       0       0       0       0       0       0       0
       0       0       0       0       0       0       0       0       0       0
       0       0       0       0       0       0       0       0       0       0
       0       0       0       0       0       0       0       0       0       0
       0       0       0       0       0       0       0       0       0       0
       0       0       0       0       0       0       0       0       0       0
       0       0       0       0       0       0       0       0       0       0
       0       0       0       0       0       0       0       0       0       0
       0       0       0       0       0       0       0       0       0       0
       0       0       0       0       0       0       0       0       0       0
       0       0       0       0       0       0       0       0       0       0
       0       0       0       0       0       0       0       0       0       0
       0       0       0       0       0       0       0       0       0       0
       0       0       0       0       0       0       0       0       0       0
       0       0       0       0       0       0       0       0       0       0
       0       0       0       0       0       0       0       0       0       0
       0       0       0       0       0       0       0       0       0       0
       0       0       0       0       0       0       0       0       0       0
       0       0       0       0       0       0       0       0       0       0
       0       0       0       0       0       0       0       0       0       0
       0       0       0       0       0       0       0       0       0       0
       0       0       0       0       0       0       0       0       0       0
       0       0       0       0       0       0       0       0       0       0
       0       0       0       0       0       0       0       0       0       0
       0       0       0       0       0       0       0       0       0       0
       0       0       0       0       0       0       0       0       0       0
       0       0       0       0       0       0       0       0       0       0
       0       0       0       0       0       0       0       0       0       0
       0       0       0       0       0       0       0       0       0       0
       0       0       0       0       0       0       0       0       0       0
       0       0       0       0       0       0       0       0       0       0
       0       0       0       0       0       0       0       0       0       0
       0       0       0       0       0       0       0       0       0       0
       0       0       0       0       0       0       0       0       0       0
       0       0       0       0       0       0       0       0       0       0
       0       0       0       0       0       0       0       0       0       0
       0       0       0       0       0       0       0       0       0       0
       0       0       0       0       0       0       0       0       0       0
       0       0       0       0       0       0       0       0       0       0
       0       0       0       0       0       0       0       0       0       0
       0       0       0       0       0       0       0       0       0       0
       0       0       0       0       0       0       0       0       0       0
       0       0       0       0       0       0       0       0       0       0
       0       0       0       0       0       0       0       0       0       0
       0       0       0       0       0       0       0       0       0       0
       0       0       0       0       0       0       0       0       0       0
       0       0       0       0       0       0       0       0       0       0
       0       0       0       0       0       0       0       0       0       0
       0       0       0       0       0       0       0       0       0       0
       0       0       0       0       0       0       0       0       0       0
       0       0       0       0       0       0       0       0       0       0
       0       0       0       0       0       0       0       0       0       0
       0       0       0       0       0       0       0       0       0       0
       0       0       0       0       0       0       0       0       0       0
       0       0       0       0       0       0       0       0       0       0
       0       0       0       0       0       0       0       0       0       0
       0       0       0       0       0       0       0       0       0       0
       0       0       0       0       0       0       0       0       0       0
       0       0       0       0       0       0       0       0       0       0
       0       0       0       0       0       0       0       0       0       0
       0       0       0       0       0       0       0       0       0       0
       0       0       0       0       0       0       0       0       0       0
       0       0       0       0       0       0       0       0       0       0
       0       0       0       0       0       0       0       0       0       0
       0       0       0       0       0       0       0       0       0       0
       0       0       0       0       0       0       0       0       0       0
       0       0       0       0       0       0       0       0       0       0
       0       0       0       0       0       0       0       0       0       0
       0       0       0       0       0       0       0       0       0       0
       0       0       0       0       0       0       0       0       0       0
       0       0       0       0       0       0       0       0       0       0
       0       0       0       0       0       0       0       0       0       0
       0       0       0       0       0       0       0       0       0       0
       0       0       0       0       0       0       0       0       0       0
       0       0       0       0       0       0       0       0       0       0
       0       0       0       0       0       0       0       0       0       0
       0       0       0       0       0       0       0       0       0       0
       0       0       0       0       0       0       0       0       0       0
       0       0       0       0       0       0       0       0       0       0
       0       0       0       0       0       0       0       0       0       0
       0       0       0       0       0       0       0       0       0       0
       0       0       0       0       0       0       0       0       0       0
       0       0       0       0       0       0       0       0       0       0
       0       0       0       0       0       0       0       0       0       0
       0       0       0       0       0       0       0       0       0       0
       0       0       0       0       0       0       0       0       0       0
       0       0       0       0       0       0       0       0       0       0
       0       0       0       0       0       0       0       0       0       0
       0       0       0       0       0       0       0       0       0       0
       0       0       0       0       0       0       0       0       0       0
       0       0       0       0       0       0       0       0       0       0
       0       0       0       0       0       0       0       0       0       0
       0       0       0       0       0       0       0       0       0       0
       0       0       0       0       0       0       0       0       0       0
       0       0       0       0       0       0       0       0       0       0
       0       0       0       0       0       0       0       0       0       0
       0       0       0       0       0       0       0       0       0       0
       0       0       0       0       0       0       0       0       0       0
       0       0       0       0       0       0       0       0       0       0
       0       0       0       0       0       0       0       0       0       0
       0       0       0       0       0       0       0       0       0       0
       0       0       0       0       0       0       0       0       0       0
       0       0       0       0       0       0       0       0       0       0
       0       0       0       0       0       0       0       0       0       0
       0       0       0       0       0       0       0       0       0       0
       0       0       0       0       0       0       0       0       0       0
       0       0       0       0       0       0       0       0       0       0
       0       0       0       0       0       0       0       0       0       0
       0       0       0       0       0       0       0       0       0       0
       0       0       0       0       0       0       0       0       0       0
       0       0       0       0       0       0       0       0       0       0
       0       0       0       0       0       0       0       0       0       0
       0       0       0       0       0       0       0       0       0       0
       0       0       0       0       0       0       0       0       0       0
       0       0       0       0       0       0       0       0       0       0
       0       0       0       0       0       0       0       0       0       0
       0       0       0       0       0       0       0       0       0       0
       0       0       0       0       0       0       0       0       0       0
       0       0       0       0       0       0       0       0       0       0
       0       0       0       0       0       0       0       0       0       0
       0       0       0       0       0       0       0       0       0       0
       0       0       0       0       0       0       0       0       0       0
       0       0       0       0       0       0       0       0       0       0
       0       0       0       0       0       0       0       0       0       0
       0       0       0       0       0       0       0       0       0       0
       0       0       0       0       0       0       0       0       0       0
       0       0       0       0       0       0       0       0       0       0
       0       0       0       0       0       0       0       0       0       0
       0       0       0       0       0       0       0       0       0       0
       0       0       0       0       0       0       0       0       0       0
       0       0       0       0       0       0       0       0       0       0
       0       0       0       0       0       0       0       0       0       0
       0       0       0       0       0       0       0       0       0       0
       0       0       0       0       0       0       0       0       0       0
       0       0       0       0       0       0       0       0       0       0
       0       0       0       0       0       0       0       0       0       0
       0       0       0       0       0       0       0       0       0       0
       0       0       0       0       0       0       0       0       0       0
       0       0       0       0       0       0       0       0       0       0
       0       0       0       0       0       0       0       0       0       0
       0       0       0       0       0       0       0       0       0       0
       0       0       0       0       0       0       0       0       0       0
       0       0       0       0       0       0       0       0       0       0
       0       0       0       0       0       0       0       0       0       0
       0       0       0       0       0       0       0       0       0       0
       0       0       0       0       0       0       0       0       0       0
       0       0       0       0       0       0       0       0       0       0
       0       0       0       0       0       0       0       0       0       0
       0       0       0       0       0       0       0       0       0       0
       0       0       0       0       0       0       0       0       0       0
       0       0       0       0       0       0       0       0       0       0
       0       0       0       0       0       0       0       0       0       0
       0       0       0       0       0       0       0       0       0       0
       0       0       0       0       0       0       0       0       0       0
       0       0       0       0       0       0       0       0       0       0
       0       0       0       0       0       0       0       0       0       0
       0       0       0       0       0       0       0       0       0       0
       0       0       0       0       0       0       0       0       0       0
       0       0       0       0       0       0       0       0       0       0
       0       0       0       0       0       0       0       0       0       0
       0       0       0       0       0       0       0       0       0       0
       0       0       0       0       0       0       0       0       0       0
       0       0       0       0       0       0       0       0       0       0
       0       0       0       0       0       0       0       0       0       0
       0       0       0       0       0       0       0       0       0       0
       0       0       0       0       0       0       0       0       0       0
       0       0       0       0       0       0       0       0       0       0
       0       0       0       0       0       0       0       0       0       0
       0       0       0       0       0       0       0       0       0       0
       0       0       0       0       0       0       0       0       0       0
       0       0       0       0       0       0       0       0       0       0
       0       0       0       0       0       0       0       0       0       0
       0       0       0       0       0       0       0       0       0       0
       0       0       0       0       0       0       0       0       0       0
       0       0       0       0       0       0       0       0       0       0
       0       0       0       0       0       0       0       0       0       0
       0       0       0       0       0       0       0       0       0       0
       0       0       0       0       0       0       0       0       0       0
       0       0       0       0       0       0       0       0       0       0
       0       0       0       0       0       0       0       0       0       0
       0       0       0       0       0       0       0       0       0       0
       0       0       0       0       0       0       0       0       0       0
       0       0       0       0       0       0       0       0       0       0
       0       0       0       0       0       0       0       0       0       0
       0       0       0       0       0       0       0       0       0       0
       0       0       0       0       0       0       0       0       0       0
       0       0       0       0       0       0       0       0       0       0
       0       0       0       0       0       0       0       0       0       0
       0       0       0       0       0       0       0       0       0       0
       0       0       0       0       0       0       0       0       0       0
       0       0       0       0       0       0       0       0       0       0
       0       0       0       0       0       0       0       0       0       0
       0       0       0       0       0       0       0       0       0       0
       0       0       0       0       0       0       0       0       0       0
       0       0       0       0       0       0       0       0       0       0
       0       0       0       0       0       0       0       0       0       0
       0       0       0       0       0       0       0       0       0       0
       0       0       0       0       0       0       0       0       0       0
       0       0       0       0       0       0       0       0       0       0
       0       0       0       0       0       0       0       0       0       0
       0       0       0       0       0       0       0       0       0       0
       0       0       0       0       0       0       0       0       0       0
       0       0       0       0       0       0       0       0       0       0
       0       0       0       0       0       0       0       0       0       0
       0       0       0       0       0       0       0       0       0       0
       0       0       0       0       0       0       0       0       0       0
       0       0       0       0       0       0       0       0       0       0
       0       0       0       0       0       0       0       0       0       0
       0       0       0       0       0       0       0       0       0       0
       0       0       0       0       0       0       0       0       0       0
       0       0       0       0       0       0       0       0       0       0
       0       0       0       0       0       0       0       0       0       0
       0       0       0       0       0       0       0       0       0       0
       0       0       0       0       0       0       0       0       0       0
       0       0       0       0       0       0       0       0       0       0
       0       0       0       0       0       0       0       0       0       0
       0       0       0       0       0       0       0       0       0       0
       0       0       0       0       0       0       0       0       0       0
       0       0       0       0       0       0       0       0       0       0
       0       0       0       0       0       0       0       0       0       0
       0       0       0       0       0       0       0       0       0       0
       0       0       0       0       0       0       0       0       0       0
       0       0       0       0       0       0       0       0       0       0
       0       0       0       0       0       0       0       0       0       0
       0       0       0       0       0       0       0       0       0       0
       0       0       0       0       0       0       0       0       0       0
       0       0       0       0       0       0       0       0       0       0
       0       0       0       0       0       0       0       0       0       0
       0       0       0       0       0       0       0       0       0       0
       0       0       0       0       0       0       0       0       0       0
       0       0       0       0       0       0       0       0       0       0
       0       0       0       0       0       0       0       0       0       0
       0       0       0       0       0       0       0       0       0       0
       0       0       0       0       0       0       0       0       0       0
       0       0       0       0       0       0       0       0       0       0
       0       0       0       0       0       0       0       0       0       0
       0       0       0       0       0       0       0       0       0       0
       0       0       0       0       0       0       0       0       0       0
       0       0       0       0       0       0       0       0       0       0
       0       0       0       0       0       0       0       0       0       0
       0       0       0       0       0       0       0       0       0       0
       0       0       0       0       0       0       0       0       0       0
       0       0       0       0       0       0       0       0       0       0
       0       0       0       0       0       0       0       0       0       0
       0       0       0       0       0       0       0       0       0       0
       0       0       0       0       0       0       0       0       0       0
       0       0       0       0       0       0       0       0       0       0
       0       0       0       0       0       0       0       0       0       0
       0       0       0       0       0       0       0       0       0       0
       0       0       0       0       0       0       0       0       0       0
       0       0       0       0       0       0       0       0       0       0
       0       0       0       0       0       0       0       0       0       0
       0       0       0       0       0       0       0       0       0       0
       0       0       0       0       0       0       0       0       0       0
       0       0       0       0       0       0       0       0       0       0
       0       0       0       0       0       0       0       0       0       0
       0       0       0       0       0       0       0       0       0       0
       0       0       0       0       0       0       0       0       0       0
       0       0       0       0       0       0       0       0       0       0
       0       0       0       0       0       0       0       0       0       0
       0       0       0       0       0       0       0       0       0       0
       0       0       0       0       0       0       0       0       0       0
       0       0       0       0       0       0       0       0       0       0
       0       0       0       0       0       0       0       0       0       0
       0       0       0       0       0       0       0       0       0       0
       0       0       0       0       0       0       0       0       0       0
       0       0       0       0       0       0       0       0       0       0
       0       0       0       0       0       0       0       0       0       0
       0       0       0       0       0       0       0       0       0       0
       0       0       0       0       0       0       0       0       0       0
       0       0       0       0       0       0       0       0       0       0
       0       0       0       0       0       0       0       0       0       0
       0       0       0       0       0       0       0       0       0       0
       0       0       0       0       0       0       0       0       0       0
       0       0       0       0       0       0       0       0       0       0
       0       0       0       0       0       0       0       0       0       0
       0       0       0       0       0       0       0       0       0       0
       0       0       0       0       0       0       0       0       0       0
       0       0       0       0       0       0       0       0       0       0
       0       0       0       0       0       0       0       0       0       0
       0       0       0       0       0       0       0       0       0       0
       0       0       0       0       0       0       0       0       0       0
       0       0       0       0       0       0       0       0       0       0
       0       0       0       0       0       0       0       0       0       0
       0       0       0       0       0       0       0       0       0       0
       0       0       0       0       0       0       0       0       0       0
       0       0       0       0       0       0       0       0       0       0
       0       0       0       0       0       0       0       0       0       0
       0       0       0       0       0       0       0       0       0       0
       0       0       0       0       0       0       0       0       0       0
       0       0       0       0       0       0       0       0       0       0
       0       0       0       0       0       0       0       0       0       0
       0       0       0       0       0       0       0       0       0       0
       0       0       0       0       0       0       0       0       0       0
       0       0       0       0       0       0       0       0       0       0
       0       0       0       0       0       0       0       0       0       0
       0       0       0       0       0       0       0       0       0       0
       0       0       0       0       0       0       0       0       0       0
       0       0       0       0       0       0       0       0       0       0
       0       0       0       0       0       0       0       0       0       0
       0       0       0       0       0       0       0       0       0       0
       0       0       0       0       0       0       0       0       0       0
       0       0       0       0       0       0       0       0       0       0
       0       0       0       0       0       0       0       0       0       0
       0       0       0       0       0       0       0       0       0       0
       0       0       0       0       0       0       0       0       0       0
       0       0       0       0       0       0       0       0       0       0
       0       0       0       0       0       0       0       0       0       0
       0       0       0       0       0       0       0       0       0       0
       0       0       0       0       0       0       0       0       0       0
       0       0       0       0       0       0       0       0       0       0
       0       0       0       0       0       0       0       0       0       0
       0       0       0       0       0       0       0       0       0       0
       0       0       0       0       0       0       0       0       0       0
       0       0       0       0       0       0       0       0       0       0
       0       0       0       0       0       0       0       0       0       0
       0       0       0       0       0       0       0       0       0       0
       0       0       0       0       0       0       0       0       0       0
       0       0       0       0       0       0       0       0       0       0
       0       0       0       0       0       0       0       0       0       0
       0       0       0       0       0       0       0       0       0       0
       0       0       0       0       0       0       0       0       0       0
       0       0       0       0       0       0       0       0       0       0
       0       0       0       0       0       0       0       0       0       0
       0       0       0       0       0       0       0       0       0       0
       0       0       0       0       0       0       0       0       0       0
       0       0       0       0       0       0       0       0       0       0
       0       0       0       0       0       0       0       0       0       0
       0       0       0       0       0       0       0       0       0       0
       0       0       0       0       0       0       0       0       0       0
       0       0       0       0       0       0       0       0       0       0
       0       0       0       0       0       0       0       0       0       0
       0       0       0       0       0       0       0       0       0       0
       0       0       0       0       0       0       0       0       0       0
       0       0       0       0       0       0       0       0       0       0
       0       0       0       0       0       0       0       0       0       0
       0       0       0       0       0       0       0       0       0       0
       0       0       0       0       0       0       0       0       0       0
       0       0       0       0       0       0       0       0       0       0
       0       0       0       0       0       0       0       0       0       0
       0       0       0       0       0       0       0       0       0       0
       0       0       0       0       0       0       0       0       0       0
       0       0       0       0       0       0       0       0       0       0
       0       0       0       0       0       0       0       0       0       0
       0       0       0       0       0       0       0       0       0       0
       0       0       0       0       0       0       0       0       0       0
       0       0       0       0       0       0       0       0       0       0
       0       0       0       0       0       0       0       0       0       0
       0       0       0       0       0       0       0       0       0       0
       0       0       0       0       0       0       0       0       0       0
       0       0       0       0       0       0       0       0       0       0
       0       0       0       0       0       0       0       0       0       0
       0       0       0       0       0       0       0       0       0       0
       0       0       0       0       0       0       0       0       0       0
       0       0       0       0       0       0       0       0       0       0
       0       0       0       0       0       0       0       0       0       0
       0       0       0       0       0       0       0       0       0       0
       0       0       0       0       0       0       0       0       0       0
       0       0       0       0       0       0       0       0       0       0
       0       0       0       0       0       0       0       0       0       0
       0       0       0       0       0       0       0       0       0       0
       0       0       0       0       0       0       0       0       0       0
       0       0       0       0       0       0       0       0       0       0
       0       0       0       0       0       0       0       0       0       0
       0       0       0       0       0       0       0       0       0       0
       0       0       0       0       0       0       0       0       0       0
       0       0       0       0       0       0       0       0       0       0
       0       0       0       0       0       0       0       0       0       0
       0       0       0       0       0       0       0       0       0       0
       0       0       0       0       0       0       0       0       0       0
       0       0       0       0       0       0       0       0       0       0
       0       0       0       0       0       0       0       0       0       0
       0       0       0       0       0       0       0       0       0       0
       0       0       0       0       0       0       0       0       0       0
       0       0       0       0       0       0       0       0       0       0
       0       0       0       0       0       0       0       0       0       0
       0       0       0       0       0       0       0       0       0       0
       0       0       0       0       0       0       0       0       0       0
       0       0       0       0       0       0       0       0       0       0
       0       0       0       0       0       0       0       0       0       0
       0       0       0       0       0       0       0       0       0       0
       0       0       0       0       0       0       0       0       0       0
       0       0       0       0       0       0       0       0       0       0
       0       0       0       0       0       0       0       0       0       0
       0       0       0       0       0       0       0       0       0       0
       0       0       0       0       0       0       0       0       0       0
       0       0       0       0       0       0       0       0       0       0
       0       0       0       0       0       0       0       0       0       0
       0       0       0       0       0       0       0       0       0       0
       0       0       0       0       0       0       0       0       0       0
       0       0       0       0       0       0       0       0       0       0
       0       0       0       0       0       0       0       0       0       0
       0       0       0       0       0       0       0       0       0       0
       0       0       0       0       0       0       0       0       0       0
       0       0       0       0       0       0       0       0       0       0
       0       0       0       0       0       0       0       0       0       0
       0       0       0       0       0       0       0       0       0       0
       0       0       0       0       0       0       0       0       0       0
       0       0       0       0       0       0       0       0       0       0
       0       0       0       0       0       0       0       0       0       0
       0       0       0       0       0       0       0       0       0       0
       0       0       0       0       0       0       0       0       0       0
       0       0       0       0       0       0       0       0       0       0
       0       0       0       0       0       0       0       0       0       0
       0       0       0       0       0       0       0       0       0       0
       0       0       0       0       0       0       0       0       0       0
       0       0       0       0       0       0       0       0       0       0
       0       0       0       0       0       0       0       0       0       0
       0       0       0       0       0       0       0       0       0       0
       0       0       0       0       0       0       0       0       0       0
       0       0       0       0       0       0       0       0       0       0
       0       0       0       0       0       0       0       0       0       0
       0       0       0       0       0       0       0       0       0       0
       0       0       0       0       0       0       0       0       0       0
       0       0       0       0       0       0       0       0       0       0
       0       0       0       0       0       0       0       0       0       0
       0       0       0       0       0       0       0       0       0       0
       0       0       0       0       0       0       0       0       0       0
       0       0       0       0       0       0       0       0       0       0
       0       0       0       0       0       0       0       0       0       0
       0       0       0       0       0       0       0       0       0       0
       0       0       0       0       0       0       0       0       0       0
       0       0       0       0       0       0       0       0       0       0
       0       0       0       0       0       0       0       0       0       0
       0       0       0       0       0       0       0       0       0       0
       0       0       0       0       0       0       0       0       0       0
       0       0       0       0       0       0       0       0       0       0
       0       0       0       0       0       0       0       0       0       0
       0       0       0       0       0       0       0       0       0       0
       0       0       0       0       0       0       0       0       0       0
       0       0       0       0       0       0       0       0       0       0
       0       0       0       0       0       0       0       0       0       0
       0       0       0       0       0       0       0       0       0       0
       0       0       0       0       0       0       0       0       0       0
       0       0       0       0       0       0       0       0       0       0
       0       0       0       0       0       0       0       0       0       0
       0       0       0       0       0       0       0       0       0       0
       0       0       0       0       0       0       0       0       0       0
       0       0       0       0       0       0       0       0       0       0
       0       0       0       0       0       0       0       0       0       0
       0       0       0       0       0       0       0       0       0       0
       0       0       0       0       0       0       0       0       0       0
       0       0       0       0       0       0       0       0       0       0
       0       0       0       0       0       0       0       0       0       0
       0       0       0       0       0       0       0       0       0       0
       0       0       0       0       0       0       0       0       0       0
       0       0       0       0       0       0       0       0       0       0
       0       0       0       0       0       0       0       0       0       0
       0       0       0       0       0       0       0       0       0       0
       0       0       0       0       0       0       0       0       0       0
       0       0       0       0       0       0       0       0       0       0
       0       0       0       0       0       0       0       0       0       0
       0       0       0       0       0       0       0       0       0       0
       0       0       0       0       0       0       0       0       0       0
       0       0       0       0       0       0       0       0       0       0
       0       0       0       0       0       0       0       0       0       0
       0       0       0       0       0       0       0       0       0       0
       0       0       0       0       0       0       0       0       0       0
       0       0       0       0       0       0       0       0       0       0
       0       0       0       0       0       0       0       0       0       0
       0       0       0       0       0       0       0       0       0       0
       0       0       0       0       0       0       0       0       0       0
       0       0       0       0       0       0       0       0       0       0
       0       0       0       0       0       0       0       0       0       0
       0       0       0       0       0       0       0       0       0       0
       0       0       0       0       0       0       0       0       0       0
       0       0       0       0       0       0       0       0       0       0
       0       0       0       0       0       0       0       0       0       0
       0       0       0       0       0       0       0       0       0       0
       0       0       0       0       0       0       0       0       0       0
       0       0       0       0       0       0       0       0       0       0
       0       0       0       0       0       0       0       0       0       0
       0       0       0       0       0       0       0       0       0       0
       0       0       0       0       0       0       0       0       0       0
       0       0       0       0       0       0       0       0       0       0
       0       0       0       0       0       0       0       0       0       0
       0       0       0       0       0       0       0       0       0       0
       0       0       0       0       0       0       0       0       0       0
       0       0       0       0       0       0       0       0       0       0
       0       0       0       0       0       0       0       0       0       0
       0       0       0       0       0       0       0       0       0       0
       0       0       0       0       0       0       0       0       0       0
       0       0       0       0       0       0       0       0       0       0
       0       0       0       0       0       0       0       0       0       0
       0       0       0       0       0       0       0       0       0       0
       0       0       0       0       0       0       0       0       0       0
       0       0       0       0       0       0       0       0       0       0
       0       0       0       0       0       0       0       0       0       0
       0       0       0       0       0       0       0       0       0       0
       0       0       0       0       0       0       0       0       0       0
       0       0       0       0       0       0       0       0       0       0
       0       0       0       0       0       0       0       0       0       0
       0       0       0       0       0       0       0       0       0       0
       0       0       0       0       0       0       0       0       0       0
       0       0       0       0       0       0       0       0       0       0
       0       0       0       0       0       0       0       0       0       0
       0       0       0       0       0       0       0       0       0       0
       0       0       0       0       0       0       0       0       0       0
       0       0       0       0       0       0       0       0       0       0
       0       0       0       0       0       0       0       0       0       0
       0       0       0       0       0       0       0       0       0       0
       0       0       0       0       0       0       0       0       0       0
       0       0       0       0       0       0       0       0       0       0
       0       0       0       0       0       0       0       0       0       0
       0       0       0       0       0       0       0       0       0       0
       0       0       0       0       0       0       0       0       0       0
       0       0       0       0       0       0       0       0       0       0
       0       0       0       0       0       0       0       0       0       0
       0       0       0       0       0       0       0       0       0       0
       0       0       0       0       0       0       0       0       0       0
       0       0       0       0       0       0       0       0       0       0
       0       0       0       0       0       0       0       0       0       0
       0       0       0       0       0       0       0       0       0       0
       0       0       0       0       0       0       0       0       0       0
       0       0       0       0       0       0       0       0       0       0
       0       0       0       0       0       0       0       0       0       0
       0       0       0       0       0       0       0       0       0       0
       0       0       0       0       0       0       0       0       0       0
       0       0       0       0       0       0       0       0       0       0
       0       0       0       0       0       0       0       0       0       0
       0       0       0       0       0       0       0       0       0       0
       0       0       0       0       0       0       0       0       0       0
       0       0       0       0       0       0       0       0       0       0
       0       0       0       0       0       0       0       0       0       0
       0       0       0       0       0       0       0       0       0       0
       0       0       0       0       0       0       0       0       0       0
       0       0       0       0       0       0       0       0       0       0
       0       0       0       0       0       0       0       0       0       0
       0       0       0       0       0       0       0       0       0       0
       0       0       0       0       0       0       0       0       0       0
       0       0       0       0       0       0       0       0       0       0
       0       0       0       0       0       0       0       0       0       0
       0       0       0       0       0       0       0       0       0       0
       0       0       0       0       0       0       0       0       0       0
       0       0       0       0       0       0       0       0       0       0
       0       0       0       0       0       0       0       0       0       0
       0       0       0       0       0       0       0       0       0       0
       0       0       0       0       0       0       0       0       0       0
       0       0       0       0       0       0       0       0       0       0
       0       0       0       0       0       0       0       0       0       0
       0       0       0       0       0       0       0       0       0       0
       0       0       0       0       0       0       0       0       0       0
       0       0       0       0       0       0       0       0       0       0
       0       0       0       0       0       0       0       0       0       0
       0       0       0       0       0       0       0       0       0       0
       0       0       0       0       0       0       0       0       0       0
       0       0       0       0       0       0       0       0       0       0
       0       0       0       0       0       0       0       0       0       0
       0       0       0       0       0       0       0       0       0       0
       0       0       0       0       0       0       0       0       0       0
       0       0       0       0       0       0       0       0       0       0
       0       0       0       0       0       0       0       0       0       0
       0       0       0       0       0       0       0       0       0       0
       0       0       0       0       0       0       0       0       0       0
       0       0       0       0       0       0       0       0       0       0
       0       0       0       0       0       0       0       0       0       0
       0       0       0       0       0       0       0       0       0       0
       0       0       0       0       0       0       0       0       0       0
       0       0       0       0       0       0       0       0       0       0
       0       0       0       0       0       0       0       0       0       0
       0       0       0       0       0       0       0       0       0       0
       0       0       0       0       0       0       0       0       0       0
       0       0       0       0       0       0       0       0       0       0
       0       0       0       0       0       0       0       0       0       0
       0       0       0       0       0       0       0       0       0       0
       0       0       0       0       0       0       0       0       0       0
       0       0       0       0       0       0       0       0       0       0
       0       0       0       0       0       0       0       0       0       0
       0       0       0       0       0       0       0       0       0       0
       0       0       0       0       0       0       0       0       0       0
       0       0       0       0       0       0       0       0       0       0
       0       0       0       0       0       0       0       0       0       0
       0       0       0       0       0       0       0       0       0       0
       0       0       0       0       0       0       0       0       0       0
       0       0       0       0       0       0       0       0       0       0
       0       0       0       0       0       0       0       0       0       0
       0       0       0       0       0       0       0       0       0       0
       0       0       0       0       0       0       0       0       0       0
       0       0       0       0       0       0       0       0       0       0
       0       0       0       0       0       0       0       0       0       0
       0       0       0       0       0       0       0       0       0       0
       0       0       0       0       0       0       0       0       0       0
       0       0       0       0       0       0       0       0       0       0
       0       0       0       0       0       0       0       0       0       0
       0       0       0       0       0       0       0       0       0       0
       0       0       0       0       0       0       0       0       0       0
       0       0       0       0       0       0       0       0       0       0
       0       0       0       0       0       0       0       0       0       0
       0       0       0       0       0       0       0       0       0       0
       0       0       0       0       0       0       0       0       0       0
       0       0       0       0       0       0       0       0       0       0
       0       0       0       0       0       0       0       0       0       0
       0       0       0       0       0       0       0       0       0       0
       0       0       0       0       0       0       0       0       0       0
       0       0       0       0       0       0       0       0       0       0
       0       0       0       0       0       0       0       0       0       0
       0       0       0       0       0       0       0       0       0       0
       0       0       0       0       0       0       0       0       0       0
       0       0       0       0       0       0       0       0       0       0
       0       0       0       0       0       0       0       0       0       0
       0       0       0       0       0       0       0       0       0       0
       0       0       0       0       0       0       0       0       0       0
       0       0       0       0       0       0       0       0       0       0
       0       0       0       0       0       0       0       0       0       0
       0       0       0       0       0       0       0       0       0       0
       0       0       0       0       0       0       0       0       0       0
       0       0       0       0       0       0       0       0       0       0
       0       0       0       0       0       0       0       0       0       0
       0       0       0       0       0       0       0       0       0       0
       0       0       0       0       0       0       0       0       0       0
       0       0       0       0       0       0       0       0       0       0
       0       0       0       0       0       0       0       0       0       0
       0       0       0       0       0       0       0       0       0       0
       0       0       0       0       0       0       0       0       0       0
       0       0       0       0       0       0       0       0       0       0
       0       0       0       0       0       0       0       0       0       0
       0       0       0       0       0       0       0       0       0       0
       0       0       0       0       0       0       0       0       0       0
       0       0       0       0       0       0       0       0       0       0
       0       0       0       0       0       0       0       0       0       0
       0       0       0       0       0       0       0       0       0       0
       0       0       0       0       0       0       0       0       0       0
       0       0       0       0       0       0       0       0       0       0
       0       0       0       0       0       0       0       0       0       0
       0       0       0       0       0       0       0       0       0       0
       0       0       0       0       0       0       0       0       0       0
       0       0       0       0       0       0       0       0       0       0
       0       0       0       0       0       0       0       0       0       0
       0       0       0       0       0       0       0       0       0       0
       0       0       0       0       0       0       0       0       0       0
       0       0       0       0       0       0       0       0       0       0
       0       0       0       0       0       0       0       0       0       0
       0       0       0       0       0       0       0       0       0       0
       0       0       0       0       0       0       0       0       0       0
       0       0       0       0       0       0       0       0       0       0
       0       0       0       0       0       0       0       0       0       0
       0       0       0       0       0       0       0       0       0       0
       0       0       0       0       0       0       0       0       0       0
       0       0       0       0       0       0       0       0       0       0
       0       0       0       0       0       0       0       0       0       0
       0       0       0       0       0       0       0       0       0       0
       0       0       0       0       0       0       0       0       0       0
       0       0       0       0       0       0       0       0       0       0
       0       0       0       0       0       0       0       0       0       0
       0       0       0       0       0       0       0       0       0       0
       0       0       0       0       0       0       0       0       0       0
       0       0       0       0       0       0       0       0       0       0
       0       0       0       0       0       0       0       0       0       0
       0       0       0       0       0       0       0       0       0       0
       0       0       0       0       0       0       0       0       0       0
       0       0       0       0       0       0       0       0       0       0
       0       0       0       0       0       0       0       0       0       0
       0       0       0       0       0       0       0       0       0       0
       0       0       0       0       0       0       0       0       0       0
       0       0       0       0       0       0       0       0       0       0
       0       0       0       0       0       0       0       0       0       0
       0       0       0       0       0       0       0       0       0       0
       0       0       0       0       0       0       0       0       0       0
       0       0       0       0       0       0       0       0       0       0
       0       0       0       0       0       0       0       0       0       0
       0       0       0       0       0       0       0       0       0       0
       0       0       0       0       0       0       0       0       0       0
       0       0       0       0       0       0       0       0       0       0
       0       0       0       0       0       0       0       0       0       0
       0       0       0       0       0       0       0       0       0       0
       0       0       0       0       0       0       0       0       0       0
       0       0       0       0       0       0       0       0       0       0
       0       0       0       0       0       0       0       0       0       0
       0       0       0       0       0       0       0       0       0       0
       0       0       0       0       0       0       0       0       0       0
       0       0       0       0       0       0       0       0       0       0
       0       0       0       0       0       0       0       0       0       0
       0       0       0       0       0       0       0       0       0       0
       0       0       0       0       0       0       0       0       0       0
       0       0       0       0       0       0       0       0       0       0
       0       0       0       0       0       0       0       0       0       0
       0       0       0       0       0       0       0       0       0       0
       0       0       0       0       0       0       0       0       0       0
       0       0       0       0       0       0       0       0       0       0
       0       0       0       0       0       0       0       0       0       0
       0       0       0       0       0       0       0       0       0       0
       0       0       0       0       0       0       0       0       0       0
       0       0       0       0       0       0       0       0       0       0
       0       0       0       0       0       0       0       0       0       0
       0       0       0       0       0       0       0       0       0       0
       0       0       0       0       0       0       0       0       0       0
       0       0       0       0       0       0       0       0       0       0
       0       0       0       0       0       0       0       0       0       0
       0       0       0       0       0       0       0       0       0       0
       0       0       0       0       0       0       0       0       0       0
       0       0       0       0       0       0       0       0       0       0
       0       0       0       0       0       0       0       0       0       0
       0       0       0       0       0       0       0       0       0       0
       0       0       0       0       0       0       0       0       0       0
       0       0       0       0       0       0       0       0       0       0
       0       0       0       0       0       0       0       0       0       0
       0       0       0       0       0       0       0       0       0       0
       0       0       0       0       0       0       0       0       0       0
       0       0       0       0       0       0       0       0       0       0
       0       0       0       0       0       0       0       0       0       0
       0       0       0       0       0       0       0       0       0       0
       0       0       0       0       0       0       0       0       0       0
       0       0       0       0       0       0       0       0       0       0
       0       0       0       0       0       0       0       0       0       0
       0       0       0       0       0       0       0       0       0       0
       0       0       0       0       0       0       0       0       0       0
       0       0       0       0       0       0       0       0       0       0
       0       0       0       0       0       0       0       0       0       0
       0       0       0       0       0       0       0       0       0       0
       0       0       0       0       0       0       0       0       0       0
       0       0       0       0       0       0       0       0       0       0
       0       0       0       0       0       0       0       0       0       0
       0       0       0       0       0       0       0       0       0       0
       0       0       0       0       0       0       0       0       0       0
       0       0       0       0       0       0       0       0       0       0
       0       0       0       0       0       0       0       0       0       0
       0       0       0       0       0       0       0       0       0       0
       0       0       0       0       0       0       0       0       0       0
       0       0       0       0       0       0       0       0       0       0
       0       0       0       0       0       0       0       0       0       0
       0       0       0       0       0       0       0       0       0       0
       0       0       0       0       0       0       0       0       0       0
       0       0       0       0       0       0       0       0       0       0
       0       0       0       0       0       0       0       0       0       0
       0       0       0       0       0       0       0       0       0       0
       0       0       0       0       0       0       0       0       0       0
       0       0       0       0       0       0       0       0       0       0
       0       0       0       0       0       0       0       0       0       0
       0       0       0       0       0       0       0       0       0       0
       0       0       0       0       0       0       0       0       0       0
       0       0       0       0       0       0       0       0       0       0
       0       0       0       0       0       0       0       0       0       0
       0       0       0       0       0       0       0       0       0       0
       0       0       0       0       0       0       0       0       0       0
       0       0       0       0       0       0       0       0       0       0
       0       0       0       0       0       0       0       0       0       0
       0       0       0       0       0       0       0       0       0       0
       0       0       0       0       0       0       0       0       0       0
       0       0       0       0       0       0       0       0       0       0
       0       0       0       0       0       0       0       0       0       0
       0       0       0       0       0       0       0       0       0       0
       0       0       0       0       0       0       0       0       0       0
       0       0       0       0       0       0       0       0       0       0
       0       0       0       0       0       0       0       0       0       0
       0       0       0       0       0       0       0       0       0       0
       0       0       0       0       0       0       0       0       0       0
       0       0       0       0       0       0       0       0       0       0
       0       0       0       0       0       0       0       0       0       0
       0       0       0       0       0       0       0       0       0       0
       0       0       0       0       0       0       0       0       0       0
       0       0       0       0       0       0       0       0       0       0
       0       0       0       0       0       0       0       0       0       0
       0       0       0       0       0       0       0       0       0       0
       0       0       0       0       0       0       0       0       0       0
       0       0       0       0       0       0       0       0       0       0
       0       0       0       0       0       0       0       0       0       0
       0       0       0       0       0       0       0       0       0       0
       0       0       0       0       0       0       0       0       0       0
       0       0       0       0       0       0       0       0       0       0
       0       0       0       0       0       0       0       0       0       0
       0       0       0       0       0       0       0       0       0       0
       0       0       0       0       0       0       0       0       0       0
       0       0       0       0       0       0       0       0       0       0
       0       0       0       0       0       0       0       0       0       0
       0       0       0       0       0       0       0       0       0       0
       0       0       0       0       0       0       0       0       0       0
       0       0       0       0       0       0       0       0       0       0
       0       0       0       0       0       0       0       0       0       0
       0       0       0       0       0       0       0       0       0       0
       0       0       0       0       0       0       0       0       0       0
       0       0       0       0       0       0       0       0       0       0
       0       0       0       0       0       0       0       0       0       0
       0       0       0       0       0       0       0       0       0       0
       0       0       0       0       0       0       0       0       0       0
       0       0       0       0       0       0       0       0       0       0
       0       0       0       0       0       0       0       0       0       0
       0       0       0       0       0       0       0       0       0       0
       0       0       0       0       0       0       0       0       0       0
       0       0       0       0       0       0       0       0       0       0
       0       0       0       0       0       0       0       0       0       0
       0       0       0       0       0       0       0       0       0       0
       0       0       0       0       0       0       0       0       0       0
       0       0       0       0       0       0       0       0       0       0
       0       0       0       0       0       0       0       0       0       0
       0       0       0       0       0       0       0       0       0       0
       0       0       0       0       0       0       0       0       0       0
       0       0       0       0       0       0       0       0       0       0
       0       0       0       0       0       0       0       0       0       0
       0       0       0       0       0       0       0       0       0       0
       0       0       0       0       0       0       0       0       0       0
       0       0       0       0       0       0       0       0       0       0
       0       0       0       0       0       0       0       0       0       0
       0       0       0       0       0       0       0       0       0       0
       0       0       0       0       0       0       0       0       0       0
       0       0       0       0       0       0       0       0       0       0
       0       0       0       0       0       0       0       0       0       0
       0       0       0       0       0       0       0       0       0       0
       0       0       0       0       0       0       0       0       0       0
       0       0       0       0       0       0       0       0       0       0
       0       0       0       0       0       0       0       0       0       0
       0       0       0       0       0       0       0       0       0       0
       0       0       0       0       0       0       0       0       0       0
       0       0       0       0       0       0       0       0       0       0
       0       0       0       0       0       0       0       0       0       0
       0       0       0       0       0       0       0       0       0       0
       0       0       0       0       0       0       0       0       0       0
       0       0       0       0       0       0       0       0       0       0
       0       0       0       0       0       0       0       0       0       0
       0       0       0       0       0       0       0       0       0       0
       0       0       0       0       0       0       0       0       0       0
       0       0       0       0       0       0       0       0       0       0
       0       0       0       0       0       0       0       0       0       0
       0       0       0       0       0       0       0       0       0       0
       0       0       0       0       0       0       0       0       0       0
       0       0       0       0       0       0       0       0       0       0
       0       0       0       0       0       0       0       0       0       0
       0       0       0       0       0       0       0       0       0       0
       0       0       0       0       0       0       0       0       0       0
       0       0       0       0       0       0       0       0       0       0
       0       0       0       0       0       0       0       0       0       0
       0       0       0       0       0       0       0       0       0       0
       0       0       0       0       0       0       0       0       0       0
       0       0       0       0       0       0       0       0       0       0
       0       0       0       0       0       0       0       0       0       0
       0       0       0       0       0       0       0       0       0       0
       0       0       0       0       0       0       0       0       0       0
       0       0       0       0       0       0       0       0       0       0
       0       0       0       0       0       0       0       0       0       0
       0       0       0       0       0       0       0       0       0       0
       0       0       0       0       0       0       0       0       0       0
       0       0       0       0       0       0       0       0       0       0
       0       0       0       0       0       0       0       0       0       0
       0       0       0       0       0       0       0       0       0       0
       0       0       0       0       0       0       0       0       0       0
       0       0       0       0       0       0       0       0       0       0
       0       0       0       0       0       0       0       0       0       0
       0       0       0       0       0       0       0       0       0       0
       0       0       0       0       0       0       0       0       0       0
       0       0       0       0       0       0       0       0       0       0
       0       0       0       0       0       0       0       0       0       0
       0       0       0       0       0       0       0       0       0       0
       0       0       0       0       0       0       0       0       0       0
       0       0       0       0       0       0       0       0       0       0
       0       0       0       0       0       0       0       0       0       0
       0       0       0       0       0       0       0       0       0       0
       0       0       0       0       0       0       0       0       0       0
       0       0       0       0       0       0       0       0       0       0
       0       0       0       0       0       0       0       0       0       0
       0       0       0       0       0       0       0       0       0       0
       0       0       0       0       0       0       0       0       0       0
       0       0       0       0       0       0       0       0       0       0
       0       0       0       0       0       0       0       0       0       0
       0       0       0       0       0       0       0       0       0       0
       0       0       0       0       0       0       0       0       0       0
       0       0       0       0       0       0       0       0       0       0
       0       0       0       0       0       0       0       0       0       0
       0       0       0       0       0       0       0       0       0       0
       0       0       0       0       0       0       0       0       0       0
       0       0       0       0       0       0       0       0       0       0
       0       0       0       0       0       0       0       0       0       0
       0       0       0       0       0       0       0       0       0       0
       0       0       0       0       0       0       0       0       0       0
       0       0       0       0       0       0       0       0       0       0
       0       0       0       0       0       0       0       0       0       0
       0       0       0       0       0       0       0       0       0       0
       0       0       0       0       0       0       0       0       0       0
       0       0       0       0       0       0       0       0       0       0
       0       0       0       0       0       0       0       0       0       0
       0       0       0       0       0       0       0       0       0       0
       0       0       0       0       0       0       0       0       0       0
       0       0       0       0       0       0       0       0       0       0
       0       0       0       0       0       0       0       0       0       0
       0       0       0       0       0       0       0       0       0       0
       0       0       0       0       0       0       0       0       0       0
       0       0       0       0       0       0       0       0       0       0
       0       0       0       0       0       0       0       0       0       0
       0       0       0       0       0       0       0       0       0       0
       0       0       0       0       0       0       0       0       0       0
       0       0       0       0       0       0       0       0       0       0
       0       0       0       0       0       0       0       0       0       0
       0       0       0       0       0       0       0       0       0       0
       0       0       0       0       0       0       0       0       0       0
       0       0       0       0       0       0       0       0       0       0
       0       0       0       0       0       0       0       0       0       0
       0       0       0       0       0       0       0       0       0       0
       0       0       0       0       0       0       0       0       0       0
       0       0       0       0       0       0       0       0       0       0
       0       0       0       0       0       0       0       0       0       0
       0       0       0       0       0       0       0       0       0       0
       0       0       0       0       0       0       0       0       0       0
       0       0       0       0       0       0       0       0       0       0
       0       0       0       0       0       0       0       0       0       0
       0       0       0       0       0       0       0       0       0       0
       0       0       0       0       0       0       0       0       0       0
       0       0       0       0       0       0       0       0       0       0
       0       0       0       0       0       0       0       0       0       0
       0       0       0       0       0       0       0       0       0       0
       0       0       0       0       0       0       0       0       0       0
       0       0       0       0       0       0       0       0       0       0
       0       0       0       0       0       0       0       0       0       0
       0       0       0       0       0       0       0       0       0       0
       0       0       0       0       0       0       0       0       0       0
       0       0       0       0       0       0       0       0       0       0
       0       0       0       0       0       0       0       0       0       0
       0       0       0       0       0       0       0       0       0       0
       0       0       0       0       0       0       0       0       0       0
       0       0       0       0       0       0       0       0       0       0
       0       0       0       0       0       0       0       0       0       0
       0       0       0       0       0       0       0       0       0       0
       0       0       0       0       0       0       0       0       0       0
       0       0       0       0       0       0       0       0       0       0
       0       0       0       0       0       0       0       0       0       0
       0       0       0       0       0       0       0       0       0       0
       0       0       0       0       0       0       0       0       0       0
       0       0       0       0       0       0       0       0       0       0
       0       0       0       0       0       0       0       0       0       0
       0       0       0       0       0       0       0       0       0       0
       0       0       0       0       0       0       0       0       0       0
       0       0       0       0       0       0       0       0       0       0
       0       0       0       0       0       0       0       0       0       0
       0       0       0       0       0       0       0       0       0       0
       0       0       0       0       0       0       0       0       0       0
       0       0       0       0       0       0       0       0       0       0
       0       0       0       0       0       0       0       0       0       0
       0       0       0       0       0       0       0       0       0       0
       0       0       0       0       0       0       0       0       0       0
       0       0       0       0       0       0       0       0       0       0
       0       0       0       0       0       0       0       0       0       0
       0       0       0       0       0       0       0       0       0       0
       0       0       0       0       0       0       0       0       0       0
       0       0       0       0       0       0       0       0       0       0
       0       0       0       0       0       0       0       0       0       0
       0       0       0       0       0       0       0       0       0       0
       0       0       0       0       0       0       0       0       0       0
       0       0       0       0       0       0       0       0       0       0
       0       0       0       0       0       0       0       0       0       0
       0       0       0       0       0       0       0       0       0       0
       0       0       0       0       0       0       0       0       0       0
       0       0       0       0       0       0       0       0       0       0
       0       0       0       0       0       0       0       0       0       0
       0       0       0       0       0       0       0       0       0       0
       0       0       0       0       0       0       0       0       0       0
       0       0       0       0       0       0       0       0       0       0
       0       0       0       0       0       0       0       0       0       0
       0       0       0       0       0       0       0       0       0       0
       0       0       0       0       0       0       0       0       0       0
       0       0       0       0       0       0       0       0       0       0
       0       0       0       0       0       0       0       0       0       0
       0       0       0       0       0       0       0       0       0       0
       0       0       0       0       0       0       0       0       0       0
       0       0       0       0       0       0       0       0       0       0
       0       0       0       0       0       0       0       0       0       0
       0       0       0       0       0       0       0       0       0       0
       0       0       0       0       0       0       0       0       0       0
       0       0       0       0       0       0       0       0       0       0
       0       0       0       0       0       0       0       0       0       0
       0       0       0       0       0       0       0       0       0       0
       0       0       0       0       0       0       0       0       0       0
       0       0       0       0       0       0       0       0       0       0
       0       0       0       0       0       0       0       0       0       0
       0       0       0       0       0       0       0       0       0       0
       0       0       0       0       0       0       0       0       0       0
       0       0       0       0       0       0       0       0       0       0
       0       0       0       0       0       0       0       0       0       0
       0       0       0       0       0       0       0       0       0       0
       0       0       0       0       0       0       0       0       0       0
       0       0       0       0       0       0       0       0       0       0
       0       0       0       0       0       0       0       0       0       0
       0       0       0       0       0       0       0       0       0       0
       0       0       0       0       0       0       0       0       0       0
       0       0       0       0       0       0       0       0       0       0
       0       0       0       0       0       0       0       0       0       0
       0       0       0       0       0       0       0       0       0       0
       0       0       0       0       0       0       0       0       0       0
       0       0       0       0       0       0       0       0       0       0
       0       0       0       0       0       0       0       0       0       0
       0       0       0       0       0       0       0       0       0       0
       0       0       0       0       0       0       0       0       0       0
       0       0       0       0       0       0       0       0       0       0
       0       0       0       0       0       0       0       0       0       0
       0       0       0       0       0       0       0       0       0       0
       0       0       0       0       0       0       0       0       0       0
       0       0       0       0       0       0       0       0       0       0
       0       0       0       0       0       0       0       0       0       0
       0       0       0       0       0       0       0       0       0       0
       0       0       0       0       0       0       0       0       0       0
       0       0       0       0       0       0       0       0       0       0
       0       0       0       0       0       0       0       0       0       0
       0       0       0       0       0       0       0       0       0       0
       0       0       0       0       0       0       0       0       0       0
       0       0       0       0       0       0       0       0       0       0
       0       0       0       0       0       0       0       0       0       0
       0       0       0       0       0       0       0       0       0       0
       0       0       0       0       0       0       0       0       0       0
       0       0       0       0       0       0       0       0       0       0
       0       0       0       0       0       0       0       0       0       0
       0       0       0       0       0       0       0       0       0       0
       0       0       0       0       0       0       0       0       0       0
       0       0       0       0       0       0       0       0       0       0
       0       0       0       0       0       0       0       0       0       0
       0       0       0       0       0       0       0       0       0       0
       0       0       0       0       0       0       0       0       0       0
       0       0       0       0       0       0       0       0       0       0
       0       0       0       0       0       0       0       0       0       0
       0       0       0       0       0       0       0       0       0       0
       0       0       0       0       0       0       0       0       0       0
       0       0       0       0       0       0       0       0       0       0
       0       0       0       0       0       0       0       0       0       0
       0       0       0       0       0       0       0       0       0       0
       0       0       0       0       0       0       0       0       0       0
       0       0       0       0       0       0       0       0       0       0
       0       0       0       0       0       0       0       0       0       0
       0       0       0       0       0       0       0       0       0       0
       0       0       0       0       0       0       0       0       0       0
       0       0       0       0       0       0       0       0       0       0
       0       0       0       0       0       0       0       0       0       0
       0       0       0       0       0       0       0       0       0       0
       0       0       0       0       0       0       0       0       0       0
       0       0       0       0       0       0       0       0       0       0
       0       0       0       0       0       0       0       0       0       0
       0       0       0       0       0       0       0       0       0       0
       0       0       0       0       0       0       0       0       0       0
       0       0       0       0       0       0       0       0       0       0
       0       0       0       0       0       0       0       0       0       0
       0       0       0       0       0       0       0       0       0       0
       0       0       0       0       0       0       0       0       0       0
       0       0       0       0       0       0       0       0       0       0
       0       0       0       0       0       0       0       0       0       0
       0       0       0       0       0       0       0       0       0       0
       0       0       0       0       0       0       0       0       0       0
       0       0       0       0       0       0       0       0       0       0
       0       0       0       0       0       0       0       0       0       0
       0       0       0       0       0       0       0       0       0       0
       0       0       0       0       0       0       0       0       0       0
       0       0       0       0       0       0       0       0       0       0
       0       0       0       0       0       0       0       0       0       0
       0       0       0       0       0       0       0       0       0       0
       0       0       0       0       0       0       0       0       0       0
       0       0       0       0       0       0       0       0       0       0
       0       0       0       0       0       0       0       0       0       0
       0       0       0       0       0       0       0       0       0       0
       0       0       0       0       0       0       0       0       0       0
       0       0       0       0       0       0       0       0       0       0
       0       0       0       0       0       0       0       0       0       0
       0       0       0       0       0       0       0       0       0       0
       0       0       0       0       0       0       0       0       0       0
       0       0       0       0       0       0       0       0       0       0
       0       0       0       0       0       0       0       0       0       0
       0       0       0       0       0       0       0       0       0       0
       0       0       0       0       0       0       0       0       0       0
       0       0       0       0       0       0       0       0       0       0
       0       0       0       0       0       0       0       0       0       0
       0       0       0       0       0       0       0       0       0       0
       0       0       0       0       0       0       0       0       0       0
       0       0       0       0       0       0       0       0       0       0
       0       0       0       0       0       0       0       0       0       0
       0       0       0       0       0       0       0       0       0       0
       0       0       0       0       0       0       0       0       0       0
       0       0       0       0       0       0       0       0       0       0
       0       0       0       0       0       0       0       0       0       0
       0       0       0       0       0       0       0       0       0       0
       0       0       0       0       0       0       0       0       0       0
       0       0       0       0       0       0       0       0       0       0
       0       0       0       0       0       0       0       0       0       0
       0       0       0       0       0       0       0       0       0       0
       0       0       0       0       0       0       0       0       0       0
       0       0       0       0       0       0       0       0       0       0
       0       0       0       0       0       0       0       0       0       0
       0       0       0       0       0       0       0       0       0       0
       0       0       0       0       0       0       0       0       0       0
       0       0       0       0       0       0       0       0       0       0
       0       0       0       0       0       0       0       0       0       0
       0       0       0       0       0       0       0       0       0       0
       0       0       0       0       0       0       0       0       0       0
       0       0       0       0       0       0       0       0       0       0
       0       0       0       0       0       0       0       0       0       0
       0       0       0       0       0       0       0       0       0       0
       0       0       0       0       0       0       0       0       0       0
       0       0       0       0       0       0       0       0       0       0
       0       0       0       0       0       0       0       0       0       0
       0       0       0       0       0       0       0       0       0       0
       0       0       0       0       0       0       0       0       0       0
       0       0       0       0       0       0       0       0       0       0
       0       0       0       0       0       0       0       0       0       0
       0       0       0       0       0       0       0       0       0       0
       0       0       0       0       0       0       0       0       0       0
       0       0       0       0       0       0       0       0       0       0
       0       0       0       0       0       0       0       0       0       0
       0       0       0       0       0       0       0       0       0       0
       0       0       0       0       0       0       0       0       0       0
       0       0       0       0       0       0       0       0       0       0
       0       0       0       0       0       0       0       0       0       0
       0       0       0       0       0       0       0       0       0       0
       0       0       0       0       0       0       0       0       0       0
       0       0       0       0       0       0       0       0       0       0
       0       0       0       0       0       0       0       0       0       0
       0       0       0       0       0       0       0       0       0       0
       0       0       0       0       0       0       0       0       0       0
       0       0       0       0       0       0       0       0       0       0
       0       0       0       0       0       0       0       0       0       0
       0       0       0       0       0       0       0       0       0       0
       0       0       0       0       0       0       0       0       0       0
       0       0       0       0       0       0       0       0       0       0
       0       0       0       0       0       0       0       0       0       0
       0       0       0       0       0       0       0       0       0       0
       0       0       0       0       0       0       0       0       0       0
       0       0       0       0       0       0       0       0       0       0
       0       0       0       0       0       0       0       0       0       0
       0       0       0       0       0       0       0       0       0       0
       0       0       0       0       0       0       0       0       0       0
       0       0       0       0       0       0       0       0       0       0
       0       0       0       0       0       0       0       0       0       0
       0       0       0       0       0       0       0       0       0       0
       0       0       0       0       0       0       0       0       0       0
       0       0       0       0       0       0       0       0       0       0
       0       0       0       0       0       0       0       0       0       0
       0       0       0       0       0       0       0       0       0       0
       0       0       0       0       0       0       0       0       0       0
       0       0       0       0       0       0       0       0       0       0
       0       0       0       0       0       0       0       0       0       0
       0       0       0       0       0       0       0       0       0       0
       0       0       0       0       0       0       0       0       0       0
       0       0       0       0       0       0       0       0       0       0
       0       0       0       0       0       0       0       0       0       0
       0       0       0       0       0       0       0       0       0       0
       0       0       0       0       0       0       0       0       0       0
       0       0       0       0       0       0       0       0       0       0
       0       0       0       0       0       0       0       0       0       0
       0       0       0       0       0       0       0       0       0       0
       0       0       0       0       0       0       0       0       0       0
       0       0       0       0       0       0       0       0       0       0
       0       0       0       0       0       0       0       0       0       0
       0       0       0       0       0       0       0       0       0       0
       0       0       0       0       0       0       0       0       0       0
       0       0       0       0       0       0       0       0       0       0
       0       0       0       0       0       0       0       0       0       0
       0       0       0       0       0       0       0       0       0       0
       0       0       0       0       0       0       0       0       0       0
       0       0       0       0       0       0       0       0       0       0
       0       0       0       0       0       0       0       0       0       0
       0       0       0       0       0       0       0       0       0       0
       0       0       0       0       0       0       0       0       0       0
       0       0       0       0       0       0       0       0       0       0
       0       0       0       0       0       0       0       0       0       0
       0       0       0       0       0       0       0       0       0       0
       0       0       0       0       0       0       0       0       0       0
       0       0       0       0       0       0       0       0       0       0
       0       0       0       0       0       0       0       0       0       0
       0       0       0       0       0       0       0       0       0       0
       0       0       0       0       0       0       0       0       0       0
       0       0       0       0       0       0       0       0       0       0
       0       0       0       0       0       0       0       0       0       0
       0       0       0       0       0       0       0       0       0       0
       0       0       0       0       0       0       0       0       0       0
       0       0       0       0       0       0       0       0       0       0
       0       0       0       0       0       0       0       0       0       0
       0       0       0       0       0       0       0       0       0       0
       0       0       0       0       0       0       0       0       0       0
       0       0       0       0       0       0       0       0       0       0
       0       0       0       0       0       0       0       0       0       0
       0       0       0       0       0       0       0       0       0       0
       0       0       0       0       0       0       0       0       0       0
       0       0       0       0       0       0       0       0       0       0
       0       0       0       0       0       0       0       0       0       0
       0       0       0       0       0       0       0       0       0       0
       0       0       0       0       0       0       0       0       0       0
       0       0       0       0       0       0       0       0       0       0
       0       0       0       0       0       0       0       0       0       0
       0       0       0       0       0       0       0       0       0       0
       0       0       0       0       0       0       0       0       0       0
       0       0       0       0       0       0       0       0       0       0
       0       0       0       0       0       0       0       0       0       0
       0       0       0       0       0       0       0       0       0       0
       0       0       0       0       0       0       0       0       0       0
       0       0       0       0       0       0       0       0       0       0
       0       0       0       0       0       0       0       0       0       0
       0       0       0       0       0       0       0       0       0       0
       0       0       0       0       0       0       0       0       0       0
       0       0       0       0       0       0       0       0       0       0
       0       0       0       0       0       0       0       0       0       0
       0       0       0       0       0       0       0       0       0       0
       0       0       0       0       0       0       0       0       0       0
       0       0       0       0       0       0       0       0       0       0
       0       0       0       0       0       0       0       0       0       0
       0       0       0       0       0       0       0       0       0       0
       0       0       0       0       0       0       0       0       0       0
       0       0       0       0       0       0       0       0       0       0
       0       0       0       0       0       0       0       0       0       0
       0       0       0       0       0       0       0       0       0       0
       0       0       0       0       0       0       0       0       0       0
       0       0       0       0       0       0       0       0       0       0
       0       0       0       0       0       0       0       0       0       0
       0       0       0       0       0       0       0       0       0       0
       0       0       0       0       0       0       0       0       0       0
       0       0       0       0       0       0       0       0       0       0
       0       0       0       0       0       0       0       0       0       0
       0       0       0       0       0       0       0       0       0       0
       0       0       0       0       0       0       0       0       0       0
       0       0       0       0       0       0       0       0       0       0
       0       0       0       0       0       0       0       0       0       0
       0       0       0       0       0       0       0       0       0       0
       0       0       0       0       0       0       0       0       0       0
       0       0       0       0       0       0       0       0       0       0
       0       0       0       0       0       0       0       0       0       0
       0       0       0       0       0       0       0       0       0       0
       0       0       0       0       0       0       0       0       0       0
       0       0       0       0       0       0       0       0       0       0
       0       0       0       0       0       0       0       0       0       0
       0       0       0       0       0       0       0       0       0       0
       0       0       0       0       0       0       0       0       0       0
       0       0       0       0       0       0       0       0       0       0
       0       0       0       0       0       0       0       0       0       0
       0       0       0       0       0       0       0       0       0       0
       0       0       0       0       0       0       0       0       0       0
       0       0       0       0       0       0       0       0       0       0
       0       0       0       0       0       0       0       0       0       0
       0       0       0       0       0       0       0       0       0       0
       0       0       0       0       0       0       0       0       0       0
       0       0       0       0       0       0       0       0       0       0
       0       0       0       0       0       0       0       0       0       0
       0       0       0       0       0       0       0       0       0       0
       0       0       0       0       0       0       0       0       0       0
       0       0       0       0       0       0       0       0       0       0
       0       0       0       0       0       0       0       0       0       0
       0       0       0       0       0       0       0       0       0       0
       0       0       0       0       0       0       0       0       0       0
       0       0       0       0       0       0       0       0       0       0
       0       0       0       0       0       0       0       0       0       0
       0       0       0       0       0       0       0       0       0       0
       0       0       0       0       0       0       0       0       0       0
       0       0       0       0       0       0       0       0       0       0
       0       0       0       0       0       0       0       0       0       0
       0       0       0       0       0       0       0       0       0       0
       0       0       0       0       0       0       0       0       0       0
       0       0       0       0       0       0       0       0       0       0
       0       0       0       0       0       0       0       0       0       0
       0       0       0       0       0       0       0       0       0       0
       0       0       0       0       0       0       0       0       0       0
       0       0       0       0       0       0       0       0       0       0
       0       0       0       0       0       0       0       0       0       0
       0       0       0       0       0       0       0       0       0       0
       0       0       0       0       0       0       0       0       0       0
       0       0       0       0       0       0       0       0       0       0
       0       0       0       0       0       0       0       0       0       0
       0       0       0       0       0       0       0       0       0       0
       0       0       0       0       0       0       0       0       0       0
       0       0       0       0       0       0       0       0       0       0
       0       0       0       0       0       0       0       0       0       0
       0       0       0       0       0       0       0       0       0       0
       0       0       0       0       0       0       0       0       0       0
       0       0       0       0       0       0       0       0       0       0
       0       0       0       0       0       0       0       0       0       0
       0       0       0       0       0       0       0       0       0       0
       0       0       0       0       0       0       0       0       0       0
       0       0       0       0       0       0       0       0       0       0
       0       0       0       0       0       0       0       0       0       0
       0       0       0       0       0       0       0       0       0       0
       0       0       0       0       0       0       0       0       0       0
       0       0       0       0       0       0       0       0       0       0
       0       0       0       0       0       0       0       0       0       0
       0       0       0       0       0       0       0       0       0       0
       0       0       0       0       0       0       0       0       0       0
       0       0       0       0       0       0       0       0       0       0
       0       0       0       0       0       0       0       0       0       0
       0       0       0       0       0       0       0       0       0       0
       0       0       0       0       0       0       0       0       0       0
       0       0       0       0       0       0       0       0       0       0
       0       0       0       0       0       0       0       0       0       0
       0       0       0       0       0       0       0       0       0       0
       0       0       0       0       0       0       0       0       0       0
       0       0       0       0       0       0       0       0       0       0
       0       0       0       0       0       0       0       0       0       0
       0       0       0       0       0       0       0       0       0       0
       0       0       0       0       0       0       0       0       0       0
       0       0       0       0       0       0       0       0       0       0
       0       0       0       0       0       0       0       0       0       0
       0       0       0       0       0       0       0       0       0       0
       0       0       0       0       0       0       0       0       0       0
       0       0       0       0       0       0       0       0       0       0
       0       0       0       0       0       0       0       0       0       0
       0       0       0       0       0       0       0       0       0       0
       0       0       0       0       0       0       0       0       0       0
       0       0       0       0       0       0       0       0       0       0
       0       0       0       0       0       0       0       0       0       0
       0       0       0       0       0       0       0       0       0       0
       0       0       0       0       0       0       0       0       0       0
       0       0       0       0       0       0       0       0       0       0
       0       0       0       0       0       0       0       0       0       0
       0       0       0       0       0       0       0       0       0       0
       0       0       0       0       0       0       0       0       0       0
       0       0       0       0       0       0       0       0       0       0
       0       0       0       0       0       0       0       0       0       0
       0       0       0       0       0       0       0       0       0       0
       0       0       0       0       0       0       0       0       0       0
       0       0       0       0       0       0       0       0       0       0
       0       0       0       0       0       0       0       0       0       0
       0       0       0       0       0       0       0       0       0       0
       0       0       0       0       0       0       0       0       0       0
       0       0       0       0       0       0       0       0       0       0
       0       0       0       0       0       0       0       0       0       0
       0       0       0       0       0       0       0       0       0       0
       0       0       0       0       0       0       0       0       0       0
       0       0       0       0       0       0       0       0       0       0
       0       0       0       0       0       0       0       0       0       0
       0       0       0       0       0       0       0       0       0       0
       0       0       0       0       0       0       0       0       0       0
       0       0       0       0       0       0       0       0       0       0
       0       0       0       0       0       0       0       0       0       0
       0       0       0       0       0       0       0       0       0       0
       0       0       0       0       0       0       0       0       0       0
       0       0       0       0       0       0       0       0       0       0
       0       0       0       0       0       0       0       0       0       0
       0       0       0       0       0       0       0       0       0       0
       0       0       0       0       0       0       0       0       0       0
       0       0       0       0       0       0       0       0       0       0
       0       0       0       0       0       0       0       0       0       0
       0       0       0       0       0       0       0       0       0       0
       0       0       0       0       0       0       0       0       0       0
       0       0       0       0       0       0       0       0       0       0
       0       0       0       0       0       0       0       0       0       0
       0       0       0       0       0       0       0       0       0       0
       0       0       0       0       0       0       0       0       0       0
       0       0       0       0       0       0       0       0       0       0
       0       0       0       0       0       0       0       0       0       0
       0       0       0       0       0       0       0       0       0       0
       0       0       0       0       0       0       0       0       0       0
       0       0       0       0       0       0       0       0       0       0
       0       0       0       0       0       0       0       0       0       0
       0       0       0       0       0       0       0       0       0       0
       0       0       0       0       0       0       0       0       0       0
       0       0       0       0       0       0       0       0       0       0
       0       0       0       0       0       0       0       0       0       0
       0       0       0       0       0       0       0       0       0       0
       0       0       0       0       0       0       0       0       0       0
       0       0       0       0       0       0       0       0       0       0
       0       0       0       0       0       0       0       0       0       0
       0       0       0       0       0       0       0       0       0       0
       0       0       0       0       0       0       0       0       0       0
       0       0       0       0       0       0       0       0       0       0
       0       0       0       0       0       0       0       0       0       0
       0       0       0       0       0       0       0       0       0       0
       0       0       0       0       0       0       0       0       0       0
       0       0       0       0       0       0       0       0       0       0
       0       0       0       0       0       0       0       0       0       0
       0       0       0       0       0       0       0       0       0       0
       0       0       0       0       0       0       0       0       0       0
       0       0       0       0       0       0       0       0       0       0
       0       0       0       0       0       0       0       0       0       0
       0       0       0       0       0       0       0       0       0       0
       0       0       0       0       0       0       0       0       0       0
       0       0       0       0       0       0       0       0       0       0
       0       0       0       0       0       0       0       0       0       0
       0       0       0       0       0       0       0       0       0       0
       0       0       0       0       0       0       0       0       0       0
       0       0       0       0       0       0       0       0       0       0
       0       0       0       0       0       0       0       0       0       0
       0       0       0       0       0       0       0       0       0       0
       0       0       0       0       0       0       0       0       0       0
       0       0       0       0       0       0       0       0       0       0
       0       0       0       0       0       0       0       0       0       0
       0       0       0       0       0       0       0       0       0       0
       0       0       0       0       0       0       0       0       0       0
       0       0       0       0       0       0       0       0       0       0
       0       0       0       0       0       0       0       0       0       0
       0       0       0       0       0       0       0       0       0       0
       0       0       0       0       0       0       0       0       0       0
       0       0       0       0       0       0       0       0       0       0
       0       0       0       0       0       0       0       0       0       0
       0       0       0       0       0       0       0       0       0       0
       0       0       0       0       0       0       0       0       0       0
       0       0       0       0       0       0       0       0       0       0
       0       0       0       0       0       0       0       0       0       0
       0       0       0       0       0       0       0       0       0       0
       0       0       0       0       0       0       0       0       0       0
       0       0       0       0       0       0       0       0       0       0
       0       0       0       0       0       0       0       0       0       0
       0       0       0       0       0       0       0       0       0       0
       0       0       0       0       0       0       0       0       0       0
       0       0       0       0       0       0       0       0       0       0
       0       0       0       0       0       0       0       0       0       0
       0       0       0       0       0       0       0       0       0       0
       0       0       0       0       0       0       0       0       0       0
       0       0       0       0       0       0       0       0       0       0
       0       0       0       0       0       0       0       0       0       0
       0       0       0       0       0       0       0       0       0       0
       0       0       0       0       0       0       0       0       0       0
       0       0       0       0       0       0       0       0       0       0
       0       0       0       0       0       0       0       0       0       0
       0       0       0       0       0       0       0       0       0       0
       0       0       0       0       0       0       0       0       0       0
       0       0       0       0       0       0       0       0       0       0
       0       0       0       0       0       0       0       0       0       0
       0       0       0       0       0       0       0       0       0       0
       0       0       0       0       0       0       0       0       0       0
       0       0       0       0       0       0       0       0       0       0
       0       0       0       0       0       0       0       0       0       0
       0       0       0       0       0       0       0       0       0       0
       0       0       0       0       0       0       0       0       0       0
       0       0       0       0       0       0       0       0       0       0
       0       0       0       0       0       0       0       0       0       0
       0       0       0       0       0       0       0       0       0       0
       0       0       0       0       0       0       0       0       0       0
       0       0       0       0       0       0       0       0       0       0
       0       0       0       0       0       0       0       0       0       0
       0       0       0       0       0       0       0       0       0       0
       0       0       0       0       0       0       0       0       0       0
       0       0       0       0       0       0       0       0       0       0
       0       0       0       0       0       0       0       0       0       0
       0       0       0       0       0       0       0       0       0       0
       0       0       0       0       0       0       0       0       0       0
       0       0       0       0       0       0       0       0       0       0
       0       0       0       0       0       0       0       0       0       0
       0       0       0       0       0       0       0       0       0       0
       0       0       0       0       0       0       0       0       0       0
       0       0       0       0       0       0       0       0       0       0
       0       0       0       0       0       0       0       0       0       0
       0       0       0       0       0       0       0       0       0       0
       0       0       0       0       0       0       0       0       0       0
       0       0       0       0       0       0       0       0       0       0
       0       0       0       0       0       0       0       0       0       0
       0       0       0       0       0       0       0       0       0       0
       0       0       0       0       0       0       0       0       0       0
       0       0       0       0       0       0       0       0       0       0
       0       0       0       0       0       0       0       0       0       0
       0       0       0       0       0       0       0       0       0       0
       0       0       0       0       0       0       0       0       0       0
       0       0       0       0       0       0       0       0       0       0
       0       0       0       0       0       0       0       0       0       0
       0       0       0       0       0       0       0       0       0       0
       0       0       0       0       0       0       0       0       0       0
       0       0       0       0       0       0       0       0       0       0
       0       0       0       0       0       0       0       0       0       0
       0       0       0       0       0       0       0       0       0       0
       0       0       0       0       0       0       0       0       0       0
       0       0       0       0       0       0       0       0       0       0
       0       0       0       0       0       0       0       0       0       0
       0       0       0       0       0       0       0       0       0       0
       0       0       0       0       0       0       0       0       0       0
       0       0       0       0       0       0       0       0       0       0
       0       0       0       0       0       0       0       0       0       0
       0       0       0       0       0       0       0       0       0       0
       0       0       0       0       0       0       0       0       0       0
       0       0       0       0       0       0       0       0       0       0
       0       0       0       0       0       0       0       0       0       0
       0       0       0       0       0       0       0       0       0       0
       0       0       0       0       0       0       0       0       0       0
       0       0       0       0       0       0       0       0       0       0
       0       0       0       0       0       0       0       0       0       0
       0       0       0       0       0       0       0       0       0       0
       0       0       0       0       0       0       0       0       0       0
       0       0       0       0       0       0       0       0       0       0
       0       0       0       0       0       0       0       0       0       0
       0       0       0       0       0       0       0       0       0       0
       0       0       0       0       0       0       0       0       0       0
       0       0       0       0       0       0       0       0       0       0
       0       0       0       0       0       0       0       0       0       0
       0       0       0       0       0       0       0       0       0       0
       0       0       0       0       0       0       0       0       0       0
       0       0       0       0       0       0       0       0       0       0
       0       0       0       0       0       0       0       0       0       0
       0       0       0       0       0       0       0       0       0       0
       0       0       0       0       0       0       0       0       0       0
       0       0       0       0       0       0       0       0       0       0
       0       0       0       0       0       0       0       0       0       0
       0       0       0       0       0       0       0       0       0       0
       0       0       0       0       0       0       0       0       0       0
       0       0       0       0       0       0       0       0       0       0
       0       0       0       0       0       0       0       0       0       0
       0       0       0       0       0       0       0       0       0       0
       0       0       0       0       0       0       0       0       0       0
       0       0       0       0       0       0       0       0       0       0
       0       0       0       0       0       0       0       0       0       0
       0       0       0       0       0       0       0       0       0       0
       0       0       0       0       0       0       0       0       0       0
       0       0       0       0       0       0       0       0       0       0
       0       0       0       0       0       0       0       0       0       0
       0       0       0       0       0       0       0       0       0       0
       0       0       0       0       0       0       0       0       0       0
       0       0       0       0       0       0       0       0       0       0
       0       0       0       0       0       0       0       0       0       0
       0       0       0       0       0       0       0       0       0       0
       0       0       0       0       0       0       0       0       0       0
       0       0       0       0       0       0       0       0       0       0
       0       0       0       0       0       0       0       0       0       0
       0       0       0       0       0       0       0       0       0       0
       0       0       0       0       0       0       0       0       0       0
       0       0       0       0       0       0       0       0       0       0
       0       0       0       0       0       0       0       0       0       0
       0       0       0       0       0       0       0       0       0       0
       0       0       0       0       0       0       0       0       0       0
       0       0       0       0       0       0       0       0       0       0
       0       0       0       0       0       0       0       0       0       0
       0       0       0       0       0       0       0       0       0       0
       0       0       0       0       0       0       0       0       0       0
       0       0       0       0       0       0       0       0       0       0
       0       0       0       0       0       0       0       0       0       0
       0       0       0       0       0       0       0       0       0       0
       0       0       0       0       0       0       0       0       0       0
       0       0       0       0       0       0       0       0       0       0
       0       0       0       0       0       0       0       0       0       0
       0       0       0       0       0       0       0       0       0       0
       0       0       0       0       0       0       0       0       0       0
       0       0       0       0       0       0       0       0       0       0
       0       0       0       0       0       0       0       0       0       0
       0       0       0       0       0       0       0       0       0       0
       0       0       0       0       0       0       0       0       0       0
       0       0       0       0       0       0       0       0       0       0
       0       0       0       0       0       0       0       0       0       0
       0       0       0       0       0       0       0       0       0       0
       0       0       0       0       0       0       0       0       0       0
       0       0       0       0       0       0       0       0       0       0
       0       0       0       0       0       0       0       0       0       0
       0       0       0       0       0       0       0       0       0       0
       0       0       0       0       0       0       0       0       0       0
       0       0       0       0       0       0       0       0       0       0
       0       0       0       0       0       0       0       0       0       0
       0       0       0       0       0       0       0       0       0       0
       0       0       0       0       0       0       0       0       0       0
       0       0       0       0       0       0       0       0       0       0
       0       0       0       0       0       0       0       0       0       0
       0       0       0       0       0       0       0       0       0       0
       0       0       0       0       0       0       0       0       0       0
       0       0       0       0       0       0       0       0       0       0
       0       0       0       0       0       0       0       0       0       0
       0       0       0       0       0       0       0       0       0       0
       0       0       0       0       0       0       0       0       0       0
       0       0       0       0       0       0       0       0       0       0
       0       0       0       0       0       0       0       0       0       0
       0       0       0       0       0       0       0       0       0       0
       0       0       0       0       0       0       0       0       0       0
       0       0       0       0       0       0       0       0       0       0
       0       0       0       0       0       0       0       0       0       0
       0       0       0       0       0       0       0       0       0       0
       0       0       0       0       0       0       0       0       0       0
       0       0       0       0       0       0       0       0       0       0
       0       0       0       0       0       0       0       0       0       0
       0       0       0       0       0       0       0       0       0       0
       0       0       0       0       0       0       0       0       0       0
       0       0       0       0       0       0       0       0       0       0
       0       0       0       0       0       0       0       0       0       0
       0       0       0       0       0       0       0       0       0       0
       0       0       0       0       0       0       0       0       0       0
       0       0       0       0       0       0       0       0       0       0
       0       0       0       0       0       0       0       0       0       0
       0       0       0       0       0       0       0       0       0       0
       0       0       0       0       0       0       0       0       0       0
       0       0       0       0       0       0       0       0       0       0
       0       0       0       0       0       0       0       0       0       0
       0       0       0       0       0       0       0       0       0       0
       0       0       0       0       0       0       0       0       0       0
       0       0       0       0       0       0       0       0       0       0
       0       0       0       0       0       0       0       0       0       0
       0       0       0       0       0       0       0       0       0       0
       0       0       0       0       0       0       0       0       0       0
       0       0       0       0       0       0       0       0       0       0
       0       0       0       0       0       0       0       0       0       0
       0       0       0       0       0       0       0       0       0       0
       0       0       0       0       0       0       0       0       0       0
       0       0       0       0       0       0       0       0       0       0
       0       0       0       0       0       0       0       0       0       0
       0       0       0       0       0       0       0       0       0       0
       0       0       0       0       0       0       0       0       0       0
       0       0       0       0       0       0       0       0       0       0
       0       0       0       0       0       0       0       0       0       0
       0       0       0       0       0       0       0       0       0       0
       0       0       0       0       0       0       0       0       0       0
       0       0       0       0       0       0       0       0       0       0
       0       0       0       0       0       0       0       0       0       0
       0       0       0       0       0       0       0       0       0       0
       0       0       0       0       0       0       0       0       0       0
       0       0       0       0       0       0       0       0       0       0
       0       0       0       0       0       0       0       0       0       0
       0       0       0       0       0       0       0       0       0       0
       0       0       0       0       0       0       0       0       0       0
       0       0       0       0       0       0       0       0       0       0
       0       0       0       0       0       0       0       0       0       0
       0       0       0       0       0       0       0       0       0       0
       0       0       0       0       0       0       0       0       0       0
       0       0       0       0       0       0       0       0       0       0
       0       0       0       0       0       0       0       0       0       0
       0       0       0       0       0       0       0       0       0       0
       0       0       0       0       0       0       0       0       0       0
       0       0       0       0       0       0       0       0       0       0
       0       0       0       0       0       0       0       0       0       0
       0       0       0       0       0       0       0       0       0       0
       0       0       0       0       0       0       0       0       0       0
       0       0       0       0       0       0       0       0       0       0
       0       0       0       0       0       0       0       0       0       0
       0       0       0       0       0       0       0       0       0       0
       0       0       0       0       0       0       0       0       0       0
       0       0       0       0       0       0       0       0       0       0
       0       0       0       0       0       0       0       0       0       0
       0       0       0       0       0       0       0       0       0       0
       0       0       0       0       0       0       0       0       0       0
       0       0       0       0       0       0       0       0       0       0
       0       0       0       0       0       0       0       0       0       0
       0       0       0       0       0       0       0       0       0       0
       0       0       0       0       0       0       0       0       0       0
       0       0       0       0       0       0       0       0       0       0
       0       0       0       0       0       0       0       0       0       0
       0       0       0       0       0       0       0       0       0       0
       0       0       0       0       0       0       0       0       0       0
       0       0       0       0       0       0       0       0       0       0
       0       0       0       0       0       0       0       0       0       0
       0       0       0       0       0       0       0       0       0       0
       0       0       0       0       0       0       0       0       0       0
       0       0       0       0       0       0       0       0       0       0
       0       0       0       0       0       0       0       0       0       0
       0       0       0       0       0       0       0       0       0       0
       0       0       0       0       0       0       0       0       0       0
       0       0       0       0       0       0       0       0       0       0
       0       0       0       0       0       0       0       0       0       0
       0       0       0       0       0       0       0       0       0       0
       0       0       0       0       0       0       0       0       0       0
       0       0       0       0       0       0       0       0       0       0
       0       0       0       0       0       0       0       0       0       0
       0       0       0       0       0       0       0       0       0       0
       0       0       0       0       0       0       0       0       0       0
       0       0       0       0       0       0       0       0       0       0
       0       0       0       0       0       0       0       0       0       0
       0       0       0       0       0       0       0       0       0       0
       0       0       0       0       0       0       0       0       0       0
       0       0       0       0       0       0       0       0       0       0
       0       0       0       0       0       0       0       0       0       0
       0       0       0       0       0       0       0       0       0       0
       0       0       0       0       0       0       0       0       0       0
       0       0       0       0       0       0       0       0       0       0
       0       0       0       0       0       0       0       0       0       0
       0       0       0       0       0       0       0       0       0       0
       0       0       0       0       0       0       0       0       0       0
       0       0       0       0       0       0       0       0       0       0
       0       0       0       0       0       0       0       0       0       0
       0       0       0       0       0       0       0       0       0       0
       0       0       0       0       0       0       0       0       0       0
       0       0       0       0       0       0       0       0       0       0
       0       0       0       0       0       0       0       0       0       0
       0       0       0       0       0       0       0       0       0       0
       0       0       0       0       0       0       0       0       0       0
       0       0       0       0       0       0       0       0       0       0
       0       0       0       0       0       0       0       0       0       0
       0       0       0       0       0       0       0       0       0       0
       0       0       0       0       0       0       0       0       0       0
       0       0       0       0       0       0       0       0       0       0
       0       0       0       0       0       0       0       0       0       0
       0       0       0       0       0       0       0       0       0       0
       0       0       0       0       0       0       0       0       0       0
       0       0       0       0       0       0       0       0       0       0
       0       0       0       0       0       0       0       0       0       0
       0       0       0       0       0       0       0       0       0       0
       0       0       0       0       0       0       0       0       0       0
       0       0       0       0       0       0       0       0       0       0
       0       0       0       0       0       0       0       0       0       0
       0       0       0       0       0       0       0       0       0       0
       0       0       0       0       0       0       0       0       0       0
       0       0       0       0       0       0       0       0       0       0
       0       0       0       0       0       0       0       0       0       0
       0       0       0       0       0       0       0       0       0       0
       0       0       0       0       0       0       0       0       0       0
       0       0       0       0       0       0       0       0       0       0
       0       0       0       0       0       0       0       0       0       0
       0       0       0       0       0       0       0       0       0       0
       0       0       0       0       0       0       0       0       0       0
       0       0       0       0       0       0       0       0       0       0
       0       0       0       0       0       0       0       0       0       0
       0       0       0       0       0       0       0       0       0       0
       0       0       0       0       0       0       0       0       0       0
       0       0       0       0       0       0       0       0       0       0
       0       0       0       0       0       0       0       0       0       0
       0       0       0       0       0       0       0       0       0       0
       0       0       0       0       0       0       0       0       0       0
       0       0       0       0       0       0       0       0       0       0
       0       0       0       0       0       0       0       0       0       0
       0       0       0       0       0       0       0       0       0       0
       0       0       0       0       0       0       0       0       0       0
       0       0       0       0       0       0       0       0       0       0
       0       0       0       0       0       0       0       0       0       0
       0       0       0       0       0       0       0       0       0       0
       0       0       0       0       0       0       0       0       0       0
       0       0       0       0       0       0       0       0       0       0
       0       0       0       0       0       0       0       0       0       0
       0       0       0       0       0       0       0       0       0       0
       0       0       0       0       0       0       0       0       0       0
       0       0       0       0       0       0       0       0       0       0
       0       0       0       0       0       0       0       0       0       0
       0       0       0       0       0       0       0       0       0       0
       0       0       0       0       0       0       0       0       0       0
       0       0       0       0       0       0       0       0       0       0
       0       0       0       0       0       0       0       0       0       0
       0       0       0       0       0       0       0       0       0       0
       0       0       0       0       0       0       0       0       0       0
       0       0       0       0       0       0       0       0       0       0
       0       0       0       0       0       0       0       0       0       0
       0       0       0       0       0       0       0       0       0       0
       0       0       0       0       0       0       0       0       0       0
       0       0       0       0       0       0       0       0       0       0
       0       0       0       0       0       0       0       0       0       0
       0       0       0       0       0       0       0       0       0       0
       0       0       0       0       0       0       0       0       0       0
       0       0       0       0       0       0       0       0       0       0
       0       0       0       0       0       0       0       0       0       0
       0       0       0       0       0       0       0       0       0       0
       0       0       0       0       0       0       0       0       0       0
       0       0       0       0       0       0       0       0       0       0
       0       0       0       0       0       0       0       0       0       0
       0       0       0       0       0       0       0       0       0       0
       0       0       0       0       0       0       0       0       0       0
       0       0       0       0       0       0       0       0       0       0
       0       0       0       0       0       0       0       0       0       0
       0       0       0       0       0       0       0       0       0       0
       0       0       0       0       0       0       0       0       0       0
       0       0       0       0       0       0       0       0       0       0
       0       0       0       0       0       0       0       0       0       0
       0       0       0       0       0       0       0       0       0       0
       0       0       0       0       0       0       0       0       0       0
       0       0       0       0       0       0       0       0       0       0
       0       0       0       0       0       0       0       0       0       0
       0       0       0       0       0       0       0       0       0       0
       0       0       0       0       0       0       0       0       0       0
       0       0       0       0       0       0       0       0       0       0
       0       0       0       0       0       0       0       0       0       0
       0       0       0       0       0       0       0       0       0       0
       0       0       0       0       0       0       0       0       0       0
       0       0       0       0       0       0       0       0       0       0
       0       0       0       0       0       0       0       0       0       0
       0       0       0       0       0       0       0       0       0       0
       0       0       0       0       0       0       0       0       0       0
       0       0       0       0       0       0       0       0       0       0
       0       0       0       0       0       0       0       0       0       0
       0       0       0       0       0       0       0       0       0       0
       0       0       0       0       0       0       0       0       0       0
       0       0       0       0       0       0       0       0       0       0
       0       0       0       0       0       0       0       0       0       0
       0       0       0       0       0       0       0       0       0       0
       0       0       0       0       0       0       0       0       0       0
       0       0       0       0       0       0       0       0       0       0
       0       0       0       0       0       0       0       0       0       0
       0       0       0       0       0       0       0       0       0       0
       0       0       0       0       0       0       0       0       0       0
       0       0       0       0       0       0       0       0       0       0
       0       0       0       0       0       0       0       0       0       0
       0       0       0       0       0       0       0       0       0       0
       0       0       0       0       0       0       0       0       0       0
       0       0       0       0       0       0       0       0       0       0
       0       0       0       0       0       0       0       0       0       0
       0       0       0       0       0       0       0       0       0       0
       0       0       0       0       0       0       0       0       0       0
       0       0       0       0       0       0       0       0       0       0
       0       0       0       0       0       0       0       0       0       0
       0       0       0       0       0       0       0       0       0       0
       0       0       0       0       0       0       0       0       0       0
       0       0       0       0       0       0       0       0       0       0
       0       0       0       0       0       0       0       0       0       0
       0       0       0       0       0       0       0       0       0       0
       0       0       0       0       0       0       0       0       0       0
       0       0       0       0       0       0       0       0       0       0
       0       0       0       0       0       0       0       0       0       0
       0       0       0       0       0       0       0       0       0       0
       0       0       0       0       0       0       0       0       0       0
       0       0       0       0       0       0       0       0       0       0
       0       0       0       0       0       0       0       0       0       0
       0       0       0       0       0       0       0       0       0       0
       0       0       0       0       0       0       0       0       0       0
       0       0       0       0       0       0       0       0       0       0
       0       0       0       0       0       0       0       0       0       0
       0       0       0       0       0       0       0       0       0       0
       0       0       0       0       0       0       0       0       0       0
       0       0       0       0       0       0       0       0       0       0
       0       0       0       0       0       0       0       0       0       0
       0       0       0       0       0       0       0       0       0       0
       0       0       0       0       0       0       0       0       0       0
       0       0       0       0       0       0       0       0       0       0
       0       0       0       0       0       0       0       0       0       0
       0       0       0       0       0       0       0       0       0       0
       0       0       0       0       0       0       0       0       0       0
       0       0       0       0       0       0       0       0       0       0
       0       0       0       0       0       0       0       0       0       0
       0       0       0       0       0       0       0       0       0       0
       0       0       0       0       0       0       0       0       0       0
       0       0       0       0       0       0       0       0       0       0
       0       0       0       0       0       0       0       0       0       0
       0       0       0       0       0       0       0       0       0       0
       0       0       0       0       0       0       0       0       0       0
       0       0       0       0       0       0       0       0       0       0
       0       0       0       0       0       0       0       0       0       0
       0       0       0       0       0       0       0       0       0       0
       0       0       0       0       0       0       0       0       0       0
       0       0       0       0       0       0       0       0       0       0
       0       0       0       0       0       0       0       0       0       0
       0       0       0       0       0       0       0       0       0       0
       0       0       0       0       0       0       0       0       0       0
       0       0       0       0       0       0       0       0       0       0
       0       0       0       0       0       0       0       0       0       0
       0       0       0       0       0       0       0       0       0       0
       0       0       0       0       0       0       0       0       0       0
       0       0       0       0       0       0       0       0       0       0
       0       0       0       0       0       0       0       0       0       0
       0       0       0       0       0       0       0       0       0       0
       0       0       0       0       0       0       0       0       0       0
       0       0       0       0       0       0       0       0       0       0
       0       0       0       0       0       0       0       0       0       0
       0       0       0       0       0       0       0       0       0       0
       0       0       0       0       0       0       0       0       0       0
       0       0       0       0       0       0       0       0       0       0
       0       0       0       0       0       0       0       0       0       0
       0       0       0       0       0       0       0       0       0       0
       0       0       0       0       0       0       0       0       0       0
       0       0       0       0       0       0       0       0       0       0
       0       0       0       0       0       0       0       0       0       0
       0       0       0       0       0       0       0       0       0       0
       0       0       0       0       0       0       0       0       0       0
       0       0       0       0       0       0       0       0       0       0
       0       0       0       0       0       0       0       0       0       0
       0       0       0       0       0       0       0       0       0       0
       0       0       0       0       0       0       0       0       0       0
       0       0       0       0       0       0       0       0       0       0
       0       0       0       0       0       0       0       0       0       0
       0       0       0       0       0       0       0       0       0       0
       0       0       0       0       0       0       0       0       0       0
       0       0       0       0       0       0       0       0       0       0
       0       0       0       0       0       0       0       0       0       0
       0       0       0       0       0       0       0       0       0       0
       0       0       0       0       0       0       0       0       0       0
       0       0       0       0       0       0       0       0       0       0
       0       0       0       0       0       0       0       0       0       0
       0       0       0       0       0       0       0       0       0       0
       0       0       0       0       0       0       0       0       0       0
       0       0       0       0       0       0       0       0       0       0
       0       0       0       0       0       0       0       0       0       0
       0       0       0       0       0       0       0       0       0       0
       0       0       0       0       0       0       0       0       0       0
       0       0       0       0       0       0       0       0       0       0
       0       0       0       0       0       0       0       0       0       0
       0       0       0       0       0       0       0       0       0       0
       0       0       0       0       0       0       0       0       0       0
       0       0       0       0       0       0       0       0       0       0
       0       0       0       0       0       0       0       0       0       0
       0       0       0       0       0       0       0       0       0       0
       0       0       0       0       0       0       0       0       0       0
       0       0       0       0       0       0       0       0       0       0
       0       0       0       0       0       0       0       0       0       0
       0       0       0       0       0       0       0       0       0       0
       0       0       0       0       0       0       0       0       0       0
       0       0       0       0       0       0       0       0       0       0
       0       0       0       0       0       0       0       0       0       0
       0       0       0       0       0       0       0       0       0       0
       0       0       0       0       0       0       0       0       0       0
       0       0       0       0       0       0       0       0       0       0
       0       0       0       0       0       0       0       0       0       0
       0       0       0       0       0       0       0       0       0       0
       0       0       0       0       0       0       0       0       0       0
       0       0       0       0       0       0       0       0       0       0
       0       0       0       0       0       0       0       0       0       0
       0       0       0       0       0       0       0       0       0       0
       0       0       0       0       0       0       0       0       0       0
       0       0       0       0       0       0       0       0       0       0
       0       0       0       0       0       0       0       0       0       0
       0       0       0       0       0       0       0       0       0       0
       0       0       0       0       0       0       0       0       0       0
       0       0       0       0       0       0       0       0       0       0
       0       0       0       0       0       0       0       0       0       0
       0       0       0       0       0       0       0       0       0       0
       0       0       0       0       0       0       0       0       0       0
       0       0       0       0       0       0       0       0       0       0
       0       0       0       0       0       0       0       0       0       0
       0       0       0       0       0       0       0       0       0       0
       0       0       0       0       0       0       0       0       0       0
       0       0       0       0       0       0       0       0       0       0
       0       0       0       0       0       0       0       0       0       0
       0       0       0       0       0       0       0       0       0       0
       0       0       0       0       0       0       0       0       0       0
       0       0       0       0       0       0       0       0       0       0
       0       0       0       0       0       0       0       0       0       0
       0       0       0       0       0       0       0       0       0       0
       0       0       0       0       0       0       0       0       0       0
       0       0       0       0       0       0       0       0       0       0
       0       0       0       0       0       0       0       0       0       0
       0       0       0       0       0       0       0       0       0       0
       0       0       0       0       0       0       0       0       0       0
       0       0       0       0       0       0       0       0       0       0
       0       0       0       0       0       0       0       0       0       0
       0       0       0       0       0       0       0       0       0       0
       0       0       0       0       0       0       0       0       0       0
       0       0       0       0       0       0       0       0       0       0
       0       0       0       0       0       0       0       0       0       0
       0       0       0       0       0       0       0       0       0       0
       0       0       0       0       0       0       0       0       0       0
       0       0       0       0       0       0       0       0       0       0
       0       0       0       0       0       0       0       0       0       0
       0       0       0       0       0       0       0       0       0       0
       0       0       0       0       0       0       0       0       0       0
       0       0       0       0       0       0       0       0       0       0
       0       0       0       0       0       0       0       0       0       0
       0       0       0       0       0       0       0       0       0       0
       0       0       0       0       0       0       0       0       0       0
       0       0       0       0       0       0       0       0       0       0
       0       0       0       0       0       0       0       0       0       0
       0       0       0       0       0       0       0       0       0       0
       0       0       0       0       0       0       0       0       0       0
       0       0       0       0       0       0       0       0       0       0
       0       0       0       0       0       0       0       0       0       0
       0       0       0       0       0       0       0       0       0       0
       0       0       0       0       0       0       0       0       0       0
       0       0       0       0       0       0       0       0       0       0
       0       0       0       0       0       0       0       0       0       0
       0       0       0       0       0       0       0       0       0       0
       0       0       0       0       0       0       0       0       0       0
       0       0       0       0       0       0       0       0       0       0
       0       0       0       0       0       0       0       0       0       0
       0       0       0       0       0       0       0       0       0       0
       0       0       0       0       0       0       0       0       0       0
       0       0       0       0       0       0       0       0       0       0
       0       0       0       0       0       0       0       0       0       0
       0       0       0       0       0       0       0       0       0       0
       0       0       0       0       0       0       0       0       0       0
       0       0       0       0       0       0       0       0       0       0
       0       0       0       0       0       0       0       0       0       0
       0       0       0       0       0       0       0       0       0       0
       0       0       0       0       0       0       0       0       0       0
       0       0       0       0       0       0       0       0       0       0
       0       0       0       0       0       0       0       0       0       0
       0       0       0       0       0       0       0       0       0       0
       0       0       0       0       0       0       0       0       0       0
       0       0       0       0       0       0       0       0       0       0
       0       0       0       0       0       0       0       0       0       0
       0       0       0       0       0       0       0       0       0       0
       0       0       0       0       0       0       0       0       0       0
       0       0       0       0       0       0       0       0       0       0
       0       0       0       0       0       0       0       0       0       0
       0       0       0       0       0       0       0       0       0       0
       0       0       0       0       0       0       0       0       0       0
       0       0       0       0       0       0       0       0       0       0
       0       0       0       0       0       0       0       0       0       0
       0       0       0       0       0       0       0       0       0       0
       0       0       0       0       0       0       0       0       0       0
       0       0       0       0       0       0       0       0       0       0
       0       0       0       0       0       0       0       0       0       0
       0       0       0       0       0       0       0       0       0       0
       0       0       0       0       0       0       0       0       0       0
       0       0       0       0       0       0       0       0       0       0
       0       0       0       0       0       0       0       0       0       0
       0       0       0       0       0       0       0       0       0       0
       0       0       0       0       0       0       0       0       0       0
       0       0       0       0       0       0       0       0       0       0
       0       0       0       0       0       0       0       0       0       0
       0       0       0       0       0       0       0       0       0       0
       0       0       0       0       0       0       0       0       0       0
       0       0       0       0       0       0       0       0       0       0
       0       0       0       0       0       0       0       0       0       0
       0       0       0       0       0       0       0       0       0       0
       0       0       0       0       0       0       0       0       0       0
       0       0       0       0       0       0       0       0       0       0
       0       0       0       0       0       0       0       0       0       0
       0       0       0       0       0       0       0       0       0       0
       0       0       0       0       0       0       0       0       0       0
       0       0       0       0       0       0       0       0       0       0
       0       0       0       0       0       0       0       0       0       0
       0       0       0       0       0       0       0       0       0       0
       0       0       0       0       0       0       0       0       0       0
       0       0       0       0       0       0       0       0       0       0
       0       0       0       0       0       0       0       0       0       0
       0       0       0       0       0       0       0       0       0       0
       0       0       0       0       0       0       0       0       0       0
       0       0       0       0       0       0       0       0       0       0
       0       0       0       0       0       0       0       0       0       0
       0       0       0       0       0       0       0       0       0       0
       0       0       0       0       0       0       0       0       0       0
       0       0       0       0       0       0       0       0       0       0
       0       0       0       0       0       0       0       0       0       0
       0       0       0       0       0       0       0       0       0       0
       0       0       0       0       0       0       0       0       0       0
       0       0       0       0       0       0       0       0       0       0
       0       0       0       0       0       0       0       0       0       0
       0       0       0       0       0       0       0       0       0       0
       0       0       0       0       0       0       0       0       0       0
       0       0       0       0       0       0       0       0       0       0
       0       0       0       0       0       0       0       0       0       0
       0       0       0       0       0       0       0       0       0       0
       0       0       0       0       0       0       0       0       0       0
       0       0       0       0       0       0       0       0       0       0
       0       0       0       0       0       0       0       0       0       0
       0       0       0       0       0       0       0       0       0       0
       0       0       0       0       0       0       0       0       0       0
       0       0       0       0       0       0       0       0       0       0
       0       0       0       0       0       0       0       0       0       0
       0       0       0       0       0       0       0       0       0       0
       0       0       0       0       0       0       0       0       0       0
       0       0       0       0       0       0       0       0       0       0
       0       0       0       0       0       0       0       0       0       0
       0       0       0       0       0       0       0       0       0       0
       0       0       0       0       0       0       0       0       0       0
       0       0       0       0       0       0       0       0       0       0
       0       0       0       0       0       0       0       0       0       0
       0       0       0       0       0       0       0       0       0       0
       0       0       0       0       0       0       0       0       0       0
       0       0       0       0       0       0       0       0       0       0
       0       0       0       0       0       0       0       0       0       0
       0       0       0       0       0       0       0       0       0       0
       0       0       0       0       0       0       0       0       0       0
       0       0       0       0       0       0       0       0       0       0
       0       0       0       0       0       0       0       0       0       0
       0       0       0       0       0       0       0       0       0       0
       0       0       0       0       0       0       0       0       0       0
       0       0       0       0       0       0       0       0       0       0
       0       0       0       0       0       0       0       0       0       0
       0       0       0       0       0       0       0       0       0       0
       0       0       0       0       0       0       0       0       0       0
       0       0       0       0       0       0       0       0       0       0
       0       0       0       0       0       0       0       0       0       0
       0       0       0       0       0       0       0       0       0       0
       0       0       0       0       0       0       0       0       0       0
       0       0       0       0       0       0       0       0       0       0
       0       0       0       0       0       0       0       0       0       0
       0       0       0       0       0       0       0       0       0       0
       0       0       0       0       0       0       0       0       0       0
       0       0       0       0       0       0       0       0       0       0
       0       0       0       0       0       0       0       0       0       0
       0       0       0       0       0       0       0       0       0       0
       0       0       0       0       0       0       0       0       0       0
       0       0       0       0       0       0       0       0       0       0
       0       0       0       0       0       0       0       0       0       0
       0       0       0       0       0       0       0       0       0       0
       0       0       0       0       0       0       0       0       0       0
       0       0       0       0       0       0       0       0       0       0
       0       0       0       0       0       0       0       0       0       0
       0       0       0       0       0       0       0       0       0       0
       0       0       0       0       0       0       0       0       0       0
       0       0       0       0       0       0       0       0       0       0
       0       0       0       0       0       0       0       0       0       0
       0       0       0       0       0       0       0       0       0       0
       0       0       0       0       0       0       0       0       0       0
       0       0       0       0       0       0       0       0       0       0
       0       0       0       0       0       0       0       0       0       0
       0       0       0       0       0       0       0       0       0       0
       0       0       0       0       0       0       0       0       0       0
       0       0       0       0       0       0       0       0       0       0
       0       0       0       0       0       0       0       0       0       0
       0       0       0       0       0       0       0       0       0       0
       0       0       0       0       0       0       0       0       0       0
       0       0       0       0       0       0       0       0       0       0
       0       0       0       0       0       0       0       0       0       0
       0       0       0       0       0       0       0       0       0       0
       0       0       0       0       0       0       0       0       0       0
       0       0       0       0       0       0       0       0       0       0
       0       0       0       0       0       0       0       0       0       0
       0       0       0       0       0       0       0       0       0       0
       0       0       0       0       0       0       0       0       0       0
       0       0       0       0       0       0       0       0       0       0
       0       0       0       0       0       0       0       0       0       0
       0       0       0       0       0       0       0       0       0       0
       0       0       0       0       0       0       0       0       0       0
       0       0       0       0       0       0       0       0       0       0
       0       0       0       0       0       0       0       0       0       0
       0       0       0       0       0       0       0       0       0       0
       0       0       0       0       0       0       0       0       0       0
       0       0       0       0       0       0       0       0       0       0
       0       0       0       0       0       0       0       0       0       0
       0       0       0       0       0       0       0       0       0       0
       0       0       0       0       0       0       0       0       0       0
       0       0       0       0       0       0       0       0       0       0
       0       0       0       0       0       0       0       0       0       0
       0       0       0       0       0       0       0       0       0       0
       0       0       0       0       0       0       0       0       0       0
       0       0       0       0       0       0       0       0       0       0
       0       0       0       0       0       0       0       0       0       0
       0       0       0       0       0       0       0       0       0       0
       0       0       0       0       0       0       0       0       0       0
       0       0       0       0       0       0       0       0       0       0
       0       0       0       0       0       0       0       0       0       0
       0       0       0       0       0       0       0       0       0       0
       0       0       0       0       0       0       0       0       0       0
       0       0       0       0       0       0       0       0       0       0
       0       0       0       0       0       0       0       0       0       0
       0       0       0       0       0       0       0       0       0       0
       0       0       0       0       0       0       0       0       0       0
       0       0       0       0       0       0       0       0       0       0
       0       0       0       0       0       0       0       0       0       0
       0       0       0       0       0       0       0       0       0       0
       0       0       0       0       0       0       0       0       0       0
       0       0       0       0       0       0       0       0       0       0
       0       0       0       0       0       0       0       0       0       0
       0       0       0       0       0       0       0       0       0       0
       0       0       0       0       0       0       0       0       0       0
       0       0       0       0       0       0       0       0       0       0
       0       0       0       0       0       0       0       0       0       0
       0       0       0       0       0       0       0       0       0       0
       0       0       0       0       0       0       0       0       0       0
       0       0       0       0       0       0       0       0       0       0
       0       0       0       0       0       0       0       0       0       0
       0       0       0       0       0       0       0       0       0       0
       0       0       0       0       0       0       0       0       0       0
       0       0       0       0       0       0       0       0       0       0
       0       0       0       0       0       0       0       0       0       0
       0       0       0       0       0       0       0       0       0       0
       0       0       0       0       0       0       0       0       0       0
       0       0       0       0       0       0       0       0       0       0
       0       0       0       0       0       0       0       0       0       0
       0       0       0       0       0       0       0       0       0       0
       0       0       0       0       0       0       0       0       0       0
       0       0       0       0       0       0       0       0       0       0
       0       0       0       0       0       0       0       0       0       0
       0       0       0       0       0       0       0       0       0       0
       0       0       0       0       0       0       0       0       0       0
       0       0       0       0       0       0       0       0       0       0
       0       0       0       0       0       0       0       0       0       0
       0       0       0       0       0       0       0       0       0       0
       0       0       0       0       0       0       0       0       0       0
       0       0       0       0       0       0       0       0       0       0
       0       0       0       0       0       0       0       0       0       0
       0       0       0       0       0       0       0       0       0       0
       0       0       0       0       0       0       0       0       0       0
       0       0       0       0       0       0       0       0       0       0
       0       0       0       0       0       0       0       0       0       0
       0       0       0       0       0       0       0       0       0       0
       0       0       0       0       0       0       0       0       0       0
       0       0       0       0       0       0       0       0       0       0
       0       0       0       0       0       0       0       0       0       0
       0       0       0       0       0       0       0       0       0       0
       0       0       0       0       0       0       0       0       0       0
       0       0       0       0       0       0       0       0       0       0
       0       0       0       0       0       0       0       0       0       0
       0       0       0       0       0       0       0       0       0       0
       0       0       0       0       0       0       0       0       0       0
       0       0       0       0       0       0       0       0       0       0
       0       0       0       0       0       0       0       0       0       0
       0       0       0       0       0       0       0       0       0       0
       0       0       0       0       0       0       0       0       0       0
       0       0       0       0       0       0       0       0       0       0
       0       0       0       0       0       0       0       0       0       0
       0       0       0       0       0       0       0       0       0       0
       0       0       0       0       0       0       0       0       0       0
       0       0       0       0       0       0       0       0       0       0
       0       0       0       0       0       0       0       0       0       0
       0       0       0       0       0       0       0       0       0       0
       0       0       0       0       0       0       0       0       0       0
       0       0       0       0       0       0       0       0       0       0
       0       0       0       0       0       0       0       0       0       0
       0       0       0       0       0       0       0       0       0       0
       0       0       0       0       0       0       0       0       0       0
       0       0       0       0       0       0       0       0       0       0
       0       0       0       0       0       0       0       0       0       0
       0       0       0       0       0       0       0       0       0       0
       0       0       0       0       0       0       0       0       0       0
       0       0       0       0       0       0       0       0       0       0
       0       0       0       0       0       0       0       0       0       0
       0       0       0       0       0       0       0       0       0       0
       0       0       0       0       0       0       0       0       0       0
       0       0       0       0       0       0       0       0       0       0
       0       0       0       0       0       0       0       0       0       0
       0       0       0       0       0       0       0       0       0       0
       0       0       0       0       0       0       0       0       0       0
       0       0       0       0       0       0       0       0       0       0
       0       0       0       0       0       0       0       0       0       0
       0       0       0       0       0       0       0       0       0       0
       0       0       0       0       0       0       0       0       0       0
       0       0       0       0       0       0       0       0       0       0
       0       0       0       0       0       0       0       0       0       0
       0       0       0       0       0       0       0       0       0       0
       0       0       0       0       0       0       0       0       0       0
       0       0       0       0       0       0       0       0       0       0
       0       0       0       0       0       0       0       0       0       0
       0       0       0       0       0       0       0       0       0       0
       0       0       0       0       0       0       0       0       0       0
       0       0       0       0       0       0       0       0       0       0
       0       0       0       0       0       0       0       0       0       0
       0       0       0       0       0       0       0       0       0       0
       0       0       0       0       0       0       0       0       0       0
       0       0       0       0       0       0       0       0       0       0
       0       0       0       0       0       0       0       0       0       0
       0       0       0       0       0       0       0       0       0       0
       0       0       0       0       0       0       0       0       0       0
       0       0       0       0       0       0       0       0       0       0
       0       0       0       0       0       0       0       0       0       0
       0       0       0       0       0       0       0       0       0       0
       0       0       0       0       0       0       0       0       0       0
       0       0       0       0       0       0       0       0       0       0
       0       0       0       0       0       0       0       0       0       0
       0       0       0       0       0       0       0       0       0       0
       0       0       0       0       0       0       0       0       0       0
       0       0       0       0       0       0       0       0       0       0
       0       0       0       0       0       0       0       0       0       0
       0       0       0       0       0       0       0       0       0       0
       0       0       0       0       0       0       0       0       0       0
       0       0       0       0       0       0       0       0       0       0
       0       0       0       0       0       0       0       0       0       0
       0       0       0       0       0       0       0       0       0       0
       0       0       0       0       0       0       0       0       0       0
       0       0       0       0       0       0       0       0       0       0
       0       0       0       0       0       0       0       0       0       0
       0       0       0       0       0       0       0       0       0       0
       0       0       0       0       0       0       0       0       0       0
       0       0       0       0       0       0       0       0       0       0
       0       0       0       0       0       0       0       0       0       0
       0       0       0       0       0       0       0       0       0       0
       0       0       0       0       0       0       0       0       0       0
       0       0       0       0       0       0       0       0       0       0
       0       0       0       0       0       0       0       0       0       0
       0       0       0       0       0       0       0       0       0       0
       0       0       0       0       0       0       0       0       0       0
       0       0       0       0       0       0       0       0       0       0
       0       0       0       0       0       0       0       0       0       0
       0       0       0       0       0       0       0       0       0       0
       0       0       0       0       0       0       0       0       0       0
       0       0       0       0       0       0       0       0       0       0
       0       0       0       0       0       0       0       0       0       0
       0       0       0       0       0       0       0       0       0       0
       0       0       0       0       0       0       0       0       0       0
       0       0       0       0       0       0       0       0       0       0
       0       0       0       0       0       0       0       0       0       0
       0       0       0       0       0       0       0       0       0       0
       0       0       0       0       0       0       0       0       0       0
       0       0       0       0       0       0       0       0       0       0
       0       0       0       0       0       0       0       0       0       0
       0       0       0       0       0       0       0       0       0       0
       0       0       0       0       0       0       0       0       0       0
       0       0       0       0       0       0       0       0       0       0
       0       0       0       0       0       0       0       0       0       0
       0       0       0       0       0       0       0       0       0       0
       0       0       0       0       0       0       0       0       0       0
       0       0       0       0       0       0       0       0       0       0
       0       0       0       0       0       0       0       0       0       0
       0       0       0       0       0       0       0       0       0       0
       0       0       0       0       0       0       0       0       0       0
       0       0       0       0       0       0       0       0       0       0
       0       0       0       0       0       0       0       0       0       0
       0       0       0       0       0       0       0       0       0       0
       0       0       0       0       0       0       0       0       0       0
       0       0       0       0       0       0       0       0       0       0
       0       0       0       0       0       0       0       0       0       0
       0       0       0       0       0       0       0       0       0       0
       0       0       0       0       0       0       0       0       0       0
       0       0       0       0       0       0       0       0       0       0
       0       0       0       0       0       0       0       0       0       0
       0       0       0       0       0       0       0       0       0       0
       0       0       0       0       0       0       0       0       0       0
       0       0       0       0       0       0       0       0       0       0
       0       0       0       0       0       0       0       0       0       0
       0       0       0       0       0       0       0       0       0       0
       0       0       0       0       0       0       0       0       0       0
       0       0       0       0       0       0       0       0       0       0
       0       0       0       0       0       0       0       0       0       0
       0       0       0       0       0       0       0       0       0       0
       0       0       0       0       0       0       0       0       0       0
       0       0       0       0       0       0       0       0       0       0
       0       0       0       0       0       0       0       0       0       0
       0       0       0       0       0       0       0       0       0       0
       0       0       0       0       0       0       0       0       0       0
       0       0       0       0       0       0       0       0       0       0
       0       0       0       0       0       0       0       0       0       0
       0       0       0       0       0       0       0       0       0       0
       0       0       0       0       0       0       0       0       0       0
       0       0       0       0       0       0       0       0       0       0
       0       0       0       0       0       0       0       0       0       0
       0       0       0       0       0       0       0       0       0       0
       0       0       0       0       0       0       0       0       0       0
       0       0       0       0       0       0       0       0       0       0
       0       0       0       0       0       0       0       0       0       0
       0       0       0       0       0       0       0       0       0       0
       0       0       0       0       0       0       0       0       0       0
       0       0       0       0       0       0       0       0       0       0
       0       0       0       0       0       0       0       0       0       0
       0       0       0       0       0       0       0       0       0       0
       0       0       0       0       0       0       0       0       0       0
       0       0       0       0       0       0       0       0       0       0
       0       0       0       0       0       0       0       0       0       0
       0       0       0       0       0       0       0       0       0       0
       0       0       0       0       0       0       0       0       0       0
       0       0       0       0       0       0       0       0       0       0
       0       0       0       0       0       0       0       0       0       0
       0       0       0       0       0       0       0       0       0       0
       0       0       0       0       0       0       0       0       0       0
       0       0       0       0       0       0       0       0       0       0
       0       0       0       0       0       0       0       0       0       0
       0       0       0       0       0       0       0       0       0       0
       0       0       0       0       0       0       0       0       0       0
       0       0       0       0       0       0       0       0       0       0
       0       0       0       0       0       0       0       0       0       0
       0       0       0       0       0       0       0       0       0       0
       0       0       0       0       0       0       0       0       0       0
       0       0       0       0       0       0       0       0       0       0
       0       0       0       0       0       0       0       0       0       0
       0       0       0       0       0       0       0       0       0       0
       0       0       0       0       0       0       0       0       0       0
       0       0       0       0       0       0       0       0       0       0
       0       0       0       0       0       0       0       0       0       0
       0       0       0       0       0       0       0       0       0       0
       0       0       0       0       0       0       0       0       0       0
       0       0       0       0       0       0       0       0       0       0
       0       0       0       0       0       0       0       0       0       0
       0       0       0       0       0       0       0       0       0       0
       0       0       0       0       0       0       0       0       0       0
       0       0       0       0       0       0       0       0       0       0
       0       0       0       0       0       0       0       0       0       0
       0       0       0       0       0       0       0       0       0       0
       0       0       0       0       0       0       0       0       0       0
       0       0       0       0       0       0       0       0       0       0
       0       0       0       0       0       0       0       0       0       0
       0       0       0       0       0       0       0       0       0       0
       0       0       0       0       0       0       0       0       0       0
       0       0       0       0       0       0       0       0       0       0
       0       0       0       0       0       0       0       0       0       0
       0       0       0       0       0       0       0       0       0       0
       0       0       0       0       0       0       0       0       0       0
       0       0       0       0       0       0       0       0       0       0
       0       0       0       0       0       0       0       0       0       0
       0       0       0       0       0       0       0       0       0       0
       0       0       0       0       0       0       0       0       0       0
       0       0       0       0       0       0       0       0       0       0
       0       0       0       0       0       0       0       0       0       0
       0       0       0       0       0       0       0       0       0       0
       0       0       0       0       0       0       0       0       0       0
       0       0       0       0       0       0       0       0       0       0
       0       0       0       0       0       0       0       0       0       0
       0       0       0       0       0       0       0       0       0       0
       0       0       0       0       0       0       0       0       0       0
       0       0       0       0       0       0       0       0       0       0
       0       0       0       0       0       0       0       0       0       0
       0       0       0       0       0       0       0       0       0       0
       0       0       0       0       0       0       0       0       0       0
       0       0       0       0       0       0       0       0       0       0
       0       0       0       0       0       0       0       0       0       0
       0       0       0       0       0       0       0       0       0       0
       0       0       0       0       0       0       0       0       0       0
       0       0       0       0       0       0       0       0       0       0
       0       0       0       0       0       0       0       0       0       0
       0       0       0       0       0       0       0       0       0       0
       0       0       0       0       0       0       0       0       0       0
       0       0       0       0       0       0       0       0       0       0
       0       0       0       0       0       0       0       0       0       0
       0       0       0       0       0       0       0       0       0       0
       0       0       0       0       0       0       0       0       0       0
       0       0       0       0       0       0       0       0       0       0
       0       0       0       0       0       0       0       0       0       0
       0       0       0       0       0       0       0       0       0       0
       0       0       0       0       0       0       0       0       0       0
       0       0       0       0       0       0       0       0       0       0
       0       0       0       0       0       0       0       0       0       0
       0       0       0       0       0       0       0       0       0       0
       0       0       0       0       0       0       0       0       0       0
       0       0       0       0       0       0       0       0       0       0
       0       0       0       0       0       0       0       0       0       0
       0       0       0       0       0       0       0       0       0       0
       0       0       0       0       0       0       0       0       0       0
       0       0       0       0       0       0       0       0       0       0
       0       0       0       0       0       0       0       0       0       0
       0       0       0       0       0       0       0       0       0       0
       0       0       0       0       0       0       0       0       0       0
       0       0       0       0       0       0       0       0       0       0
       0       0       0       0       0       0       0       0       0       0
       0       0       0       0       0       0       0       0       0       0
       0       0       0       0       0       0       0       0       0       0
       0       0       0       0       0       0       0       0       0       0
       0       0       0       0       0       0       0       0       0       0
       0       0       0       0       0       0       0       0       0       0
       0       0       0       0       0       0       0       0       0       0
       0       0       0       0       0       0       0       0       0       0
       0       0       0       0       0       0       0       0       0       0
       0       0       0       0       0       0       0       0       0       0
       0       0       0       0       0       0       0       0       0       0
       0       0       0       0       0       0       0       0       0       0
       0       0       0       0       0       0       0       0       0       0
       0       0       0       0       0       0       0       0       0       0
       0       0       0       0       0       0       0       0       0       0
       0       0       0       0       0       0       0       0       0       0
       0       0       0       0       0       0       0       0       0       0
       0       0       0       0       0       0       0       0       0       0
       0       0       0       0       0       0       0       0       0       0
       0       0       0       0       0       0       0       0       0       0
       0       0       0       0       0       0       0       0       0       0
       0       0       0       0       0       0       0       0       0       0
       0       0       0       0       0       0       0       0       0       0
       0       0       0       0       0       0       0       0       0       0
       0       0       0       0       0       0       0       0       0       0
       0       0       0       0       0       0       0       0       0       0
       0       0       0       0       0       0       0       0       0       0
       0       0       0       0       0       0       0       0       0       0
       0       0       0       0       0       0       0       0       0       0
       0       0       0       0       0       0       0       0       0       0
       0       0       0       0       0       0       0       0       0       0
       0       0       0       0       0       0       0       0       0       0
       0       0       0       0       0       0       0       0       0       0
       0       0       0       0       0       0       0       0       0       0
       0       0       0       0       0       0       0       0       0       0
       0       0       0       0       0       0       0       0       0       0
       0       0       0       0       0       0       0       0       0       0
       0       0       0       0       0       0       0       0       0       0
       0       0       0       0       0       0       0       0       0       0
       0       0       0       0       0       0       0       0       0       0
       0       0       0       0       0       0       0       0       0       0
       0       0       0       0       0       0       0       0       0       0
       0       0       0       0       0       0       0       0       0       0
       0       0       0       0       0       0       0       0       0       0
       0       0       0       0       0       0       0       0       0       0
       0       0       0       0       0       0       0       0       0       0
       0       0       0       0       0       0       0       0       0       0
       0       0       0       0       0       0       0       0       0       0
       0       0       0       0       0       0       0       0       0       0
       0       0       0       0       0       0       0       0       0       0
       0       0       0       0       0       0       0       0       0       0
       0       0       0       0       0       0       0       0       0       0
       0       0       0       0       0       0       0       0       0       0
       0       0       0       0       0       0       0       0       0       0
       0       0       0       0       0       0       0       0       0       0
       0       0       0       0       0       0       0       0       0       0
       0       0       0       0       0       0       0       0       0       0
       0       0       0       0       0       0       0       0       0       0
       0       0       0       0       0       0       0       0       0       0
       0       0       0       0       0       0       0       0       0       0
       0       0       0       0       0       0       0       0       0       0
       0       0       0       0       0       0       0       0       0       0
       0       0       0       0       0       0       0       0       0       0
       0       0       0       0       0       0       0       0       0       0
       0       0       0       0       0       0       0       0       0       0
       0       0       0       0       0       0       0       0       0       0
       0       0       0       0       0       0       0       0       0       0
       0       0       0       0       0       0       0       0       0       0
       0       0       0       0       0       0       0       0       0       0
       0       0       0       0       0       0       0       0       0       0
       0       0       0       0       0       0       0       0       0       0
       0       0       0       0       0       0       0       0       0       0
       0       0       0       0       0       0       0       0       0       0
       0       0       0       0       0       0       0       0       0       0
       0       0       0       0       0       0       0       0       0       0
       0       0       0       0       0       0       0       0       0       0
       0       0       0       0       0       0       0       0       0       0
       0       0       0       0       0       0       0       0       0       0
       0       0       0       0       0       0       0       0       0       0
       0       0       0       0       0       0       0       0       0       0
       0       0       0       0       0       0       0       0       0       0
       0       0       0       0       0       0       0       0       0       0
       0       0       0       0       0       0       0       0       0       0
       0       0       0       0       0       0       0       0       0       0
       0       0       0       0       0       0       0       0       0       0
       0       0       0       0       0       0       0       0       0       0
       0       0       0       0       0       0       0       0       0       0
       0       0       0       0       0       0       0       0       0       0
       0       0       0       0       0       0       0       0       0       0
       0       0       0       0       0       0       0       0       0       0
       0       0       0       0       0       0       0       0       0       0
       0       0       0       0       0       0       0       0       0       0
       0       0       0       0       0       0       0       0       0       0
       0       0       0       0       0       0       0       0       0       0
       0       0       0       0       0       0       0       0       0       0
       0       0       0       0       0       0       0       0       0       0
       0       0       0       0       0       0       0       0       0       0
       0       0       0       0       0       0       0       0       0       0
       0       0       0       0       0       0       0       0       0       0
       0       0       0       0       0       0       0       0       0       0
       0       0       0       0       0       0       0       0       0       0
       0       0       0       0       0       0       0       0       0       0
       0       0       0       0       0       0       0       0       0       0
       0       0       0       0       0       0       0       0       0       0
       0       0       0       0       0       0       0       0       0       0
       0       0       0       0       0       0       0       0       0       0
       0       0       0       0       0       0       0       0       0       0
       0       0       0       0       0       0       0       0       0       0
       0       0       0       0       0       0       0       0       0       0
       0       0       0       0       0       0       0       0       0       0
       0       0       0       0       0       0       0       0       0       0
       0       0       0       0       0       0       0       0       0       0
       0       0       0       0       0       0       0       0       0       0
       0       0       0       0       0       0       0       0       0       0
       0       0       0       0       0       0       0       0       0       0
       0       0       0       0       0       0       0       0       0       0
       0       0       0       0       0       0       0       0       0       0
       0       0       0       0       0       0       0       0       0       0
       0       0       0       0       0       0       0       0       0       0
       0       0       0       0       0       0       0       0       0       0
       0       0       0       0       0       0       0       0       0       0
       0       0       0       0       0       0       0       0       0       0
       0       0       0       0       0       0       0       0       0       0
       0       0       0       0       0       0       0       0       0       0
       0       0       0       0       0       0       0       0       0       0
       0       0       0       0       0       0       0       0       0       0
       0       0       0       0       0       0       0       0       0       0
       0       0       0       0       0       0       0       0       0       0
       0       0       0       0       0       0       0       0       0       0
       0       0       0       0       0       0       0       0       0       0
       0       0       0       0       0       0       0       0       0       0
       0       0       0       0       0       0       0       0       0       0
       0       0       0       0       0       0       0       0       0       0
       0       0       0       0       0       0       0       0       0       0
       0       0       0       0       0       0       0       0       0       0
       0       0       0       0       0       0       0       0       0       0
       0       0       0       0       0       0       0       0       0       0
       0       0       0       0       0       0       0       0       0       0
       0       0       0       0       0       0       0       0       0       0
       0       0       0       0       0       0       0       0       0       0
       0       0       0       0       0       0       0       0       0       0
       0       0       0       0       0       0       0       0       0       0
       0       0       0       0       0       0       0       0       0       0
       0       0       0       0       0       0       0       0       0       0
       0       0       0       0       0       0       0       0       0       0
       0       0       0       0       0       0       0       0       0       0
       0       0       0       0       0       0       0       0       0       0
       0       0       0       0       0       0       0       0       0       0
       0       0       0       0       0       0       0       0       0       0
       0       0       0       0       0       0       0       0       0       0
       0       0       0       0       0       0       0       0       0       0
       0       0       0       0       0       0       0       0       0       0
       0       0       0       0       0       0       0       0       0       0
       0       0       0       0       0       0       0       0       0       0
       0       0       0       0       0       0       0       0       0       0
       0       0       0       0       0       0       0       0       0       0
       0       0       0       0       0       0       0       0       0       0
       0       0       0       0       0       0       0       0       0       0
       0       0       0       0       0       0       0       0       0       0
       0       0       0       0       0       0       0       0       0       0
       0       0       0       0       0       0       0       0       0       0
       0       0       0       0       0       0       0       0       0       0
       0       0       0       0       0       0       0       0       0       0
       0       0       0       0       0       0       0       0       0       0
       0       0       0       0       0       0       0       0       0       0
       0       0       0       0       0       0       0       0       0       0
       0       0       0       0       0       0       0       0       0       0
       0       0       0       0       0       0       0       0       0       0
       0       0       0       0       0       0       0       0       0       0
       0       0       0       0       0       0       0       0       0       0
       0       0       0       0       0       0       0       0       0       0
       0       0       0       0       0       0       0       0       0       0
       0       0       0       0       0       0       0       0       0       0
       0       0       0       0       0       0       0       0       0       0
       0       0       0       0       0       0       0       0       0       0
       0       0       0       0       0       0       0       0       0       0
       0       0       0       0       0       0       0       0       0       0
       0       0       0       0       0       0       0       0       0       0
       0       0       0       0       0       0       0       0       0       0
       0       0       0       0       0       0       0       0       0       0
       0       0       0       0       0       0       0       0       0       0
       0       0       0       0       0       0       0       0       0       0
       0       0       0       0       0       0       0       0       0       0
       0       0       0       0       0       0       0       0       0       0
       0       0       0       0       0       0       0       0       0       0
       0       0       0       0       0       0       0       0       0       0
       0       0       0       0       0       0       0       0       0       0
       0       0       0       0       0       0       0       0       0       0
       0       0       0       0       0       0       0       0       0       0
       0       0       0       0       0       0       0       0       0       0
       0       0       0       0       0       0       0       0       0       0
       0       0       0       0       0       0       0       0       0       0
       0       0       0       0       0       0       0       0       0       0
       0       0       0       0       0       0       0       0       0       0
       0       0       0       0       0       0       0       0       0       0
       0       0       0       0       0       0       0       0       0       0
       0       0       0       0       0       0       0       0       0       0
       0       0       0       0       0       0       0       0       0       0
       0       0       0       0       0       0       0       0       0       0
       0       0       0       0       0       0       0       0       0       0
       0       0       0       0       0       0       0       0       0       0
       0       0       0       0       0       0       0       0       0       0
       0       0       0       0       0       0       0       0       0       0
       0       0       0       0       0       0       0       0       0       0
       0       0       0       0       0       0       0       0       0       0
       0       0       0       0       0       0       0       0       0       0
       0       0       0       0       0       0       0       0       0       0
       0       0       0       0       0       0       0       0       0       0
       0       0       0       0       0       0       0       0       0       0
       0       0       0       0       0       0       0       0       0       0
       0       0       0       0       0       0       0       0       0       0
       0       0       0       0       0       0       0       0       0       0
       0       0       0       0       0       0       0       0       0       0
       0       0       0       0       0       0       0       0       0       0
       0       0       0       0       0       0       0       0       0       0
       0       0       0       0       0       0       0       0       0       0
       0       0       0       0       0       0       0       0       0       0
       0       0       0       0       0       0       0       0       0       0
       0       0       0       0       0       0       0       0       0       0
       0       0       0       0       0       0       0       0       0       0
       0       0       0       0       0       0       0       0       0       0
       0       0       0       0       0       0       0       0       0       0
       0       0       0       0       0       0       0       0       0       0
       0       0       0       0       0       0       0       0       0       0
       0       0       0       0       0       0       0       0       0       0
       0       0       0       0       0       0       0       0       0       0
       0       0       0       0       0       0       0       0       0       0
       0       0       0       0       0       0       0       0       0       0
       0       0       0       0       0       0       0       0       0       0
       0       0       0       0       0       0       0       0       0       0
       0       0       0       0       0       0       0       0       0       0
       0       0       0       0       0       0       0       0       0       0
       0       0       0       0       0       0       0       0       0       0
       0       0       0       0       0       0       0       0       0       0
       0       0       0       0       0       0       0       0       0       0
       0       0       0       0       0       0       0       0       0       0
       0       0       0       0       0       0       0       0       0       0
       0       0       0       0       0       0       0       0       0       0
       0       0       0       0       0       0       0       0       0       0
       0       0       0       0       0       0       0       0       0       0
       0       0       0       0       0       0       0       0       0       0
       0       0       0       0       0       0       0       0       0       0
       0       0       0       0       0       0       0       0       0       0
       0       0       0       0       0       0       0       0       0       0
       0       0       0       0       0       0       0       0       0       0
       0       0       0       0       0       0       0       0       0       0
       0       0       0       0       0       0       0       0       0       0
       0       0       0       0       0       0       0       0       0       0
       0       0       0       0       0       0       0       0       0       0
       0       0       0       0       0       0       0       0       0       0
       0       0       0       0       0       0       0       0       0       0
       0       0       0       0       0       0       0       0       0       0
       0       0       0       0       0       0       0       0       0       0
       0       0       0       0       0       0       0       0       0       0
       0       0       0       0       0       0       0       0       0       0
       0       0       0       0       0       0       0       0       0       0
       0       0       0       0       0       0       0       0       0       0
       0       0       0       0       0       0       0       0       0       0
       0       0       0       0       0       0       0       0       0       0
       0       0       0       0       0       0       0       0       0       0
       0       0       0       0       0       0       0       0       0       0
       0       0       0       0       0       0       0       0       0       0
       0       0       0       0       0       0       0       0       0       0
       0       0       0       0       0       0       0       0       0       0
       0       0       0       0       0       0       0       0       0       0
       0       0       0       0       0       0       0       0       0       0
       0       0       0       0       0       0       0       0       0       0
       0       0       0       0       0       0       0       0       0       0
       0       0       0       0       0       0       0       0       0       0
       0       0       0       0       0       0       0       0       0       0
       0       0       0       0       0       0       0       0       0       0
       0       0       0       0       0       0       0       0       0       0
       0       0       0       0       0       0       0       0       0       0
       0       0       0       0       0       0       0       0       0       0
       0       0       0       0       0       0       0       0       0       0
       0       0       0       0       0       0       0       0       0       0
       0       0       0       0       0       0       0       0       0       0
       0       0       0       0       0       0       0       0       0       0
       0       0       0       0       0       0       0       0       0       0
       0       0       0       0       0       0       0       0       0       0
       0       0       0       0       0       0       0       0       0       0
       0       0       0       0       0       0       0       0       0       0
       0       0       0       0       0       0       0       0       0       0
       0       0       0       0       0       0       0       0       0       0
       0       0       0       0       0       0       0       0       0       0
       0       0       0       0       0       0       0       0       0       0
       0       0       0       0       0       0       0       0       0       0
       0       0       0       0       0       0       0       0       0       0
       0       0       0       0       0       0       0       0       0       0
       0       0       0       0       0       0       0       0       0       0
       0       0       0       0       0       0       0       0       0       0
       0       0       0       0       0       0       0       0       0       0
       0       0       0       0       0       0       0       0       0       0
       0       0       0       0       0       0       0       0       0       0
       0       0       0       0       0       0       0       0       0       0
       0       0       0       0       0       0       0       0       0       0
       0       0       0       0       0       0       0       0       0       0
       0       0       0       0       0       0       0       0       0       0
       0       0       0       0       0       0       0       0       0       0
       0       0       0       0       0       0       0       0       0       0
       0       0       0       0       0       0       0       0       0       0
       0       0       0       0       0       0       0       0       0       0
       0       0       0       0       0       0       0       0       0       0
       0       0       0       0       0       0       0       0       0       0
       0       0       0       0       0       0       0       0       0       0
       0       0       0       0       0       0       0       0       0       0
       0       0       0       0       0       0       0       0       0       0
       0       0       0       0       0       0       0       0       0       0
       0       0       0       0       0       0       0       0       0       0
       0       0       0       0       0       0       0       0       0       0
       0       0       0       0       0       0       0       0       0       0
       0       0       0       0       0       0       0       0       0       0
       0       0       0       0       0       0       0       0       0       0
       0       0       0       0       0       0       0       0       0       0
       0       0       0       0       0       0       0       0       0       0
       0       0       0       0       0       0       0       0       0       0
       0       0       0       0       0       0       0       0       0       0
       0       0       0       0       0       0       0       0       0       0
       0       0       0       0       0       0       0       0       0       0
       0       0       0       0       0       0       0       0       0       0
       0       0       0       0       0       0       0       0       0       0
       0       0       0       0       0       0       0       0       0       0
       0       0       0       0       0       0       0       0       0       0
       0       0       0       0       0       0       0       0       0       0
       0       0       0       0       0       0       0       0       0       0
       0       0       0       0       0       0       0       0       0       0
       0       0       0       0       0       0       0       0       0       0
       0       0       0       0       0       0       0       0       0       0
       0       0       0       0       0       0       0       0       0       0
       0       0       0       0       0       0       0       0       0       0
       0       0       0       0       0       0       0       0       0       0
       0       0       0       0       0       0       0       0       0       0
       0       0       0       0       0       0       0       0       0       0
       0       0       0       0       0       0       0       0       0       0
       0       0       0       0       0       0       0       0       0       0
       0       0       0       0       0       0       0       0       0       0
       0       0       0       0       0       0       0       0       0       0
       0       0       0       0       0       0       0       0       0       0
       0       0       0       0       0       0       0       0       0       0
       0       0       0       0       0       0       0       0       0       0
       0       0       0       0       0       0       0       0       0       0
       0       0       0       0       0       0       0       0       0       0
       0       0       0       0       0       0       0       0       0       0
       0       0       0       0       0       0       0       0       0       0
       0       0       0       0       0       0       0       0       0       0
       0       0       0       0       0       0       0       0       0       0
       0       0       0       0       0       0       0       0       0       0
       0       0       0       0       0       0       0       0       0       0
       0       0       0       0       0       0       0       0       0       0
       0       0       0       0       0       0       0       0       0       0
       0       0       0       0       0       0       0       0       0       0
       0       0       0       0       0       0       0       0       0       0
       0       0       0       0       0       0       0       0       0       0
       0       0       0       0       0       0       0       0       0       0
       0       0       0       0       0       0       0       0       0       0
       0       0       0       0       0       0       0       0       0       0
       0       0       0       0       0       0       0       0       0       0
       0       0       0       0       0       0       0       0       0       0
       0       0       0       0       0       0       0       0       0       0
       0       0       0       0       0       0       0       0       0       0
       0       0       0       0       0       0       0       0       0       0
       0       0       0       0       0       0       0       0       0       0
       0       0       0       0       0       0       0       0       0       0
       0       0       0       0       0       0       0       0       0       0
       0       0       0       0       0       0       0       0       0       0
       0       0       0       0       0       0       0       0       0       0
       0       0       0       0       0       0       0       0       0       0
       0       0       0       0       0       0       0       0       0       0
       0       0       0       0       0       0       0       0       0       0
       0       0       0       0       0       0       0       0       0       0
       0       0       0       0       0       0       0       0       0       0
       0       0       0       0       0       0       0       0       0       0
       0       0       0       0       0       0       0       0       0       0
       0       0       0       0       0       0       0       0       0       0
       0       0       0       0       0       0       0       0       0       0
       0       0       0       0       0       0       0       0       0       0
       0       0       0       0       0       0       0       0       0       0
       0       0       0       0       0       0       0       0       0       0
       0       0       0       0       0       0       0       0       0       0
       0       0       0       0       0       0       0       0       0       0
       0       0       0       0       0       0       0       0       0       0
       0       0       0       0       0       0       0       0       0       0
       0       0       0       0       0       0       0       0       0       0
       0       0       0       0       0       0       0       0       0       0
       0       0       0       0       0       0       0       0       0       0
       0       0       0       0       0       0       0       0       0       0
       0       0       0       0       0       0       0       0       0       0
       0       0       0       0       0       0       0       0       0       0
       0       0       0       0       0       0       0       0       0       0
       0       0       0       0       0       0       0       0       0       0
       0       0       0       0       0       0       0       0       0       0
       0       0       0       0       0       0       0       0       0       0
       0       0       0       0       0       0       0       0       0       0
       0       0       0       0       0       0       0       0       0       0
       0       0       0       0       0       0       0       0       0       0
       0       0       0       0       0       0       0       0       0       0
       0       0       0       0       0       0       0       0       0       0
       0       0       0       0       0       0       0       0       0       0
       0       0       0       0       0       0       0       0       0       0
       0       0       0       0       0       0       0       0       0       0
       0       0       0       0       0       0       0       0       0       0
       0       0       0       0       0       0       0       0       0       0
       0       0       0       0       0       0       0       0       0       0
       0       0       0       0       0       0       0       0       0       0
       0       0       0       0       0       0       0       0       0       0
       0       0       0       0       0       0       0       0       0       0
       0       0       0       0       0       0       0       0       0       0
       0       0       0       0       0       0       0       0       0       0
       0       0       0       0       0       0       0       0       0       0
       0       0       0       0       0       0       0       0       0       0
       0       0       0       0       0       0       0       0       0       0
       0       0       0       0       0       0       0       0       0       0
       0       0       0       0       0       0       0       0       0       0
       0       0       0       0       0       0       0       0       0       0
       0       0       0       0       0       0       0       0       0       0
       0       0       0       0       0       0       0       0       0       0
       0       0       0       0       0       0       0       0       0       0
       0       0       0       0       0       0       0       0       0       0
       0       0       0       0       0       0       0       0       0       0
       0       0       0       0       0       0       0       0       0       0
       0       0       0       0       0       0       0       0       0       0
       0       0       0       0       0       0       0       0       0       0
       0       0       0       0       0       0       0       0       0       0
       0       0       0       0       0       0       0       0       0       0
       0       0       0       0       0       0       0       0       0       0
       0       0       0       0       0       0       0       0       0       0
       0       0       0       0       0       0       0       0       0       0
       0       0       0       0       0       0       0       0       0       0
       0       0       0       0       0       0       0       0       0       0
       0       0       0       0       0       0       0       0       0       0
       0       0       0       0       0       0       0       0       0       0
       0       0       0       0       0       0       0       0       0       0
       0       0       0       0       0       0       0       0       0       0
       0       0       0       0       0       0       0       0       0       0
       0       0       0       0       0       0       0       0       0       0
       0       0       0       0       0       0       0       0       0       0
       0       0       0       0       0       0       0       0       0       0
       0       0       0       0       0       0       0       0       0       0
       0       0       0       0       0       0       0       0       0       0
       0       0       0       0       0       0       0       0       0       0
       0       0       0       0       0       0       0       0       0       0
       0       0       0       0       0       0       0       0       0       0
       0       0       0       0       0       0       0       0       0       0
       0       0       0       0       0       0       0       0       0       0
       0       0       0       0       0       0       0       0       0       0
       0       0       0       0       0       0       0       0       0       0
       0       0       0       0       0       0       0       0       0       0
       0       0       0       0       0       0       0       0       0       0
       0       0       0       0       0       0       0       0       0       0
       0       0       0       0       0       0       0       0       0       0
       0       0       0       0       0       0       0       0       0       0
       0       0       0       0       0       0       0       0       0       0
       0       0       0       0       0       0       0       0       0       0
       0       0       0       0       0       0       0       0       0       0
       0       0       0       0       0       0       0       0       0       0
       0       0       0       0       0       0       0       0       0       0
       0       0       0       0       0       0       0       0       0       0
       0       0       0       0       0       0       0       0       0       0
       0       0       0       0       0       0       0       0       0       0
       0       0       0       0       0       0       0       0       0       0
       0       0       0       0       0       0       0       0       0       0
       0       0       0       0       0       0       0       0       0       0
       0       0       0       0       0       0       0       0       0       0
       0       0       0       0       0       0       0       0       0       0
       0       0       0       0       0       0       0       0       0       0
       0       0       0       0       0       0       0       0       0       0
       0       0       0       0       0       0       0       0       0       0
       0       0       0       0       0       0       0       0       0       0
       0       0       0       0       0       0       0       0       0       0
       0       0       0       0       0       0       0       0       0       0
       0       0       0       0       0       0       0       0       0       0
       0       0       0       0       0       0       0       0       0       0
       0       0       0       0       0       0       0       0       0       0
       0       0       0       0       0       0       0       0       0       0
       0       0       0       0       0       0       0       0       0       0
       0       0       0       0       0       0       0       0       0       0
       0       0       0       0       0       0       0       0       0       0
       0       0       0       0       0       0       0       0       0       0
       0       0       0       0       0       0       0       0       0       0
       0       0       0       0       0       0       0       0       0       0
       0       0       0       0       0       0       0       0       0       0
       0       0       0       0       0       0       0       0       0       0
       0       0       0       0       0       0       0       0       0       0
       0       0       0       0       0       0       0       0       0       0
       0       0       0       0       0       0       0       0       0       0
       0       0       0       0       0       0       0       0       0       0
       0       0       0       0       0       0       0       0       0       0
       0       0       0       0       0       0       0       0       0       0
       0       0       0       0       0       0       0       0       0       0
       0       0       0       0       0       0       0       0       0       0
       0       0       0       0       0       0       0       0       0       0
       0       0       0       0       0       0       0       0       0       0
       0       0       0       0       0       0       0       0       0       0
       0       0       0       0       0       0       0       0       0       0
       0       0       0       0       0       0       0       0       0       0
       0       0       0       0       0       0       0       0       0       0
       0       0       0       0       0       0       0       0       0       0
       0       0       0       0       0       0       0       0       0       0
       0       0       0       0       0       0       0       0       0       0
       0       0       0       0       0       0       0       0       0       0
       0       0       0       0       0       0       0       0       0       0
       0       0       0       0       0       0       0       0       0       0
       0       0       0       0       0       0       0       0       0       0
       0       0       0       0       0       0       0       0       0       0
       0       0       0       0       0       0       0       0       0       0
       0       0       0       0       0       0       0       0       0       0
       0       0       0       0       0       0       0       0       0       0
       0       0       0       0       0       0       0       0       0       0
       0       0       0       0       0       0       0       0       0       0
       0       0       0       0       0       0       0       0       0       0
       0       0       0       0       0       0       0       0       0       0
       0       0       0       0       0       0       0       0       0       0
       0       0       0       0       0       0       0       0       0       0
       0       0       0       0       0       0       0       0       0       0
       0       0       0       0       0       0       0       0       0       0
       0       0       0       0       0       0       0       0       0       0
       0       0       0       0       0       0       0       0       0       0
       0       0       0       0       0       0       0       0       0       0
       0       0       0       0       0       0       0       0       0       0
       0       0       0       0       0       0       0       0       0       0
       0       0       0       0       0       0       0       0       0       0
       0       0       0       0       0       0       0       0       0       0
       0       0       0       0       0       0       0       0       0       0
       0       0       0       0       0       0       0       0       0       0
       0       0       0       0       0       0       0       0       0       0
       0       0       0       0       0       0       0       0       0       0
       0       0       0       0       0       0       0       0       0       0
       0       0       0       0       0       0       0       0       0       0
       0       0       0       0       0       0       0       0       0       0
       0       0       0       0       0       0       0       0       0       0
       0       0       0       0       0       0       0       0       0       0
       0       0       0       0       0       0       0       0       0       0
       0       0       0       0       0       0       0       0       0       0
       0       0       0       0       0       0       0       0       0       0
       0       0       0       0       0       0       0       0       0       0
       0       0       0       0       0       0       0       0       0       0
       0       0       0       0       0       0       0       0       0       0
       0       0       0       0       0       0       0       0       0       0
       0       0       0       0       0       0       0       0       0       0
       0       0       0       0       0       0       0       0       0       0
       0       0       0       0       0       0       0       0       0       0
       0       0       0       0       0       0       0       0       0       0
       0       0       0       0       0       0       0       0       0       0
       0       0       0       0       0       0       0       0       0       0
       0       0       0       0       0       0       0       0       0       0
       0       0       0       0       0       0       0       0       0       0
       0       0       0       0       0       0       0       0       0       0
       0       0       0       0       0       0       0       0       0       0
       0       0       0       0       0       0       0       0       0       0
       0       0       0       0       0       0       0       0       0       0
       0       0       0       0       0       0       0       0       0       0
       0       0       0       0       0       0       0       0       0       0
       0       0       0       0       0       0       0       0       0       0
       0       0       0       0       0       0       0       0       0       0
       0       0       0       0       0       0       0       0       0       0
       0       0       0       0       0       0       0       0       0       0
       0       0       0       0       0       0       0       0       0       0
       0       0       0       0       0       0       0       0       0       0
       0       0       0       0       0       0       0       0       0       0
       0       0       0       0       0       0       0       0       0       0
       0       0       0       0       0       0       0       0       0       0
       0       0       0       0       0       0       0       0       0       0
       0       0       0       0       0       0       0       0       0       0
       0       0       0       0       0       0       0       0       0       0
       0       0       0       0       0       0       0       0       0       0
       0       0       0       0       0       0       0       0       0       0
       0       0       0       0       0       0       0       0       0       0
       0       0       0       0       0       0       0       0       0       0
       0       0       0       0       0       0       0       0       0       0
       0       0       0       0       0       0       0       0       0       0
       0       0       0       0       0       0       0       0       0       0
       0       0       0       0       0       0       0       0       0       0
       0       0       0       0       0       0       0       0       0       0
       0       0       0       0       0       0       0       0       0       0
       0       0       0       0       0       0       0       0       0       0
       0       0       0       0       0       0       0       0       0       0
       0       0       0       0       0       0       0       0       0       0
       0       0       0       0       0       0       0       0       0       0
       0       0       0       0       0       0       0       0       0       0
       0       0       0       0       0       0       0       0       0       0
       0       0       0       0       0       0       0       0       0       0
       0       0       0       0       0       0       0       0       0       0
       0       0       0       0       0       0       0       0       0       0
       0       0       0       0       0       0       0       0       0       0
       0       0       0       0       0       0       0       0       0       0
       0       0       0       0       0       0       0       0       0       0
       0       0       0       0       0       0       0       0       0       0
       0       0       0       0       0       0       0       0       0       0
       0       0       0       0       0       0       0       0       0       0
       0       0       0       0       0       0       0       0       0       0
       0       0       0       0       0       0       0       0       0       0
       0       0       0       0       0       0       0       0       0       0
       0       0       0       0       0       0       0       0       0       0
       0       0       0       0       0       0       0       0       0       0
       0       0       0       0       0       0       0       0       0       0
       0       0       0       0       0       0       0       0       0       0
       0       0       0       0       0       0       0       0       0       0
       0       0       0       0       0       0       0       0       0       0
       0       0       0       0       0       0       0       0       0       0
       0       0       0       0       0       0       0       0       0       0
       0       0       0       0       0       0       0       0       0       0
       0       0       0       0       0       0       0       0       0       0
       0       0       0       0       0       0       0       0       0       0
       0       0       0       0       0       0       0       0       0       0
       0       0       0       0       0       0       0       0       0       0
       0       0       0       0       0       0       0       0       0       0
       0       0       0       0       0       0       0       0       0       0
       0       0       0       0       0       0       0       0       0       0
       0       0       0       0       0       0       0       0       0       0
       0       0       0       0       0       0       0       0       0       0
       0       0       0       0       0       0       0       0       0       0
       0       0       0       0       0       0       0       0       0       0
       0       0       0       0       0       0       0       0       0       0
       0       0       0       0       0       0       0       0       0       0
       0       0       0       0       0       0       0       0       0       0
       0       0       0       0       0       0       0       0       0       0
       0       0       0       0       0       0       0       0       0       0
       0       0       0       0       0       0       0       0       0       0
       0       0       0       0       0       0       0       0       0       0
       0       0       0       0       0       0       0       0       0       0
       0       0       0       0       0       0       0       0       0       0
       0       0       0       0       0       0       0       0       0       0
       0       0       0       0       0       0       0       0       0       0
       0       0       0       0       0       0       0       0       0       0
       0       0       0       0       0       0       0       0       0       0
       0       0       0       0       0       0       0       0       0       0
       0       0       0       0       0       0       0       0       0       0
       0       0       0       0       0       0       0       0       0       0
       0       0       0       0       0       0       0       0       0       0
       0       0       0       0       0       0       0       0       0       0
       0       0       0       0       0       0       0       0       0       0
       0       0       0       0       0       0       0       0       0       0
       0       0       0       0       0       0       0       0       0       0
       0       0       0       0       0       0       0       0       0       0
       0       0       0       0       0       0       0       0       0       0
       0       0       0       0       0       0       0       0       0       0
       0       0       0       0       0       0       0       0       0       0
       0       0       0       0       0       0       0       0       0       0
       0       0       0       0       0       0       0       0       0       0
       0       0       0       0       0       0       0       0       0       0
       0       0       0       0       0       0       0       0       0       0
       0       0       0       0       0       0       0       0       0       0
       0       0       0       0       0       0       0       0       0       0
       0       0       0       0       0       0       0       0       0       0
       0       0       0       0       0       0       0       0       0       0
       0       0       0       0       0       0       0       0       0       0
       0       0       0       0       0       0       0       0       0       0
       0       0       0       0       0       0       0       0       0       0
       0       0       0       0       0       0       0       0       0       0
       0       0       0       0       0       0       0       0       0       0
       0       0       0       0       0       0       0       0       0       0
       0       0       0       0       0       0       0       0       0       0
       0       0       0       0       0       0       0       0       0       0
       0       0       0       0       0       0       0       0       0       0
       0       0       0       0       0       0       0       0       0       0
       0       0       0       0       0       0       0       0       0       0
       0       0       0       0       0       0       0       0       0       0
       0       0       0       0       0       0       0       0       0       0
       0       0       0       0       0       0       0       0       0       0
       0       0       0       0       0       0       0       0       0       0
       0       0       0       0       0       0       0       0       0       0
       0       0       0       0       0       0       0       0       0       0
       0       0       0       0       0       0       0       0       0       0
       0       0       0       0       0       0       0       0       0       0
       0       0       0       0       0       0       0       0       0       0
       0       0       0       0       0       0       0       0       0       0
       0       0       0       0       0       0       0       0       0       0
       0       0       0       0       0       0       0       0       0       0
       0       0       0       0       0       0       0       0       0       0
       0       0       0       0       0       0       0       0       0       0
       0       0       0       0       0       0       0       0       0       0
       0       0       0       0       0       0       0       0       0       0
       0       0       0       0       0       0       0       0       0       0
       0       0       0       0       0       0       0       0       0       0
       0       0       0       0       0       0       0       0       0       0
       0       0       0       0       0       0       0       0       0       0
       0       0       0       0       0       0       0       0       0       0
       0       0       0       0       0       0       0       0       0       0
       0       0       0       0       0       0       0       0       0       0
       0       0       0       0       0       0       0       0       0       0
       0       0       0       0       0       0       0       0       0       0
       0       0       0       0       0       0       0       0       0       0
       0       0       0       0       0       0       0       0       0       0
       0       0       0       0       0       0       0       0       0       0
       0       0       0       0       0       0       0       0       0       0
       0       0       0       0       0       0       0       0       0       0
       0       0       0       0       0       0       0       0       0       0
       0       0       0       0       0       0       0       0       0       0
       0       0       0       0       0       0       0       0       0       0
       0       0       0       0       0       0       0       0       0       0
       0       0       0       0       0       0       0       0       0       0
       0       0       0       0       0       0       0       0       0       0
       0       0       0       0       0       0       0       0       0       0
       0       0       0       0       0       0       0       0       0       0
       0       0       0       0       0       0       0       0       0       0
       0       0       0       0       0       0       0       0       0       0
       0       0       0       0       0       0       0       0       0       0
       0       0       0       0       0       0       0       0       0       0
       0       0       0       0       0       0       0       0       0       0
       0       0       0       0       0       0       0       0       0       0
       0       0       0       0       0       0       0       0       0       0
       0       0       0       0       0       0       0       0       0       0
       0       0       0       0       0       0       0       0       0       0
       0       0       0       0       0       0       0       0       0       0
       0       0       0       0       0       0       0       0       0       0
       0       0       0       0       0       0       0       0       0       0
       0       0       0       0       0       0       0       0       0       0
       0       0       0       0       0       0       0       0       0       0
       0       0       0       0       0       0       0       0       0       0
       0       0       0       0       0       0       0       0       0       0
       0       0       0       0       0       0       0       0       0       0
       0       0       0       0       0       0       0       0       0       0
       0       0       0       0       0       0       0       0       0       0
       0       0       0       0       0       0       0       0       0       0
       0       0       0       0       0       0       0       0       0       0
       0       0       0       0       0       0       0       0       0       0
       0       0       0       0       0       0       0       0       0       0
       0       0       0       0       0       0       0       0       0       0
       0       0       0       0       0       0       0       0       0       0
       0       0       0       0       0       0       0       0       0       0
       0       0       0       0       0       0       0       0       0       0
       0       0       0       0       0       0       0       0       0       0
       0       0       0       0       0       0       0       0       0       0
       0       0       0       0       0       0       0       0       0       0
       0       0       0       0       0       0       0       0       0       0
       0       0       0       0       0       0       0       0       0       0
       0       0       0       0       0       0       0       0       0       0
       0       0       0       0       0       0       0       0       0       0
       0       0       0       0       0       0       0       0       0       0
       0       0       0       0       0       0       0       0       0       0
       0       0       0       0       0       0       0       0       0       0
       0       0       0       0       0       0       0       0       0       0
       0       0       0       0       0       0       0       0       0       0
       0       0       0       0       0       0       0       0       0       0
       0       0       0       0       0       0       0       0       0       0
       0       0       0       0       0       0       0       0       0       0
       0       0       0       0       0       0       0       0       0       0
       0       0       0       0       0       0       0       0       0       0
       0       0       0       0       0       0       0       0       0       0
       0       0       0       0       0       0       0       0       0       0
       0       0       0       0       0       0       0       0       0       0
       0       0       0       0       0       0       0       0       0       0
       0       0       0       0       0       0       0       0       0       0
       0       0       0       0       0       0       0       0       0       0
       0       0       0       0       0       0       0       0       0       0
       0       0       0       0       0       0       0       0       0       0
       0       0       0       0       0       0       0       0       0       0
       0       0       0       0       0       0       0       0       0       0
       0       0       0       0       0       0       0       0       0       0
       0       0       0       0       0       0       0       0       0       0
       0       0       0       0       0       0       0       0       0       0
       0       0       0       0       0       0       0       0       0       0
       0       0       0       0       0       0       0       0       0       0
       0       0       0       0       0       0       0       0       0       0
       0       0       0       0       0       0       0       0       0       0
       0       0       0       0       0       0       0       0       0       0
       0       0       0       0       0       0       0       0       0       0
       0       0       0       0       0       0       0       0       0       0
       0       0       0       0       0       0       0       0       0       0
       0       0       0       0       0       0       0       0       0       0
       0       0       0       0       0       0       0       0       0       0
       0       0       0       0       0       0       0       0       0       0
       0       0       0       0       0       0       0       0       0       0
       0       0       0       0       0       0       0       0       0       0
       0       0       0       0       0       0       0       0       0       0
       0       0       0       0       0       0       0       0       0       0
       0       0       0       0       0       0       0       0       0       0
       0       0       0       0       0       0       0       0       0       0
       0       0       0       0       0       0       0       0       0       0
       0       0       0       0       0       0       0       0       0       0
       0       0       0       0       0       0       0       0       0       0
       0       0       0       0       0       0       0       0       0       0
       0       0       0       0       0       0       0       0       0       0
       0       0       0       0       0       0       0       0       0       0
       0       0       0       0       0       0       0       0       0       0
       0       0       0       0       0       0       0       0       0       0
       0       0       0       0       0       0       0       0       0       0
       0       0       0       0       0       0       0       0       0       0
       0       0       0       0       0       0       0       0       0       0
       0       0       0       0       0       0       0       0       0       0
       0       0       0       0       0       0       0       0       0       0
       0       0       0       0       0       0       0       0       0       0
       0       0       0       0       0       0       0       0       0       0
       0       0       0       0       0       0       0       0       0       0
       0       0       0       0       0       0       0       0       0       0
       0       0       0       0       0       0       0       0       0       0
       0       0       0       0       0       0       0       0       0       0
       0       0       0       0       0       0       0       0       0       0
       0       0       0       0       0       0       0       0       0       0
       0       0       0       0       0       0       0       0       0       0
       0       0       0       0       0       0       0       0       0       0
       0       0       0       0       0       0       0       0       0       0
       0       0       0       0       0       0       0       0       0       0
       0       0       0       0       0       0       0       0       0       0
       0       0       0       0       0       0       0       0       0       0
       0       0       0       0       0       0       0       0       0       0
       0       0       0       0       0       0       0       0       0       0
       0       0       0       0       0       0       0       0       0       0
       0       0       0       0       0       0       0       0       0       0
       0       0       0       0       0       0       0       0       0       0
       0       0       0       0       0       0       0       0       0       0
       0       0       0       0       0       0       0       0       0       0
       0       0       0       0       0       0       0       0       0       0
       0       0       0       0       0       0       0       0       0       0
       0       0       0       0       0       0       0       0       0       0
       0       0       0       0       0       0       0       0       0       0
       0       0       0       0       0       0       0       0       0       0
       0       0       0       0       0       0       0       0       0       0
       0       0       0       0       0       0       0       0       0       0
       0       0       0       0       0       0       0       0       0       0
       0       0       0       0       0       0       0       0       0       0
       0       0       0       0       0       0       0       0       0       0
       0       0       0       0       0       0       0       0       0       0
       0       0       0       0       0       0       0       0       0       0
       0       0       0       0       0       0       0       0       0       0
       0       0       0       0       0       0       0       0       0       0
       0       0       0       0       0       0       0       0       0       0
       0       0       0       0       0       0       0       0       0       0
       0       0       0       0       0       0       0       0       0       0
       0       0       0       0       0       0       0       0       0       0
       0       0       0       0       0       0       0       0       0       0
       0       0       0       0       0       0       0       0       0       0
       0       0       0       0       0       0       0       0       0       0
       0       0       0       0       0       0       0       0       0       0
       0       0       0       0       0       0       0       0       0       0
       0       0       0       0       0       0       0       0       0       0
       0       0       0       0       0       0       0       0       0       0
       0       0       0       0       0       0       0       0       0       0
       0       0       0       0       0       0       0       0       0       0
       0       0       0       0       0       0       0       0       0       0
       0       0       0       0       0       0       0       0       0       0
       0       0       0       0       0       0       0       0       0       0
       0       0       0       0       0       0       0       0       0       0
       0       0       0       0       0       0       0       0       0       0
       0       0       0       0       0       0
%FLAG IROTAT                                                                    
%FORMAT(10I8)                                                                   
       0       0       0       0       0       0       0       0       0       0
       0       0       0       0       0       0       0       0       0       0
       0       0       0       0       0       0       0       0       0       0
       0       0       0       0       0       0       0       0       0       0
       0       0       0       0       0       0       0       0       0       0
       0       0       0       0       0       0       0       0       0       0
       0       0       0       0       0       0       0       0       0       0
       0       0       0       0       0       0       0       0       0       0
       0       0       0       0       0       0       0       0       0       0
       0       0       0       0       0       0       0       0       0       0
       0       0       0       0       0       0       0       0       0       0
       0       0       0       0       0       0       0       0       0       0
       0       0       0       0       0       0       0       0       0       0
       0       0       0       0       0       0       0       0       0       0
       0       0       0       0       0       0       0       0       0       0
       0       0       0       0       0       0       0       0       0       0
       0       0       0       0       0       0       0       0       0       0
       0       0       0       0       0       0       0       0       0       0
       0       0       0       0       0       0       0       0       0       0
       0       0       0       0       0       0       0       0       0       0
       0       0       0       0       0       0       0       0       0       0
       0       0       0       0       0       0       0       0       0       0
       0       0       0       0       0       0       0       0       0       0
       0       0       0       0       0       0       0       0       0       0
       0       0       0       0       0       0       0       0       0       0
       0       0       0       0       0       0       0       0       0       0
       0       0       0       0       0       0       0       0       0       0
       0       0       0       0       0       0       0       0       0       0
       0       0       0       0       0       0       0       0       0       0
       0       0       0       0       0       0       0       0       0       0
       0       0       0       0       0       0       0       0       0       0
       0       0       0       0       0       0       0       0       0       0
       0       0       0       0       0       0       0       0       0       0
       0       0       0       0       0       0       0       0       0       0
       0       0       0       0       0       0       0       0       0       0
       0       0       0       0       0       0       0       0       0       0
       0       0       0       0       0       0       0       0       0       0
       0       0       0       0       0       0       0       0       0       0
       0       0       0       0       0       0       0       0       0       0
       0       0       0       0       0       0       0       0       0       0
       0       0       0       0       0       0       0       0       0       0
       0       0       0       0       0       0       0       0       0       0
       0       0       0       0       0       0       0       0       0       0
       0       0       0       0       0       0       0       0       0       0
       0       0       0       0       0       0       0       0       0       0
       0       0       0       0       0       0       0       0       0       0
       0       0       0       0       0       0       0       0       0       0
       0       0       0       0       0       0       0       0       0       0
       0       0       0       0       0       0       0       0       0       0
       0       0       0       0       0       0       0       0       0       0
       0       0       0       0       0       0       0       0       0       0
       0       0       0       0       0       0       0       0       0       0
       0       0       0       0       0       0       0       0       0       0
       0       0       0       0       0       0       0       0       0       0
       0       0       0       0       0       0       0       0       0       0
       0       0       0       0       0       0       0       0       0       0
       0       0       0       0       0       0       0       0       0       0
       0       0       0       0       0       0       0       0       0       0
       0       0       0       0       0       0       0       0       0       0
       0       0       0       0       0       0       0       0       0       0
       0       0       0       0       0       0       0       0       0       0
       0       0       0       0       0       0       0       0       0       0
       0       0       0       0       0       0       0       0       0       0
       0       0       0       0       0       0       0       0       0       0
       0       0       0       0       0       0       0       0       0       0
       0       0       0       0       0       0       0       0       0       0
       0       0       0       0       0       0       0       0       0       0
       0       0       0       0       0       0       0       0       0       0
       0       0       0       0       0       0       0       0       0       0
       0       0       0       0       0       0       0       0       0       0
       0       0       0       0       0       0       0       0       0       0
       0       0       0       0       0       0       0       0       0       0
       0       0       0       0       0       0       0       0       0       0
       0       0       0       0       0       0       0       0       0       0
       0       0       0       0       0       0       0       0       0       0
       0       0       0       0       0       0       0       0       0       0
       0       0       0       0       0       0       0       0       0       0
       0       0       0       0       0       0       0       0       0       0
       0       0       0       0       0       0       0       0       0       0
       0       0       0       0       0       0       0       0       0       0
       0       0       0       0       0       0       0       0       0       0
       0       0       0       0       0       0       0       0       0       0
       0       0       0       0       0       0       0       0       0       0
       0       0       0       0       0       0       0       0       0       0
       0       0       0       0       0       0       0       0       0       0
       0       0       0       0       0       0       0       0       0       0
       0       0       0       0       0       0       0       0       0       0
       0       0       0       0       0       0       0       0       0       0
       0       0       0       0       0       0       0       0       0       0
       0       0       0       0       0       0       0       0       0       0
       0       0       0       0       0       0       0       0       0       0
       0       0       0       0       0       0       0       0       0       0
       0       0       0       0       0       0       0       0       0       0
       0       0       0       0       0       0       0       0       0       0
       0       0       0       0       0       0       0       0       0       0
       0       0       0       0       0       0       0       0       0       0
       0       0       0       0       0       0       0       0       0       0
       0       0       0       0       0       0       0       0       0       0
       0       0       0       0       0       0       0       0       0       0
       0       0       0       0       0       0       0       0       0       0
       0       0       0       0       0       0       0       0       0       0
       0       0       0       0       0       0       0       0       0       0
       0       0       0       0       0       0       0       0       0       0
       0       0       0       0       0       0       0       0       0       0
       0       0       0       0       0       0       0       0       0       0
       0       0       0       0       0       0       0       0       0       0
       0       0       0       0       0       0       0       0       0       0
       0       0       0       0       0       0       0       0       0       0
       0       0       0       0       0       0       0       0       0       0
       0       0       0       0       0       0       0       0       0       0
       0       0       0       0       0       0       0       0       0       0
       0       0       0       0       0       0       0       0       0       0
       0       0       0       0       0       0       0       0       0       0
       0       0       0       0       0       0       0       0       0       0
       0       0       0       0       0       0       0       0       0       0
       0       0       0       0       0       0       0       0       0       0
       0       0       0       0       0       0       0       0       0       0
       0       0       0       0       0       0       0       0       0       0
       0       0       0       0       0       0       0       0       0       0
       0       0       0       0       0       0       0       0       0       0
       0       0       0       0       0       0       0       0       0       0
       0       0       0       0       0       0       0       0       0       0
       0       0       0       0       0       0       0       0       0       0
       0       0       0       0       0       0       0       0       0       0
       0       0       0       0       0       0       0       0       0       0
       0       0       0       0       0       0       0       0       0       0
       0       0       0       0       0       0       0       0       0       0
       0       0       0       0       0       0       0       0       0       0
       0       0       0       0       0       0       0       0       0       0
       0       0       0       0       0       0       0       0       0       0
       0       0       0       0       0       0       0       0       0       0
       0       0       0       0       0       0       0       0       0       0
       0       0       0       0       0       0       0       0       0       0
       0       0       0       0       0       0       0       0       0       0
       0       0       0       0       0       0       0       0       0       0
       0       0       0       0       0       0       0       0       0       0
       0       0       0       0       0       0       0       0       0       0
       0       0       0       0       0       0       0       0       0       0
       0       0       0       0       0       0       0       0       0       0
       0       0       0       0       0       0       0       0       0       0
       0       0       0       0       0       0       0       0       0       0
       0       0       0       0       0       0       0       0       0       0
       0       0       0       0       0       0       0       0       0       0
       0       0       0       0       0       0       0       0       0       0
       0       0       0       0       0       0       0       0       0       0
       0       0       0       0       0       0       0       0       0       0
       0       0       0       0       0       0       0       0       0       0
       0       0       0       0       0       0       0       0       0       0
       0       0       0       0       0       0       0       0       0       0
       0       0       0       0       0       0       0       0       0       0
       0       0       0       0       0       0       0       0       0       0
       0       0       0       0       0       0       0       0       0       0
       0       0       0       0       0       0       0       0       0       0
       0       0       0       0       0       0       0       0       0       0
       0       0       0       0       0       0       0       0       0       0
       0       0       0       0       0       0       0       0       0       0
       0       0       0       0       0       0       0       0       0       0
       0       0       0       0       0       0       0       0       0       0
       0       0       0       0       0       0       0       0       0       0
       0       0       0       0       0       0       0       0       0       0
       0       0       0       0       0       0       0       0       0       0
       0       0       0       0       0       0       0       0       0       0
       0       0       0       0       0       0       0       0       0       0
       0       0       0       0       0       0       0       0       0       0
       0       0       0       0       0       0       0       0       0       0
       0       0       0       0       0       0       0       0       0       0
       0       0       0       0       0       0       0       0       0       0
       0       0       0       0       0       0       0       0       0       0
       0       0       0       0       0       0       0       0       0       0
       0       0       0       0       0       0       0       0       0       0
       0       0       0       0       0       0       0       0       0       0
       0       0       0       0       0       0       0       0       0       0
       0       0       0       0       0       0       0       0       0       0
       0       0       0       0       0       0       0       0       0       0
       0       0       0       0       0       0       0       0       0       0
       0       0       0       0       0       0       0       0       0       0
       0       0       0       0       0       0       0       0       0       0
       0       0       0       0       0       0       0       0       0       0
       0       0       0       0       0       0       0       0       0       0
       0       0       0       0       0       0       0       0       0       0
       0       0       0       0       0       0       0       0       0       0
       0       0       0       0       0       0       0       0       0       0
       0       0       0       0       0       0       0       0       0       0
       0       0       0       0       0       0       0       0       0       0
       0       0       0       0       0       0       0       0       0       0
       0       0       0       0       0       0       0       0       0       0
       0       0       0       0       0       0       0       0       0       0
       0       0       0       0       0       0       0       0       0       0
       0       0       0       0       0       0       0       0       0       0
       0       0       0       0       0       0       0       0       0       0
       0       0       0       0       0       0       0       0       0       0
       0       0       0       0       0       0       0       0       0       0
       0       0       0       0       0       0       0       0       0       0
       0       0       0       0       0       0       0       0       0       0
       0       0       0       0       0       0       0       0       0       0
       0       0       0       0       0       0       0       0       0       0
       0       0       0       0       0       0       0       0       0       0
       0       0       0       0       0       0       0       0       0       0
       0       0       0       0       0       0       0       0       0       0
       0       0       0       0       0       0       0       0       0       0
       0       0       0       0       0       0       0       0       0       0
       0       0       0       0       0       0       0       0       0       0
       0       0       0       0       0       0       0       0       0       0
       0       0       0       0       0       0       0       0       0       0
       0       0       0       0       0       0       0       0       0       0
       0       0       0       0       0       0       0       0       0       0
       0       0       0       0       0       0       0       0       0       0
       0       0       0       0       0       0       0       0       0       0
       0       0       0       0       0       0       0       0       0       0
       0       0       0       0       0       0       0       0       0       0
       0       0       0       0       0       0       0       0       0       0
       0       0       0       0       0       0       0       0       0       0
       0       0       0       0       0       0       0       0       0       0
       0       0       0       0       0       0       0       0       0       0
       0       0       0       0       0       0       0       0       0       0
       0       0       0       0       0       0       0       0       0       0
       0       0       0       0       0       0       0       0       0       0
       0       0       0       0       0       0       0       0       0       0
       0       0       0       0       0       0       0       0       0       0
       0       0       0       0       0       0       0       0       0       0
       0       0       0       0       0       0       0       0       0       0
       0       0       0       0       0       0       0       0       0       0
       0       0       0       0       0       0       0       0       0       0
       0       0       0       0       0       0       0       0       0       0
       0       0       0       0       0       0       0       0       0       0
       0       0       0       0       0       0       0       0       0       0
       0       0       0       0       0       0       0       0       0       0
       0       0       0       0       0       0       0       0       0       0
       0       0       0       0       0       0       0       0       0       0
       0       0       0       0       0       0       0       0       0       0
       0       0       0       0       0       0       0       0       0       0
       0       0       0       0       0       0       0       0       0       0
       0       0       0       0       0       0       0       0       0       0
       0       0       0       0       0       0       0       0       0       0
       0       0       0       0       0       0       0       0       0       0
       0       0       0       0       0       0       0       0       0       0
       0       0       0       0       0       0       0       0       0       0
       0       0       0       0       0       0       0       0       0       0
       0       0       0       0       0       0       0       0       0       0
       0       0       0       0       0       0       0       0       0       0
       0       0       0       0       0       0       0       0       0       0
       0       0       0       0       0       0       0       0       0       0
       0       0       0       0       0       0       0       0       0       0
       0       0       0       0       0       0       0       0       0       0
       0       0       0       0       0       0       0       0       0       0
       0       0       0       0       0       0       0       0       0       0
       0       0       0       0       0       0       0       0       0       0
       0       0       0       0       0       0       0       0       0       0
       0       0       0       0       0       0       0       0       0       0
       0       0       0       0       0       0       0       0       0       0
       0       0       0       0       0       0       0       0       0       0
       0       0       0       0       0       0       0       0       0       0
       0       0       0       0       0       0       0       0       0       0
       0       0       0       0       0       0       0       0       0       0
       0       0       0       0       0       0       0       0       0       0
       0       0       0       0       0       0       0       0       0       0
       0       0       0       0       0       0       0       0       0       0
       0       0       0       0       0       0       0       0       0       0
       0       0       0       0       0       0       0       0       0       0
       0       0       0       0       0       0       0       0       0       0
       0       0       0       0       0       0       0       0       0       0
       0       0       0       0       0       0       0       0       0       0
       0       0       0       0       0       0       0       0       0       0
       0       0       0       0       0       0       0       0       0       0
       0       0       0       0       0       0       0       0       0       0
       0       0       0       0       0       0       0       0       0       0
       0       0       0       0       0       0       0       0       0       0
       0       0       0       0       0       0       0       0       0       0
       0       0       0       0       0       0       0       0       0       0
       0       0       0       0       0       0       0       0       0       0
       0       0       0       0       0       0       0       0       0       0
       0       0       0       0       0       0       0       0       0       0
       0       0       0       0       0       0       0       0       0       0
       0       0       0       0       0       0       0       0       0       0
       0       0       0       0       0       0       0       0       0       0
       0       0       0       0       0       0       0       0       0       0
       0       0       0       0       0       0       0       0       0       0
       0       0       0       0       0       0       0       0       0       0
       0       0       0       0       0       0       0       0       0       0
       0       0       0       0       0       0       0       0       0       0
       0       0       0       0       0       0       0       0       0       0
       0       0       0       0       0       0       0       0       0       0
       0       0       0       0       0       0       0       0       0       0
       0       0       0       0       0       0       0       0       0       0
       0       0       0       0       0       0       0       0       0       0
       0       0       0       0       0       0       0       0       0       0
       0       0       0       0       0       0       0       0       0       0
       0       0       0       0       0       0       0       0       0       0
       0       0       0       0       0       0       0       0       0       0
       0       0       0       0       0       0       0       0       0       0
       0       0       0       0       0       0       0       0       0       0
       0       0       0       0       0       0       0       0       0       0
       0       0       0       0       0       0       0       0       0       0
       0       0       0       0       0       0       0       0       0       0
       0       0       0       0       0       0       0       0       0       0
       0       0       0       0       0       0       0       0       0       0
       0       0       0       0       0       0       0       0       0       0
       0       0       0       0       0       0       0       0       0       0
       0       0       0       0       0       0       0       0       0       0
       0       0       0       0       0       0       0       0       0       0
       0       0       0       0       0       0       0       0       0       0
       0       0       0       0       0       0       0       0       0       0
       0       0       0       0       0       0       0       0       0       0
       0       0       0       0       0       0       0       0       0       0
       0       0       0       0       0       0       0       0       0       0
       0       0       0       0       0       0       0       0       0       0
       0       0       0       0       0       0       0       0       0       0
       0       0       0       0       0       0       0       0       0       0
       0       0       0       0       0       0       0       0       0       0
       0       0       0       0       0       0       0       0       0       0
       0       0       0       0       0       0       0       0       0       0
       0       0       0       0       0       0       0       0       0       0
       0       0       0       0       0       0       0       0       0       0
       0       0       0       0       0       0       0       0       0       0
       0       0       0       0       0       0       0       0       0       0
       0       0       0       0       0       0       0       0       0       0
       0       0       0       0       0       0       0       0       0       0
       0       0       0       0       0       0       0       0       0       0
       0       0       0       0       0       0       0       0       0       0
       0       0       0       0       0       0       0       0       0       0
       0       0       0       0       0       0       0       0       0       0
       0       0       0       0       0       0       0       0       0       0
       0       0       0       0       0       0       0       0       0       0
       0       0       0       0       0       0       0       0       0       0
       0       0       0       0       0       0       0       0       0       0
       0       0       0       0       0       0       0       0       0       0
       0       0       0       0       0       0       0       0       0       0
       0       0       0       0       0       0       0       0       0       0
       0       0       0       0       0       0       0       0       0       0
       0       0       0       0       0       0       0       0       0       0
       0       0       0       0       0       0       0       0       0       0
       0       0       0       0       0       0       0       0       0       0
       0       0       0       0       0       0       0       0       0       0
       0       0       0       0       0       0       0       0       0       0
       0       0       0       0       0       0       0       0       0       0
       0       0       0       0       0       0       0       0       0       0
       0       0       0       0       0       0       0       0       0       0
       0       0       0       0       0       0       0       0       0       0
       0       0       0       0       0       0       0       0       0       0
       0       0       0       0       0       0       0       0       0       0
       0       0       0       0       0       0       0       0       0       0
       0       0       0       0       0       0       0       0       0       0
       0       0       0       0       0       0       0       0       0       0
       0       0       0       0       0       0       0       0       0       0
       0       0       0       0       0       0       0       0       0       0
       0       0       0       0       0       0       0       0       0       0
       0       0       0       0       0       0       0       0       0       0
       0       0       0       0       0       0       0       0       0       0
       0       0       0       0       0       0       0       0       0       0
       0       0       0       0       0       0       0       0       0       0
       0       0       0       0       0       0       0       0       0       0
       0       0       0       0       0       0       0       0       0       0
       0       0       0       0       0       0       0       0       0       0
       0       0       0       0       0       0       0       0       0       0
       0       0       0       0       0       0       0       0       0       0
       0       0       0       0       0       0       0       0       0       0
       0       0       0       0       0       0       0       0       0       0
       0       0       0       0       0       0       0       0       0       0
       0       0       0       0       0       0       0       0       0       0
       0       0       0       0       0       0       0       0       0       0
       0       0       0       0       0       0       0       0       0       0
       0       0       0       0       0       0       0       0       0       0
       0       0       0       0       0       0       0       0       0       0
       0       0       0       0       0       0       0       0       0       0
       0       0       0       0       0       0       0       0       0       0
       0       0       0       0       0       0       0       0       0       0
       0       0       0       0       0       0       0       0       0       0
       0       0       0       0       0       0       0       0       0       0
       0       0       0       0       0       0       0       0       0       0
       0       0       0       0       0       0       0       0       0       0
       0       0       0       0       0       0       0       0       0       0
       0       0       0       0       0       0       0       0       0       0
       0       0       0       0       0       0       0       0       0       0
       0       0       0       0       0       0       0       0       0       0
       0       0       0       0       0       0       0       0       0       0
       0       0       0       0       0       0       0       0       0       0
       0       0       0       0       0       0       0       0       0       0
       0       0       0       0       0       0       0       0       0       0
       0       0       0       0       0       0       0       0       0       0
       0       0       0       0       0       0       0       0       0       0
       0       0       0       0       0       0       0       0       0       0
       0       0       0       0       0       0       0       0       0       0
       0       0       0       0       0       0       0       0       0       0
       0       0       0       0       0       0       0       0       0       0
       0       0       0       0       0       0       0       0       0       0
       0       0       0       0       0       0       0       0       0       0
       0       0       0       0       0       0       0       0       0       0
       0       0       0       0       0       0       0       0       0       0
       0       0       0       0       0       0       0       0       0       0
       0       0       0       0       0       0       0       0       0       0
       0       0       0       0       0       0       0       0       0       0
       0       0       0       0       0       0       0       0       0       0
       0       0       0       0       0       0       0       0       0       0
       0       0       0       0       0       0       0       0       0       0
       0       0       0       0       0       0       0       0       0       0
       0       0       0       0       0       0       0       0       0       0
       0       0       0       0       0       0       0       0       0       0
       0       0       0       0       0       0       0       0       0       0
       0       0       0       0       0       0       0       0       0       0
       0       0       0       0       0       0       0       0       0       0
       0       0       0       0       0       0       0       0       0       0
       0       0       0       0       0       0       0       0       0       0
       0       0       0       0       0       0       0       0       0       0
       0       0       0       0       0       0       0       0       0       0
       0       0       0       0       0       0       0       0       0       0
       0       0       0       0       0       0       0       0       0       0
       0       0       0       0       0       0       0       0       0       0
       0       0       0       0       0       0       0       0       0       0
       0       0       0       0       0       0       0       0       0       0
       0       0       0       0       0       0       0       0       0       0
       0       0       0       0       0       0       0       0       0       0
       0       0       0       0       0       0       0       0       0       0
       0       0       0       0       0       0       0       0       0       0
       0       0       0       0       0       0       0       0       0       0
       0       0       0       0       0       0       0       0       0       0
       0       0       0       0       0       0       0       0       0       0
       0       0       0       0       0       0       0       0       0       0
       0       0       0       0       0       0       0       0       0       0
       0       0       0       0       0       0       0       0       0       0
       0       0       0       0       0       0       0       0       0       0
       0       0       0       0       0       0       0       0       0       0
       0       0       0       0       0       0       0       0       0       0
       0       0       0       0       0       0       0       0       0       0
       0       0       0       0       0       0       0       0       0       0
       0       0       0       0       0       0       0       0       0       0
       0       0       0       0       0       0       0       0       0       0
       0       0       0       0       0       0       0       0       0       0
       0       0       0       0       0       0       0       0       0       0
       0       0       0       0       0       0       0       0       0       0
       0       0       0       0       0       0       0       0       0       0
       0       0       0       0       0       0       0       0       0       0
       0       0       0       0       0       0       0       0       0       0
       0       0       0       0       0       0       0       0       0       0
       0       0       0       0       0       0       0       0       0       0
       0       0       0       0       0       0       0       0       0       0
       0       0       0       0       0       0       0       0       0       0
       0       0       0       0       0       0       0       0       0       0
       0       0       0       0       0       0       0       0       0       0
       0       0       0       0       0       0       0       0       0       0
       0       0       0       0       0       0       0       0       0       0
       0       0       0       0       0       0       0       0       0       0
       0       0       0       0       0       0       0       0       0       0
       0       0       0       0       0       0       0       0       0       0
       0       0       0       0       0       0       0       0       0       0
       0       0       0       0       0       0       0       0       0       0
       0       0       0       0       0       0       0       0       0       0
       0       0       0       0       0       0       0       0       0       0
       0       0       0       0       0       0       0       0       0       0
       0       0       0       0       0       0       0       0       0       0
       0       0       0       0       0       0       0       0       0       0
       0       0       0       0       0       0       0       0       0       0
       0       0       0       0       0       0       0       0       0       0
       0       0       0       0       0       0       0       0       0       0
       0       0       0       0       0       0       0       0       0       0
       0       0       0       0       0       0       0       0       0       0
       0       0       0       0       0       0       0       0       0       0
       0       0       0       0       0       0       0       0       0       0
       0       0       0       0       0       0       0       0       0       0
       0       0       0       0       0       0       0       0       0       0
       0       0       0       0       0       0       0       0       0       0
       0       0       0       0       0       0       0       0       0       0
       0       0       0       0       0       0       0       0       0       0
       0       0       0       0       0       0       0       0       0       0
       0       0       0       0       0       0       0       0       0       0
       0       0       0       0       0       0       0       0       0       0
       0       0       0       0       0       0       0       0       0       0
       0       0       0       0       0       0       0       0       0       0
       0       0       0       0       0       0       0       0       0       0
       0       0       0       0       0       0       0       0       0       0
       0       0       0       0       0       0       0       0       0       0
       0       0       0       0       0       0       0       0       0       0
       0       0       0       0       0       0       0       0       0       0
       0       0       0       0       0       0       0       0       0       0
       0       0       0       0       0       0       0       0       0       0
       0       0       0       0       0       0       0       0       0       0
       0       0       0       0       0       0       0       0       0       0
       0       0       0       0       0       0       0       0       0       0
       0       0       0       0       0       0       0       0       0       0
       0       0       0       0       0       0       0       0       0       0
       0       0       0       0       0       0       0       0       0       0
       0       0       0       0       0       0       0       0       0       0
       0       0       0       0       0       0       0       0       0       0
       0       0       0       0       0       0       0       0       0       0
       0       0       0       0       0       0       0       0       0       0
       0       0       0       0       0       0       0       0       0       0
       0       0       0       0       0       0       0       0       0       0
       0       0       0       0       0       0       0       0       0       0
       0       0       0       0       0       0       0       0       0       0
       0       0       0       0       0       0       0       0       0       0
       0       0       0       0       0       0       0       0       0       0
       0       0       0       0       0       0       0       0       0       0
       0       0       0       0       0       0       0       0       0       0
       0       0       0       0       0       0       0       0       0       0
       0       0       0       0       0       0       0       0       0       0
       0       0       0       0       0       0       0       0       0       0
       0       0       0       0       0       0       0       0       0       0
       0       0       0       0       0       0       0       0       0       0
       0       0       0       0       0       0       0       0       0       0
       0       0       0       0       0       0       0       0       0       0
       0       0       0       0       0       0       0       0       0       0
       0       0       0       0       0       0       0       0       0       0
       0       0       0       0       0       0       0       0       0       0
       0       0       0       0       0       0       0       0       0       0
       0       0       0       0       0       0       0       0       0       0
       0       0       0       0       0       0       0       0       0       0
       0       0       0       0       0       0       0       0       0       0
       0       0       0       0       0       0       0       0       0       0
       0       0       0       0       0       0       0       0       0       0
       0       0       0       0       0       0       0       0       0       0
       0       0       0       0       0       0       0       0       0       0
       0       0       0       0       0       0       0       0       0       0
       0       0       0       0       0       0       0       0       0       0
       0       0       0       0       0       0       0       0       0       0
       0       0       0       0       0       0       0       0       0       0
       0       0       0       0       0       0       0       0       0       0
       0       0       0       0       0       0       0       0       0       0
       0       0       0       0       0       0       0       0       0       0
       0       0       0       0       0       0       0       0       0       0
       0       0       0       0       0       0       0       0       0       0
       0       0       0       0       0       0       0       0       0       0
       0       0       0       0       0       0       0       0       0       0
       0       0       0       0       0       0       0       0       0       0
       0       0       0       0       0       0       0       0       0       0
       0       0       0       0       0       0       0       0       0       0
       0       0       0       0       0       0       0       0       0       0
       0       0       0       0       0       0       0       0       0       0
       0       0       0       0       0       0       0       0       0       0
       0       0       0       0       0       0       0       0       0       0
       0       0       0       0       0       0       0       0       0       0
       0       0       0       0       0       0       0       0       0       0
       0       0       0       0       0       0       0       0       0       0
       0       0       0       0       0       0       0       0       0       0
       0       0       0       0       0       0       0       0       0       0
       0       0       0       0       0       0       0       0       0       0
       0       0       0       0       0       0       0       0       0       0
       0       0       0       0       0       0       0       0       0       0
       0       0       0       0       0       0       0       0       0       0
       0       0       0       0       0       0       0       0       0       0
       0       0       0       0       0       0       0       0       0       0
       0       0       0       0       0       0       0       0       0       0
       0       0       0       0       0       0       0       0       0       0
       0       0       0       0       0       0       0       0       0       0
       0       0       0       0       0       0       0       0       0       0
       0       0       0       0       0       0       0       0       0       0
       0       0       0       0       0       0       0       0       0       0
       0       0       0       0       0       0       0       0       0       0
       0       0       0       0       0       0       0       0       0       0
       0       0       0       0       0       0       0       0       0       0
       0       0       0       0       0       0       0       0       0       0
       0       0       0       0       0       0       0       0       0       0
       0       0       0       0       0       0       0       0       0       0
       0       0       0       0       0       0       0       0       0       0
       0       0       0       0       0       0       0       0       0       0
       0       0       0       0       0       0       0       0       0       0
       0       0       0       0       0       0       0       0       0       0
       0       0       0       0       0       0       0       0       0       0
       0       0       0       0       0       0       0       0       0       0
       0       0       0       0       0       0       0       0       0       0
       0       0       0       0       0       0       0       0       0       0
       0       0       0       0       0       0       0       0       0       0
       0       0       0       0       0       0       0       0       0       0
       0       0       0       0       0       0       0       0       0       0
       0       0       0       0       0       0       0       0       0       0
       0       0       0       0       0       0       0       0       0       0
       0       0       0       0       0       0       0       0       0       0
       0       0       0       0       0       0       0       0       0       0
       0       0       0       0       0       0       0       0       0       0
       0       0       0       0       0       0       0       0       0       0
       0       0       0       0       0       0       0       0       0       0
       0       0       0       0       0       0       0       0       0       0
       0       0       0       0       0       0       0       0       0       0
       0       0       0       0       0       0       0       0       0       0
       0       0       0       0       0       0       0       0       0       0
       0       0       0       0       0       0       0       0       0       0
       0       0       0       0       0       0       0       0       0       0
       0       0       0       0       0       0       0       0       0       0
       0       0       0       0       0       0       0       0       0       0
       0       0       0       0       0       0       0       0       0       0
       0       0       0       0       0       0       0       0       0       0
       0       0       0       0       0       0       0       0       0       0
       0       0       0       0       0       0       0       0       0       0
       0       0       0       0       0       0       0       0       0       0
       0       0       0       0       0       0       0       0       0       0
       0       0       0       0       0       0       0       0       0       0
       0       0       0       0       0       0       0       0       0       0
       0       0       0       0       0       0       0       0       0       0
       0       0       0       0       0       0       0       0       0       0
       0       0       0       0       0       0       0       0       0       0
       0       0       0       0       0       0       0       0       0       0
       0       0       0       0       0       0       0       0       0       0
       0       0       0       0       0       0       0       0       0       0
       0       0       0       0       0       0       0       0       0       0
       0       0       0       0       0       0       0       0       0       0
       0       0       0       0       0       0       0       0       0       0
       0       0       0       0       0       0       0       0       0       0
       0       0       0       0       0       0       0       0       0       0
       0       0       0       0       0       0       0       0       0       0
       0       0       0       0       0       0       0       0       0       0
       0       0       0       0       0       0       0       0       0       0
       0       0       0       0       0       0       0       0       0       0
       0       0       0       0       0       0       0       0       0       0
       0       0       0       0       0       0       0       0       0       0
       0       0       0       0       0       0       0       0       0       0
       0       0       0       0       0       0       0       0       0       0
       0       0       0       0       0       0       0       0       0       0
       0       0       0       0       0       0       0       0       0       0
       0       0       0       0       0       0       0       0       0       0
       0       0       0       0       0       0       0       0       0       0
       0       0       0       0       0       0       0       0       0       0
       0       0       0       0       0       0       0       0       0       0
       0       0       0       0       0       0       0       0       0       0
       0       0       0       0       0       0       0       0       0       0
       0       0       0       0       0       0       0       0       0       0
       0       0       0       0       0       0       0       0       0       0
       0       0       0       0       0       0       0       0       0       0
       0       0       0       0       0       0       0       0       0       0
       0       0       0       0       0       0       0       0       0       0
       0       0       0       0       0       0       0       0       0       0
       0       0       0       0       0       0       0       0       0       0
       0       0       0       0       0       0       0       0       0       0
       0       0       0       0       0       0       0       0       0       0
       0       0       0       0       0       0       0       0       0       0
       0       0       0       0       0       0       0       0       0       0
       0       0       0       0       0       0       0       0       0       0
       0       0       0       0       0       0       0       0       0       0
       0       0       0       0       0       0       0       0       0       0
       0       0       0       0       0       0       0       0       0       0
       0       0       0       0       0       0       0       0       0       0
       0       0       0       0       0       0       0       0       0       0
       0       0       0       0       0       0       0       0       0       0
       0       0       0       0       0       0       0       0       0       0
       0       0       0       0       0       0       0       0       0       0
       0       0       0       0       0       0       0       0       0       0
       0       0       0       0       0       0       0       0       0       0
       0       0       0       0       0       0       0       0       0       0
       0       0       0       0       0       0       0       0       0       0
       0       0       0       0       0       0       0       0       0       0
       0       0       0       0       0       0       0       0       0       0
       0       0       0       0       0       0       0       0       0       0
       0       0       0       0       0       0       0       0       0       0
       0       0       0       0       0       0       0       0       0       0
       0       0       0       0       0       0       0       0       0       0
       0       0       0       0       0       0       0       0       0       0
       0       0       0       0       0       0       0       0       0       0
       0       0       0       0       0       0       0       0       0       0
       0       0       0       0       0       0       0       0       0       0
       0       0       0       0       0       0       0       0       0       0
       0       0       0       0       0       0       0       0       0       0
       0       0       0       0       0       0       0       0       0       0
       0       0       0       0       0       0       0       0       0       0
       0       0       0       0       0       0       0       0       0       0
       0       0       0       0       0       0       0       0       0       0
       0       0       0       0       0       0       0       0       0       0
       0       0       0       0       0       0       0       0       0       0
       0       0       0       0       0       0       0       0       0       0
       0       0       0       0       0       0       0       0       0       0
       0       0       0       0       0       0       0       0       0       0
       0       0       0       0       0       0       0       0       0       0
       0       0       0       0       0       0       0       0       0       0
       0       0       0       0       0       0       0       0       0       0
       0       0       0       0       0       0       0       0       0       0
       0       0       0       0       0       0       0       0       0       0
       0       0       0       0       0       0       0       0       0       0
       0       0       0       0       0       0       0       0       0       0
       0       0       0       0       0       0       0       0       0       0
       0       0       0       0       0       0       0       0       0       0
       0       0       0       0       0       0       0       0       0       0
       0       0       0       0       0       0       0       0       0       0
       0       0       0       0       0       0       0       0       0       0
       0       0       0       0       0       0       0       0       0       0
       0       0       0       0       0       0       0       0       0       0
       0       0       0       0       0       0       0       0       0       0
       0       0       0       0       0       0       0       0       0       0
       0       0       0       0       0       0       0       0       0       0
       0       0       0       0       0       0       0       0       0       0
       0       0       0       0       0       0       0       0       0       0
       0       0       0       0       0       0       0       0       0       0
       0       0       0       0       0       0       0       0       0       0
       0       0       0       0       0       0       0       0       0       0
       0       0       0       0       0       0       0       0       0       0
       0       0       0       0       0       0       0       0       0       0
       0       0       0       0       0       0       0       0       0       0
       0       0       0       0       0       0       0       0       0       0
       0       0       0       0       0       0       0       0       0       0
       0       0       0       0       0       0       0       0       0       0
       0       0       0       0       0       0       0       0       0       0
       0       0       0       0       0       0       0       0       0       0
       0       0       0       0       0       0       0       0       0       0
       0       0       0       0       0       0       0       0       0       0
       0       0       0       0       0       0       0       0       0       0
       0       0       0       0       0       0       0       0       0       0
       0       0       0       0       0       0       0       0       0       0
       0       0       0       0       0       0       0       0       0       0
       0       0       0       0       0       0       0       0       0       0
       0       0       0       0       0       0       0       0       0       0
       0       0       0       0       0       0       0       0       0       0
       0       0       0       0       0       0       0       0       0       0
       0       0       0       0       0       0       0       0       0       0
       0       0       0       0       0       0       0       0       0       0
       0       0       0       0       0       0       0       0       0       0
       0       0       0       0       0       0       0       0       0       0
       0       0       0       0       0       0       0       0       0       0
       0       0       0       0       0       0       0       0       0       0
       0       0       0       0       0       0       0       0       0       0
       0       0       0       0       0       0       0       0       0       0
       0       0       0       0       0       0       0       0       0       0
       0       0       0       0       0       0       0       0       0       0
       0       0       0       0       0       0       0       0       0       0
       0       0       0       0       0       0       0       0       0       0
       0       0       0       0       0       0       0       0       0       0
       0       0       0       0       0       0       0       0       0       0
       0       0       0       0       0       0       0       0       0       0
       0       0       0       0       0       0       0       0       0       0
       0       0       0       0       0       0       0       0       0       0
       0       0       0       0       0       0       0       0       0       0
       0       0       0       0       0       0       0       0       0       0
       0       0       0       0       0       0       0       0       0       0
       0       0       0       0       0       0       0       0       0       0
       0       0       0       0       0       0       0       0       0       0
       0       0       0       0       0       0       0       0       0       0
       0       0       0       0       0       0       0       0       0       0
       0       0       0       0       0       0       0       0       0       0
       0       0       0       0       0       0       0       0       0       0
       0       0       0       0       0       0       0       0       0       0
       0       0       0       0       0       0       0       0       0       0
       0       0       0       0       0       0       0       0       0       0
       0       0       0       0       0       0       0       0       0       0
       0       0       0       0       0       0       0       0       0       0
       0       0       0       0       0       0       0       0       0       0
       0       0       0       0       0       0       0       0       0       0
       0       0       0       0       0       0       0       0       0       0
       0       0       0       0       0       0       0       0       0       0
       0       0       0       0       0       0       0       0       0       0
       0       0       0       0       0       0       0       0       0       0
       0       0       0       0       0       0       0       0       0       0
       0       0       0       0       0       0       0       0       0       0
       0       0       0       0       0       0       0       0       0       0
       0       0       0       0       0       0       0       0       0       0
       0       0       0       0       0       0       0       0       0       0
       0       0       0       0       0       0       0       0       0       0
       0       0       0       0       0       0       0       0       0       0
       0       0       0       0       0       0       0       0       0       0
       0       0       0       0       0       0       0       0       0       0
       0       0       0       0       0       0       0       0       0       0
       0       0       0       0       0       0       0       0       0       0
       0       0       0       0       0       0       0       0       0       0
       0       0       0       0       0       0       0       0       0       0
       0       0       0       0       0       0       0       0       0       0
       0       0       0       0       0       0       0       0       0       0
       0       0       0       0       0       0       0       0       0       0
       0       0       0       0       0       0       0       0       0       0
       0       0       0       0       0       0       0       0       0       0
       0       0       0       0       0       0       0       0       0       0
       0       0       0       0       0       0       0       0       0       0
       0       0       0       0       0       0       0       0       0       0
       0       0       0       0       0       0       0       0       0       0
       0       0       0       0       0       0       0       0       0       0
       0       0       0       0       0       0       0       0       0       0
       0       0       0       0       0       0       0       0       0       0
       0       0       0       0       0       0       0       0       0       0
       0       0       0       0       0       0       0       0       0       0
       0       0       0       0       0       0       0       0       0       0
       0       0       0       0       0       0       0       0       0       0
       0       0       0       0       0       0       0       0       0       0
       0       0       0       0       0       0       0       0       0       0
       0       0       0       0       0       0       0       0       0       0
       0       0       0       0       0       0       0       0       0       0
       0       0       0       0       0       0       0       0       0       0
       0       0       0       0       0       0       0       0       0       0
       0       0       0       0       0       0       0       0       0       0
       0       0       0       0       0       0       0       0       0       0
       0       0       0       0       0       0       0       0       0       0
       0       0       0       0       0       0       0       0       0       0
       0       0       0       0       0       0       0       0       0       0
       0       0       0       0       0       0       0       0       0       0
       0       0       0       0       0       0       0       0       0       0
       0       0       0       0       0       0       0       0       0       0
       0       0       0       0       0       0       0       0       0       0
       0       0       0       0       0       0       0       0       0       0
       0       0       0       0       0       0       0       0       0       0
       0       0       0       0       0       0       0       0       0       0
       0       0       0       0       0       0       0       0       0       0
       0       0       0       0       0       0       0       0       0       0
       0       0       0       0       0       0       0       0       0       0
       0       0       0       0       0       0       0       0       0       0
       0       0       0       0       0       0       0       0       0       0
       0       0       0       0       0       0       0       0       0       0
       0       0       0       0       0       0       0       0       0       0
       0       0       0       0       0       0       0       0       0       0
       0       0       0       0       0       0       0       0       0       0
       0       0       0       0       0       0       0       0       0       0
       0       0       0       0       0       0       0       0       0       0
       0       0       0       0       0       0       0       0       0       0
       0       0       0       0       0       0       0       0       0       0
       0       0       0       0       0       0       0       0       0       0
       0       0       0       0       0       0       0       0       0       0
       0       0       0       0       0       0       0       0       0       0
       0       0       0       0       0       0       0       0       0       0
       0       0       0       0       0       0       0       0       0       0
       0       0       0       0       0       0       0       0       0       0
       0       0       0       0       0       0       0       0       0       0
       0       0       0       0       0       0       0       0       0       0
       0       0       0       0       0       0       0       0       0       0
       0       0       0       0       0       0       0       0       0       0
       0       0       0       0       0       0       0       0       0       0
       0       0       0       0       0       0       0       0       0       0
       0       0       0       0       0       0       0       0       0       0
       0       0       0       0       0       0       0       0       0       0
       0       0       0       0       0       0       0       0       0       0
       0       0       0       0       0       0       0       0       0       0
       0       0       0       0       0       0       0       0       0       0
       0       0       0       0       0       0       0       0       0       0
       0       0       0       0       0       0       0       0       0       0
       0       0       0       0       0       0       0       0       0       0
       0       0       0       0       0       0       0       0       0       0
       0       0       0       0       0       0       0       0       0       0
       0       0       0       0       0       0       0       0       0       0
       0       0       0       0       0       0       0       0       0       0
       0       0       0       0       0       0       0       0       0       0
       0       0       0       0       0       0       0       0       0       0
       0       0       0       0       0       0       0       0       0       0
       0       0       0       0       0       0       0       0       0       0
       0       0       0       0       0       0       0       0       0       0
       0       0       0       0       0       0       0       0       0       0
       0       0       0       0       0       0       0       0       0       0
       0       0       0       0       0       0       0       0       0       0
       0       0       0       0       0       0       0       0       0       0
       0       0       0       0       0       0       0       0       0       0
       0       0       0       0       0       0       0       0       0       0
       0       0       0       0       0       0       0       0       0       0
       0       0       0       0       0       0       0       0       0       0
       0       0       0       0       0       0       0       0       0       0
       0       0       0       0       0       0       0       0       0       0
       0       0       0       0       0       0       0       0       0       0
       0       0       0       0       0       0       0       0       0       0
       0       0       0       0       0       0       0       0       0       0
       0       0       0       0       0       0       0       0       0       0
       0       0       0       0       0       0       0       0       0       0
       0       0       0       0       0       0       0       0       0       0
       0       0       0       0       0       0       0       0       0       0
       0       0       0       0       0       0       0       0       0       0
       0       0       0       0       0       0       0       0       0       0
       0       0       0       0       0       0       0       0       0       0
       0       0       0       0       0       0       0       0       0       0
       0       0       0       0       0       0       0       0       0       0
       0       0       0       0       0       0       0       0       0       0
       0       0       0       0       0       0       0       0       0       0
       0       0       0       0       0       0       0       0       0       0
       0       0       0       0       0       0       0       0       0       0
       0       0       0       0       0       0       0       0       0       0
       0       0       0       0       0       0       0       0       0       0
       0       0       0       0       0       0       0       0       0       0
       0       0       0       0       0       0       0       0       0       0
       0       0       0       0       0       0       0       0       0       0
       0       0       0       0       0       0       0       0       0       0
       0       0       0       0       0       0       0       0       0       0
       0       0       0       0       0       0       0       0       0       0
       0       0       0       0       0       0       0       0       0       0
       0       0       0       0       0       0       0       0       0       0
       0       0       0       0       0       0       0       0       0       0
       0       0       0       0       0       0       0       0       0       0
       0       0       0       0       0       0       0       0       0       0
       0       0       0       0       0       0       0       0       0       0
       0       0       0       0       0       0       0       0       0       0
       0       0       0       0       0       0       0       0       0       0
       0       0       0       0       0       0       0       0       0       0
       0       0       0       0       0       0       0       0       0       0
       0       0       0       0       0       0       0       0       0       0
       0       0       0       0       0       0       0       0       0       0
       0       0       0       0       0       0       0       0       0       0
       0       0       0       0       0       0       0       0       0       0
       0       0       0       0       0       0       0       0       0       0
       0       0       0       0       0       0       0       0       0       0
       0       0       0       0       0       0       0       0       0       0
       0       0       0       0       0       0       0       0       0       0
       0       0       0       0       0       0       0       0       0       0
       0       0       0       0       0       0       0       0       0       0
       0       0       0       0       0       0       0       0       0       0
       0       0       0       0       0       0       0       0       0       0
       0       0       0       0       0       0       0       0       0       0
       0       0       0       0       0       0       0       0       0       0
       0       0       0       0       0       0       0       0       0       0
       0       0       0       0       0       0       0       0       0       0
       0       0       0       0       0       0       0       0       0       0
       0       0       0       0       0       0       0       0       0       0
       0       0       0       0       0       0       0       0       0       0
       0       0       0       0       0       0       0       0       0       0
       0       0       0       0       0       0       0       0       0       0
       0       0       0       0       0       0       0       0       0       0
       0       0       0       0       0       0       0       0       0       0
       0       0       0       0       0       0       0       0       0       0
       0       0       0       0       0       0       0       0       0       0
       0       0       0       0       0       0       0       0       0       0
       0       0       0       0       0       0       0       0       0       0
       0       0       0       0       0       0       0       0       0       0
       0       0       0       0       0       0       0       0       0       0
       0       0       0       0       0       0       0       0       0       0
       0       0       0       0       0       0       0       0       0       0
       0       0       0       0       0       0       0       0       0       0
       0       0       0       0       0       0       0       0       0       0
       0       0       0       0       0       0       0       0       0       0
       0       0       0       0       0       0       0       0       0       0
       0       0       0       0       0       0       0       0       0       0
       0       0       0       0       0       0       0       0       0       0
       0       0       0       0       0       0       0       0       0       0
       0       0       0       0       0       0       0       0       0       0
       0       0       0       0       0       0       0       0       0       0
       0       0       0       0       0       0       0       0       0       0
       0       0       0       0       0       0       0       0       0       0
       0       0       0       0       0       0       0       0       0       0
       0       0       0       0       0       0       0       0       0       0
       0       0       0       0       0       0       0       0       0       0
       0       0       0       0       0       0       0       0       0       0
       0       0       0       0       0       0       0       0       0       0
       0       0       0       0       0       0       0       0       0       0
       0       0       0       0       0       0       0       0       0       0
       0       0       0       0       0       0       0       0       0       0
       0       0       0       0       0       0       0       0       0       0
       0       0       0       0       0       0       0       0       0       0
       0       0       0       0       0       0       0       0       0       0
       0       0       0       0       0       0       0       0       0       0
       0       0       0       0       0       0       0       0       0       0
       0       0       0       0       0       0       0       0       0       0
       0       0       0       0       0       0       0       0       0       0
       0       0       0       0       0       0       0       0       0       0
       0       0       0       0       0       0       0       0       0       0
       0       0       0       0       0       0       0       0       0       0
       0       0       0       0       0       0       0       0       0       0
       0       0       0       0       0       0       0       0       0       0
       0       0       0       0       0       0       0       0       0       0
       0       0       0       0       0       0       0       0       0       0
       0       0       0       0       0       0       0       0       0       0
       0       0       0       0       0       0       0       0       0       0
       0       0       0       0       0       0       0       0       0       0
       0       0       0       0       0       0       0       0       0       0
       0       0       0       0       0       0       0       0       0       0
       0       0       0       0       0       0       0       0       0       0
       0       0       0       0       0       0       0       0       0       0
       0       0       0       0       0       0       0       0       0       0
       0       0       0       0       0       0       0       0       0       0
       0       0       0       0       0       0       0       0       0       0
       0       0       0       0       0       0       0       0       0       0
       0       0       0       0       0       0       0       0       0       0
       0       0       0       0       0       0       0       0       0       0
       0       0       0       0       0       0       0       0       0       0
       0       0       0       0       0       0       0       0       0       0
       0       0       0       0       0       0       0       0       0       0
       0       0       0       0       0       0       0       0       0       0
       0       0       0       0       0       0       0       0       0       0
       0       0       0       0       0       0       0       0       0       0
       0       0       0       0       0       0       0       0       0       0
       0       0       0       0       0       0       0       0       0       0
       0       0       0       0       0       0       0       0       0       0
       0       0       0       0       0       0       0       0       0       0
       0       0       0       0       0       0       0       0       0       0
       0       0       0       0       0       0       0       0       0       0
       0       0       0       0       0       0       0       0       0       0
       0       0       0       0       0       0       0       0       0       0
       0       0       0       0       0       0       0       0       0       0
       0       0       0       0       0       0       0       0       0       0
       0       0       0       0       0       0       0       0       0       0
       0       0       0       0       0       0       0       0       0       0
       0       0       0       0       0       0       0       0       0       0
       0       0       0       0       0       0       0       0       0       0
       0       0       0       0       0       0       0       0       0       0
       0       0       0       0       0       0       0       0       0       0
       0       0       0       0       0       0       0       0       0       0
       0       0       0       0       0       0       0       0       0       0
       0       0       0       0       0       0       0       0       0       0
       0       0       0       0       0       0       0       0       0       0
       0       0       0       0       0       0       0       0       0       0
       0       0       0       0       0       0       0       0       0       0
       0       0       0       0       0       0       0       0       0       0
       0       0       0       0       0       0       0       0       0       0
       0       0       0       0       0       0       0       0       0       0
       0       0       0       0       0       0       0       0       0       0
       0       0       0       0       0       0       0       0       0       0
       0       0       0       0       0       0       0       0       0       0
       0       0       0       0       0       0       0       0       0       0
       0       0       0       0       0       0       0       0       0       0
       0       0       0       0       0       0       0       0       0       0
       0       0       0       0       0       0       0       0       0       0
       0       0       0       0       0       0       0       0       0       0
       0       0       0       0       0       0       0       0       0       0
       0       0       0       0       0       0       0       0       0       0
       0       0       0       0       0       0       0       0       0       0
       0       0       0       0       0       0       0       0       0       0
       0       0       0       0       0       0       0       0       0       0
       0       0       0       0       0       0       0       0       0       0
       0       0       0       0       0       0       0       0       0       0
       0       0       0       0       0       0       0       0       0       0
       0       0       0       0       0       0       0       0       0       0
       0       0       0       0       0       0       0       0       0       0
       0       0       0       0       0       0       0       0       0       0
       0       0       0       0       0       0       0       0       0       0
       0       0       0       0       0       0       0       0       0       0
       0       0       0       0       0       0       0       0       0       0
       0       0       0       0       0       0       0       0       0       0
       0       0       0       0       0       0       0       0       0       0
       0       0       0       0       0       0       0       0       0       0
       0       0       0       0       0       0       0       0       0       0
       0       0       0       0       0       0       0       0       0       0
       0       0       0       0       0       0       0       0       0       0
       0       0       0       0       0       0       0       0       0       0
       0       0       0       0       0       0       0       0       0       0
       0       0       0       0       0       0       0       0       0       0
       0       0       0       0       0       0       0       0       0       0
       0       0       0       0       0       0       0       0       0       0
       0       0       0       0       0       0       0       0       0       0
       0       0       0       0       0       0       0       0       0       0
       0       0       0       0       0       0       0       0       0       0
       0       0       0       0       0       0       0       0       0       0
       0       0       0       0       0       0       0       0       0       0
       0       0       0       0       0       0       0       0       0       0
       0       0       0       0       0       0       0       0       0       0
       0       0       0       0       0       0       0       0       0       0
       0       0       0       0       0       0       0       0       0       0
       0       0       0       0       0       0       0       0       0       0
       0       0       0       0       0       0       0       0       0       0
       0       0       0       0       0       0       0       0       0       0
       0       0       0       0       0       0       0       0       0       0
       0       0       0       0       0       0       0       0       0       0
       0       0       0       0       0       0       0       0       0       0
       0       0       0       0       0       0       0       0       0       0
       0       0       0       0       0       0       0       0       0       0
       0       0       0       0       0       0       0       0       0       0
       0       0       0       0       0       0       0       0       0       0
       0       0       0       0       0       0       0       0       0       0
       0       0       0       0       0       0       0       0       0       0
       0       0       0       0       0       0       0       0       0       0
       0       0       0       0       0       0       0       0       0       0
       0       0       0       0       0       0       0       0       0       0
       0       0       0       0       0       0       0       0       0       0
       0       0       0       0       0       0       0       0       0       0
       0       0       0       0       0       0       0       0       0       0
       0       0       0       0       0       0       0       0       0       0
       0       0       0       0       0       0       0       0       0       0
       0       0       0       0       0       0       0       0       0       0
       0       0       0       0       0       0       0       0       0       0
       0       0       0       0       0       0       0       0       0       0
       0       0       0       0       0       0       0       0       0       0
       0       0       0       0       0       0       0       0       0       0
       0       0       0       0       0       0       0       0       0       0
       0       0       0       0       0       0       0       0       0       0
       0       0       0       0       0       0       0       0       0       0
       0       0       0       0       0       0       0       0       0       0
       0       0       0       0       0       0       0       0       0       0
       0       0       0       0       0       0       0       0       0       0
       0       0       0       0       0       0       0       0       0       0
       0       0       0       0       0       0       0       0       0       0
       0       0       0       0       0       0       0       0       0       0
       0       0       0       0       0       0       0       0       0       0
       0       0       0       0       0       0       0       0       0       0
       0       0       0       0       0       0       0       0       0       0
       0       0       0       0       0       0       0       0       0       0
       0       0       0       0       0       0       0       0       0       0
       0       0       0       0       0       0       0       0       0       0
       0       0       0       0       0       0       0       0       0       0
       0       0       0       0       0       0       0       0       0       0
       0       0       0       0       0       0       0       0       0       0
       0       0       0       0       0       0       0       0       0       0
       0       0       0       0       0       0       0       0       0       0
       0       0       0       0       0       0       0       0       0       0
       0       0       0       0       0       0       0       0       0       0
       0       0       0       0       0       0       0       0       0       0
       0       0       0       0       0       0       0       0       0       0
       0       0       0       0       0       0       0       0       0       0
       0       0       0       0       0       0       0       0       0       0
       0       0       0       0       0       0       0       0       0       0
       0       0       0       0       0       0       0       0       0       0
       0       0       0       0       0       0       0       0       0       0
       0       0       0       0       0       0       0       0       0       0
       0       0       0       0       0       0       0       0       0       0
       0       0       0       0       0       0       0       0       0       0
       0       0       0       0       0       0       0       0       0       0
       0       0       0       0       0       0       0       0       0       0
       0       0       0       0       0       0       0       0       0       0
       0       0       0       0       0       0       0       0       0       0
       0       0       0       0       0       0       0       0       0       0
       0       0       0       0       0       0       0       0       0       0
       0       0       0       0       0       0       0       0       0       0
       0       0       0       0       0       0       0       0       0       0
       0       0       0       0       0       0       0       0       0       0
       0       0       0       0       0       0       0       0       0       0
       0       0       0       0       0       0       0       0       0       0
       0       0       0       0       0       0       0       0       0       0
       0       0       0       0       0       0       0       0       0       0
       0       0       0       0       0       0       0       0       0       0
       0       0       0       0       0       0       0       0       0       0
       0       0       0       0       0       0       0       0       0       0
       0       0       0       0       0       0       0       0       0       0
       0       0       0       0       0       0       0       0       0       0
       0       0       0       0       0       0       0       0       0       0
       0       0       0       0       0       0       0       0       0       0
       0       0       0       0       0       0       0       0       0       0
       0       0       0       0       0       0       0       0       0       0
       0       0       0       0       0       0       0       0       0       0
       0       0       0       0       0       0       0       0       0       0
       0       0       0       0       0       0       0       0       0       0
       0       0       0       0       0       0       0       0       0       0
       0       0       0       0       0       0       0       0       0       0
       0       0       0       0       0       0       0       0       0       0
       0       0       0       0       0       0       0       0       0       0
       0       0       0       0       0       0       0       0       0       0
       0       0       0       0       0       0       0       0       0       0
       0       0       0       0       0       0       0       0       0       0
       0       0       0       0       0       0       0       0       0       0
       0       0       0       0       0       0       0       0       0       0
       0       0       0       0       0       0       0       0       0       0
       0       0       0       0       0       0       0       0       0       0
       0       0       0       0       0       0       0       0       0       0
       0       0       0       0       0       0       0       0       0       0
       0       0       0       0       0       0       0       0       0       0
       0       0       0       0       0       0       0       0       0       0
       0       0       0       0       0       0       0       0       0       0
       0       0       0       0       0       0       0       0       0       0
       0       0       0       0       0       0       0       0       0       0
       0       0       0       0       0       0       0       0       0       0
       0       0       0       0       0       0       0       0       0       0
       0       0       0       0       0       0       0       0       0       0
       0       0       0       0       0       0       0       0       0       0
       0       0       0       0       0       0       0       0       0       0
       0       0       0       0       0       0       0       0       0       0
       0       0       0       0       0       0       0       0       0       0
       0       0       0       0       0       0       0       0       0       0
       0       0       0       0       0       0       0       0       0       0
       0       0       0       0       0       0       0       0       0       0
       0       0       0       0       0       0       0       0       0       0
       0       0       0       0       0       0       0       0       0       0
       0       0       0       0       0       0       0       0       0       0
       0       0       0       0       0       0       0       0       0       0
       0       0       0       0       0       0       0       0       0       0
       0       0       0       0       0       0       0       0       0       0
       0       0       0       0       0       0       0       0       0       0
       0       0       0       0       0       0       0       0       0       0
       0       0       0       0       0       0       0       0       0       0
       0       0       0       0       0       0       0       0       0       0
       0       0       0       0       0       0       0       0       0       0
       0       0       0       0       0       0       0       0       0       0
       0       0       0       0       0       0       0       0       0       0
       0       0       0       0       0       0       0       0       0       0
       0       0       0       0       0       0       0       0       0       0
       0       0       0       0       0       0       0       0       0       0
       0       0       0       0       0       0       0       0       0       0
       0       0       0       0       0       0       0       0       0       0
       0       0       0       0       0       0       0       0       0       0
       0       0       0       0       0       0       0       0       0       0
       0       0       0       0       0       0       0       0       0       0
       0       0       0       0       0       0       0       0       0       0
       0       0       0       0       0       0       0       0       0       0
       0       0       0       0       0       0       0       0       0       0
       0       0       0       0       0       0       0       0       0       0
       0       0       0       0       0       0       0       0       0       0
       0       0       0       0       0       0       0       0       0       0
       0       0       0       0       0       0       0       0       0       0
       0       0       0       0       0       0       0       0       0       0
       0       0       0       0       0       0       0       0       0       0
       0       0       0       0       0       0       0       0       0       0
       0       0       0       0       0       0       0       0       0       0
       0       0       0       0       0       0       0       0       0       0
       0       0       0       0       0       0       0       0       0       0
       0       0       0       0       0       0       0       0       0       0
       0       0       0       0       0       0       0       0       0       0
       0       0       0       0       0       0       0       0       0       0
       0       0       0       0       0       0       0       0       0       0
       0       0       0       0       0       0       0       0       0       0
       0       0       0       0       0       0       0       0       0       0
       0       0       0       0       0       0       0       0       0       0
       0       0       0       0       0       0       0       0       0       0
       0       0       0       0       0       0       0       0       0       0
       0       0       0       0       0       0       0       0       0       0
       0       0       0       0       0       0       0       0       0       0
       0       0       0       0       0       0       0       0       0       0
       0       0       0       0       0       0       0       0       0       0
       0       0       0       0       0       0       0       0       0       0
       0       0       0       0       0       0       0       0       0       0
       0       0       0       0       0       0       0       0       0       0
       0       0       0       0       0       0       0       0       0       0
       0       0       0       0       0       0       0       0       0       0
       0       0       0       0       0       0       0       0       0       0
       0       0       0       0       0       0       0       0       0       0
       0       0       0       0       0       0       0       0       0       0
       0       0       0       0       0       0       0       0       0       0
       0       0       0       0       0       0       0       0       0       0
       0       0       0       0       0       0       0       0       0       0
       0       0       0       0       0       0       0       0       0       0
       0       0       0       0       0       0       0       0       0       0
       0       0       0       0       0       0       0       0       0       0
       0       0       0       0       0       0       0       0       0       0
       0       0       0       0       0       0       0       0       0       0
       0       0       0       0       0       0       0       0       0       0
       0       0       0       0       0       0       0       0       0       0
       0       0       0       0       0       0       0       0       0       0
       0       0       0       0       0       0       0       0       0       0
       0       0       0       0       0       0       0       0       0       0
       0       0       0       0       0       0       0       0       0       0
       0       0       0       0       0       0       0       0       0       0
       0       0       0       0       0       0       0       0       0       0
       0       0       0       0       0       0       0       0       0       0
       0       0       0       0       0       0       0       0       0       0
       0       0       0       0       0       0       0       0       0       0
       0       0       0       0       0       0       0       0       0       0
       0       0       0       0       0       0       0       0       0       0
       0       0       0       0       0       0       0       0       0       0
       0       0       0       0       0       0       0       0       0       0
       0       0       0       0       0       0       0       0       0       0
       0       0       0       0       0       0       0       0       0       0
       0       0       0       0       0       0       0       0       0       0
       0       0       0       0       0       0       0       0       0       0
       0       0       0       0       0       0       0       0       0       0
       0       0       0       0       0       0       0       0       0       0
       0       0       0       0       0       0       0       0       0       0
       0       0       0       0       0       0       0       0       0       0
       0       0       0       0       0       0       0       0       0       0
       0       0       0       0       0       0       0       0       0       0
       0       0       0       0       0       0       0       0       0       0
       0       0       0       0       0       0       0       0       0       0
       0       0       0       0       0       0       0       0       0       0
       0       0       0       0       0       0       0       0       0       0
       0       0       0       0       0       0       0       0       0       0
       0       0       0       0       0       0       0       0       0       0
       0       0       0       0       0       0       0       0       0       0
       0       0       0       0       0       0       0       0       0       0
       0       0       0       0       0       0       0       0       0       0
       0       0       0       0       0       0       0       0       0       0
       0       0       0       0       0       0       0       0       0       0
       0       0       0       0       0       0       0       0       0       0
       0       0       0       0       0       0       0       0       0       0
       0       0       0       0       0       0       0       0       0       0
       0       0       0       0       0       0       0       0       0       0
       0       0       0       0       0       0       0       0       0       0
       0       0       0       0       0       0       0       0       0       0
       0       0       0       0       0       0       0       0       0       0
       0       0       0       0       0       0       0       0       0       0
       0       0       0       0       0       0       0       0       0       0
       0       0       0       0       0       0       0       0       0       0
       0       0       0       0       0       0       0       0       0       0
       0       0       0       0       0       0       0       0       0       0
       0       0       0       0       0       0       0       0       0       0
       0       0       0       0       0       0       0       0       0       0
       0       0       0       0       0       0       0       0       0       0
       0       0       0       0       0       0       0       0       0       0
       0       0       0       0       0       0       0       0       0       0
       0       0       0       0       0       0       0       0       0       0
       0       0       0       0       0       0       0       0       0       0
       0       0       0       0       0       0       0       0       0       0
       0       0       0       0       0       0       0       0       0       0
       0       0       0       0       0       0       0       0       0       0
       0       0       0       0       0       0       0       0       0       0
       0       0       0       0       0       0       0       0       0       0
       0       0       0       0       0       0       0       0       0       0
       0       0       0       0       0       0       0       0       0       0
       0       0       0       0       0       0       0       0       0       0
       0       0       0       0       0       0       0       0       0       0
       0       0       0       0       0       0       0       0       0       0
       0       0       0       0       0       0       0       0       0       0
       0       0       0       0       0       0       0       0       0       0
       0       0       0       0       0       0       0       0       0       0
       0       0       0       0       0       0       0       0       0       0
       0       0       0       0       0       0       0       0       0       0
       0       0       0       0       0       0       0       0       0       0
       0       0       0       0       0       0       0       0       0       0
       0       0       0       0       0       0       0       0       0       0
       0       0       0       0       0       0       0       0       0       0
       0       0       0       0       0       0       0       0       0       0
       0       0       0       0       0       0       0       0       0       0
       0       0       0       0       0       0       0       0       0       0
       0       0       0       0       0       0       0       0       0       0
       0       0       0       0       0       0       0       0       0       0
       0       0       0       0       0       0       0       0       0       0
       0       0       0       0       0       0       0       0       0       0
       0       0       0       0       0       0       0       0       0       0
       0       0       0       0       0       0       0       0       0       0
       0       0       0       0       0       0       0       0       0       0
       0       0       0       0       0       0       0       0       0       0
       0       0       0       0       0       0       0       0       0       0
       0       0       0       0       0       0       0       0       0       0
       0       0       0       0       0       0       0       0       0       0
       0       0       0       0       0       0       0       0       0       0
       0       0       0       0       0       0       0       0       0       0
       0       0       0       0       0       0       0       0       0       0
       0       0       0       0       0       0       0       0       0       0
       0       0       0       0       0       0       0       0       0       0
       0       0       0       0       0       0       0       0       0       0
       0       0       0       0       0       0       0       0       0       0
       0       0       0       0       0       0       0       0       0       0
       0       0       0       0       0       0       0       0       0       0
       0       0       0       0       0       0       0       0       0       0
       0       0       0       0       0       0       0       0       0       0
       0       0       0       0       0       0       0       0       0       0
       0       0       0       0       0       0       0       0       0       0
       0       0       0       0       0       0       0       0       0       0
       0       0       0       0       0       0       0       0       0       0
       0       0       0       0       0       0       0       0       0       0
       0       0       0       0       0       0       0       0       0       0
       0       0       0       0       0       0       0       0       0       0
       0       0       0       0       0       0       0       0       0       0
       0       0       0       0       0       0       0       0       0       0
       0       0       0       0       0       0       0       0       0       0
       0       0       0       0       0       0       0       0       0       0
       0       0       0       0       0       0       0       0       0       0
       0       0       0       0       0       0       0       0       0       0
       0       0       0       0       0       0       0       0       0       0
       0       0       0       0       0       0       0       0       0       0
       0       0       0       0       0       0       0       0       0       0
       0       0       0       0       0       0       0       0       0       0
       0       0       0       0       0       0       0       0       0       0
       0       0       0       0       0       0       0       0       0       0
       0       0       0       0       0       0       0       0       0       0
       0       0       0       0       0       0       0       0       0       0
       0       0       0       0       0       0       0       0       0       0
       0       0       0       0       0       0       0       0       0       0
       0       0       0       0       0       0       0       0       0       0
       0       0       0       0       0       0       0       0       0       0
       0       0       0       0       0       0       0       0       0       0
       0       0       0       0       0       0       0       0       0       0
       0       0       0       0       0       0       0       0       0       0
       0       0       0       0       0       0       0       0       0       0
       0       0       0       0       0       0       0       0       0       0
       0       0       0       0       0       0       0       0       0       0
       0       0       0       0       0       0       0       0       0       0
       0       0       0       0       0       0       0       0       0       0
       0       0       0       0       0       0       0       0       0       0
       0       0       0       0       0       0       0       0       0       0
       0       0       0       0       0       0       0       0       0       0
       0       0       0       0       0       0       0       0       0       0
       0       0       0       0       0       0       0       0       0       0
       0       0       0       0       0       0       0       0       0       0
       0       0       0       0       0       0       0       0       0       0
       0       0       0       0       0       0       0       0       0       0
       0       0       0       0       0       0       0       0       0       0
       0       0       0       0       0       0       0       0       0       0
       0       0       0       0       0       0       0       0       0       0
       0       0       0       0       0       0       0       0       0       0
       0       0       0       0       0       0       0       0       0       0
       0       0       0       0       0       0       0       0       0       0
       0       0       0       0       0       0       0       0       0       0
       0       0       0       0       0       0       0       0       0       0
       0       0       0       0       0       0       0       0       0       0
       0       0       0       0       0       0       0       0       0       0
       0       0       0       0       0       0       0       0       0       0
       0       0       0       0       0       0       0       0       0       0
       0       0       0       0       0       0       0       0       0       0
       0       0       0       0       0       0       0       0       0       0
       0       0       0       0       0       0       0       0       0       0
       0       0       0       0       0       0       0       0       0       0
       0       0       0       0       0       0       0       0       0       0
       0       0       0       0       0       0       0       0       0       0
       0       0       0       0       0       0       0       0       0       0
       0       0       0       0       0       0       0       0       0       0
       0       0       0       0       0       0       0       0       0       0
       0       0       0       0       0       0       0       0       0       0
       0       0       0       0       0       0       0       0       0       0
       0       0       0       0       0       0       0       0       0       0
       0       0       0       0       0       0       0       0       0       0
       0       0       0       0       0       0       0       0       0       0
       0       0       0       0       0       0       0       0       0       0
       0       0       0       0       0       0       0       0       0       0
       0       0       0       0       0       0       0       0       0       0
       0       0       0       0       0       0       0       0       0       0
       0       0       0       0       0       0       0       0       0       0
       0       0       0       0       0       0       0       0       0       0
       0       0       0       0       0       0       0       0       0       0
       0       0       0       0       0       0       0       0       0       0
       0       0       0       0       0       0       0       0       0       0
       0       0       0       0       0       0       0       0       0       0
       0       0       0       0       0       0       0       0       0       0
       0       0       0       0       0       0       0       0       0       0
       0       0       0       0       0       0       0       0       0       0
       0       0       0       0       0       0       0       0       0       0
       0       0       0       0       0       0       0       0       0       0
       0       0       0       0       0       0       0       0       0       0
       0       0       0       0       0       0       0       0       0       0
       0       0       0       0       0       0       0       0       0       0
       0       0       0       0       0       0       0       0       0       0
       0       0       0       0       0       0       0       0       0       0
       0       0       0       0       0       0       0       0       0       0
       0       0       0       0       0       0       0       0       0       0
       0       0       0       0       0       0       0       0       0       0
       0       0       0       0       0       0       0       0       0       0
       0       0       0       0       0       0       0       0       0       0
       0       0       0       0       0       0       0       0       0       0
       0       0       0       0       0       0       0       0       0       0
       0       0       0       0       0       0       0       0       0       0
       0       0       0       0       0       0       0       0       0       0
       0       0       0       0       0       0       0       0       0       0
       0       0       0       0       0       0       0       0       0       0
       0       0       0       0       0       0       0       0       0       0
       0       0       0       0       0       0       0       0       0       0
       0       0       0       0       0       0       0       0       0       0
       0       0       0       0       0       0       0       0       0       0
       0       0       0       0       0       0       0       0       0       0
       0       0       0       0       0       0       0       0       0       0
       0       0       0       0       0       0       0       0       0       0
       0       0       0       0       0       0       0       0       0       0
       0       0       0       0       0       0       0       0       0       0
       0       0       0       0       0       0       0       0       0       0
       0       0       0       0       0       0       0       0       0       0
       0       0       0       0       0       0       0       0       0       0
       0       0       0       0       0       0       0       0       0       0
       0       0       0       0       0       0       0       0       0       0
       0       0       0       0       0       0       0       0       0       0
       0       0       0       0       0       0       0       0       0       0
       0       0       0       0       0       0       0       0       0       0
       0       0       0       0       0       0       0       0       0       0
       0       0       0       0       0       0       0       0       0       0
       0       0       0       0       0       0       0       0       0       0
       0       0       0       0       0       0       0       0       0       0
       0       0       0       0       0       0       0       0       0       0
       0       0       0       0       0       0       0       0       0       0
       0       0       0       0       0       0       0       0       0       0
       0       0       0       0       0       0       0       0       0       0
       0       0       0       0       0       0       0       0       0       0
       0       0       0       0       0       0       0       0       0       0
       0       0       0       0       0       0       0       0       0       0
       0       0       0       0       0       0       0       0       0       0
       0       0       0       0       0       0       0       0       0       0
       0       0       0       0       0       0       0       0       0       0
       0       0       0       0       0       0       0       0       0       0
       0       0       0       0       0       0       0       0       0       0
       0       0       0       0       0       0       0       0       0       0
       0       0       0       0       0       0       0       0       0       0
       0       0       0       0       0       0       0       0       0       0
       0       0       0       0       0       0       0       0       0       0
       0       0       0       0       0       0       0       0       0       0
       0       0       0       0       0       0       0       0       0       0
       0       0       0       0       0       0       0       0       0       0
       0       0       0       0       0       0       0       0       0       0
       0       0       0       0       0       0       0       0       0       0
       0       0       0       0       0       0       0       0       0       0
       0       0       0       0       0       0       0       0       0       0
       0       0       0       0       0       0       0       0       0       0
       0       0       0       0       0       0       0       0       0       0
       0       0       0       0       0       0       0       0       0       0
       0       0       0       0       0       0       0       0       0       0
       0       0       0       0       0       0       0       0       0       0
       0       0       0       0       0       0       0       0       0       0
       0       0       0       0       0       0       0       0       0       0
       0       0       0       0       0       0       0       0       0       0
       0       0       0       0       0       0       0       0       0       0
       0       0       0       0       0       0       0       0       0       0
       0       0       0       0       0       0       0       0       0       0
       0       0       0       0       0       0       0       0       0       0
       0       0       0       0       0       0       0       0       0       0
       0       0       0       0       0       0       0       0       0       0
       0       0       0       0       0       0       0       0       0       0
       0       0       0       0       0       0       0       0       0       0
       0       0       0       0       0       0       0       0       0       0
       0       0       0       0       0       0       0       0       0       0
       0       0       0       0       0       0       0       0       0       0
       0       0       0       0       0       0       0       0       0       0
       0       0       0       0       0       0       0       0       0       0
       0       0       0       0       0       0       0       0       0       0
       0       0       0       0       0       0       0       0       0       0
       0       0       0       0       0       0       0       0       0       0
       0       0       0       0       0       0       0       0       0       0
       0       0       0       0       0       0       0       0       0       0
       0       0       0       0       0       0       0       0       0       0
       0       0       0       0       0       0       0       0       0       0
       0       0       0       0       0       0       0       0       0       0
       0       0       0       0       0       0       0       0       0       0
       0       0       0       0       0       0       0       0       0       0
       0       0       0       0       0       0       0       0       0       0
       0       0       0       0       0       0       0       0       0       0
       0       0       0       0       0       0       0       0       0       0
       0       0       0       0       0       0       0       0       0       0
       0       0       0       0       0       0       0       0       0       0
       0       0       0       0       0       0       0       0       0       0
       0       0       0       0       0       0       0       0       0       0
       0       0       0       0       0       0       0       0       0       0
       0       0       0       0       0       0       0       0       0       0
       0       0       0       0       0       0       0       0       0       0
       0       0       0       0       0       0       0       0       0       0
       0       0       0       0       0       0       0       0       0       0
       0       0       0       0       0       0       0       0       0       0
       0       0       0       0       0       0       0       0       0       0
       0       0       0       0       0       0       0       0       0       0
       0       0       0       0       0       0       0       0       0       0
       0       0       0       0       0       0       0       0       0       0
       0       0       0       0       0       0       0       0       0       0
       0       0       0       0       0       0       0       0       0       0
       0       0       0       0       0       0       0       0       0       0
       0       0       0       0       0       0       0       0       0       0
       0       0       0       0       0       0       0       0       0       0
       0       0       0       0       0       0       0       0       0       0
       0       0       0       0       0       0       0       0       0       0
       0       0       0       0       0       0       0       0       0       0
       0       0       0       0       0       0       0       0       0       0
       0       0       0       0       0       0       0       0       0       0
       0       0       0       0       0       0       0       0       0       0
       0       0       0       0       0       0       0       0       0       0
       0       0       0       0       0       0       0       0       0       0
       0       0       0       0       0       0       0       0       0       0
       0       0       0       0       0       0       0       0       0       0
       0       0       0       0       0       0       0       0       0       0
       0       0       0       0       0       0       0       0       0       0
       0       0       0       0       0       0       0       0       0       0
       0       0       0       0       0       0       0       0       0       0
       0       0       0       0       0       0       0       0       0       0
       0       0       0       0       0       0       0       0       0       0
       0       0       0       0       0       0       0       0       0       0
       0       0       0       0       0       0       0       0       0       0
       0       0       0       0       0       0       0       0       0       0
       0       0       0       0       0       0       0       0       0       0
       0       0       0       0       0       0       0       0       0       0
       0       0       0       0       0       0       0       0       0       0
       0       0       0       0       0       0       0       0       0       0
       0       0       0       0       0       0       0       0       0       0
       0       0       0       0       0       0       0       0       0       0
       0       0       0       0       0       0       0       0       0       0
       0       0       0       0       0       0       0       0       0       0
       0       0       0       0       0       0       0       0       0       0
       0       0       0       0       0       0       0       0       0       0
       0       0       0       0       0       0       0       0       0       0
       0       0       0       0       0       0       0       0       0       0
       0       0       0       0       0       0       0       0       0       0
       0       0       0       0       0       0       0       0       0       0
       0       0       0       0       0       0       0       0       0       0
       0       0       0       0       0       0       0       0       0       0
       0       0       0       0       0       0       0       0       0       0
       0       0       0       0       0       0       0       0       0       0
       0       0       0       0       0       0       0       0       0       0
       0       0       0       0       0       0       0       0       0       0
       0       0       0       0       0       0       0       0       0       0
       0       0       0       0       0       0       0       0       0       0
       0       0       0       0       0       0       0       0       0       0
       0       0       0       0       0       0       0       0       0       0
       0       0       0       0       0       0       0       0       0       0
       0       0       0       0       0       0       0       0       0       0
       0       0       0       0       0       0       0       0       0       0
       0       0       0       0       0       0       0       0       0       0
       0       0       0       0       0       0       0       0       0       0
       0       0       0       0       0       0       0       0       0       0
       0       0       0       0       0       0       0       0       0       0
       0       0       0       0       0       0       0       0       0       0
       0       0       0       0       0       0       0       0       0       0
       0       0       0       0       0       0       0       0       0       0
       0       0       0       0       0       0       0       0       0       0
       0       0       0       0       0       0       0       0       0       0
       0       0       0       0       0       0       0       0       0       0
       0       0       0       0       0       0       0       0       0       0
       0       0       0       0       0       0       0       0       0       0
       0       0       0       0       0       0       0       0       0       0
       0       0       0       0       0       0       0       0       0       0
       0       0       0       0       0       0       0       0       0       0
       0       0       0       0       0       0       0       0       0       0
       0       0       0       0       0       0       0       0       0       0
       0       0       0       0       0       0       0       0       0       0
       0       0       0       0       0       0       0       0       0       0
       0       0       0       0       0       0       0       0       0       0
       0       0       0       0       0       0       0       0       0       0
       0       0       0       0       0       0       0       0       0       0
       0       0       0       0       0       0       0       0       0       0
       0       0       0       0       0       0       0       0       0       0
       0       0       0       0       0       0       0       0       0       0
       0       0       0       0       0       0       0       0       0       0
       0       0       0       0       0       0       0       0       0       0
       0       0       0       0       0       0       0       0       0       0
       0       0       0       0       0       0       0       0       0       0
       0       0       0       0       0       0       0       0       0       0
       0       0       0       0       0       0       0       0       0       0
       0       0       0       0       0       0       0       0       0       0
       0       0       0       0       0       0       0       0       0       0
       0       0       0       0       0       0       0       0       0       0
       0       0       0       0       0       0       0       0       0       0
       0       0       0       0       0       0       0       0       0       0
       0       0       0       0       0       0       0       0       0       0
       0       0       0       0       0       0       0       0       0       0
       0       0       0       0       0       0       0       0       0       0
       0       0       0       0       0       0       0       0       0       0
       0       0       0       0       0       0       0       0       0       0
       0       0       0       0       0       0       0       0       0       0
       0       0       0       0       0       0       0       0       0       0
       0       0       0       0       0       0       0       0       0       0
       0       0       0       0       0       0       0       0       0       0
       0       0       0       0       0       0       0       0       0       0
       0       0       0       0       0       0       0       0       0       0
       0       0       0       0       0       0       0       0       0       0
       0       0       0       0       0       0       0       0       0       0
       0       0       0       0       0       0       0       0       0       0
       0       0       0       0       0       0       0       0       0       0
       0       0       0       0       0       0       0       0       0       0
       0       0       0       0       0       0       0       0       0       0
       0       0       0       0       0       0       0       0       0       0
       0       0       0       0       0       0       0       0       0       0
       0       0       0       0       0       0       0       0       0       0
       0       0       0       0       0       0       0       0       0       0
       0       0       0       0       0       0       0       0       0       0
       0       0       0       0       0       0       0       0       0       0
       0       0       0       0       0       0       0       0       0       0
       0       0       0       0       0       0       0       0       0       0
       0       0       0       0       0       0       0       0       0       0
       0       0       0       0       0       0       0       0       0       0
       0       0       0       0       0       0       0       0       0       0
       0       0       0       0       0       0       0       0       0       0
       0       0       0       0       0       0       0       0       0       0
       0       0       0       0       0       0       0       0       0       0
       0       0       0       0       0       0       0       0       0       0
       0       0       0       0       0       0       0       0       0       0
       0       0       0       0       0       0       0       0       0       0
       0       0       0       0       0       0       0       0       0       0
       0       0       0       0       0       0       0       0       0       0
       0       0       0       0       0       0       0       0       0       0
       0       0       0       0       0       0       0       0       0       0
       0       0       0       0       0       0       0       0       0       0
       0       0       0       0       0       0       0       0       0       0
       0       0       0       0       0       0       0       0       0       0
       0       0       0       0       0       0       0       0       0       0
       0       0       0       0       0       0       0       0       0       0
       0       0       0       0       0       0       0       0       0       0
       0       0       0       0       0       0       0       0       0       0
       0       0       0       0       0       0       0       0       0       0
       0       0       0       0       0       0       0       0       0       0
       0       0       0       0       0       0       0       0       0       0
       0       0       0       0       0       0       0       0       0       0
       0       0       0       0       0       0       0       0       0       0
       0       0       0       0       0       0       0       0       0       0
       0       0       0       0       0       0       0       0       0       0
       0       0       0       0       0       0       0       0       0       0
       0       0       0       0       0       0       0       0       0       0
       0       0       0       0       0       0       0       0       0       0
       0       0       0       0       0       0       0       0       0       0
       0       0       0       0       0       0       0       0       0       0
       0       0       0       0       0       0       0       0       0       0
       0       0       0       0       0       0       0       0       0       0
       0       0       0       0       0       0       0       0       0       0
       0       0       0       0       0       0       0       0       0       0
       0       0       0       0       0       0       0       0       0       0
       0       0       0       0       0       0       0       0       0       0
       0       0       0       0       0       0       0       0       0       0
       0       0       0       0       0       0       0       0       0       0
       0       0       0       0       0       0       0       0       0       0
       0       0       0       0       0       0       0       0       0       0
       0       0       0       0       0       0       0       0       0       0
       0       0       0       0       0       0       0       0       0       0
       0       0       0       0       0       0       0       0       0       0
       0       0       0       0       0       0       0       0       0       0
       0       0       0       0       0       0       0       0       0       0
       0       0       0       0       0       0       0       0       0       0
       0       0       0       0       0       0       0       0       0       0
       0       0       0       0       0       0       0       0       0       0
       0       0       0       0       0       0       0       0       0       0
       0       0       0       0       0       0       0       0       0       0
       0       0       0       0       0       0       0       0       0       0
       0       0       0       0       0       0       0       0       0       0
       0       0       0       0       0       0       0       0       0       0
       0       0       0       0       0       0       0       0       0       0
       0       0       0       0       0       0       0       0       0       0
       0       0       0       0       0       0       0       0       0       0
       0       0       0       0       0       0       0       0       0       0
       0       0       0       0       0       0       0       0       0       0
       0       0       0       0       0       0       0       0       0       0
       0       0       0       0       0       0       0       0       0       0
       0       0       0       0       0       0       0       0       0       0
       0       0       0       0       0       0       0       0       0       0
       0       0       0       0       0       0       0       0       0       0
       0       0       0       0       0       0       0       0       0       0
       0       0       0       0       0       0       0       0       0       0
       0       0       0       0       0       0       0       0       0       0
       0       0       0       0       0       0       0       0       0       0
       0       0       0       0       0       0       0       0       0       0
       0       0       0       0       0       0       0       0       0       0
       0       0       0       0       0       0       0       0       0       0
       0       0       0       0       0       0       0       0       0       0
       0       0       0       0       0       0       0       0       0       0
       0       0       0       0       0       0       0       0       0       0
       0       0       0       0       0       0       0       0       0       0
       0       0       0       0       0       0       0       0       0       0
       0       0       0       0       0       0       0       0       0       0
       0       0       0       0       0       0       0       0       0       0
       0       0       0       0       0       0       0       0       0       0
       0       0       0       0       0       0       0       0       0       0
       0       0       0       0       0       0       0       0       0       0
       0       0       0       0       0       0       0       0       0       0
       0       0       0       0       0       0       0       0       0       0
       0       0       0       0       0       0       0       0       0       0
       0       0       0       0       0       0       0       0       0       0
       0       0       0       0       0       0       0       0       0       0
       0       0       0       0       0       0       0       0       0       0
       0       0       0       0       0       0       0       0       0       0
       0       0       0       0       0       0       0       0       0       0
       0       0       0       0       0       0       0       0       0       0
       0       0       0       0       0       0       0       0       0       0
       0       0       0       0       0       0       0       0       0       0
       0       0       0       0       0       0       0       0       0       0
       0       0       0       0       0       0       0       0       0       0
       0       0       0       0       0       0       0       0       0       0
       0       0       0       0       0       0       0       0       0       0
       0       0       0       0       0       0       0       0       0       0
       0       0       0       0       0       0       0       0       0       0
       0       0       0       0       0       0       0       0       0       0
       0       0       0       0       0       0       0       0       0       0
       0       0       0       0       0       0       0       0       0       0
       0       0       0       0       0       0       0       0       0       0
       0       0       0       0       0       0       0       0       0       0
       0       0       0       0       0       0       0       0       0       0
       0       0       0       0       0       0       0       0       0       0
       0       0       0       0       0       0       0       0       0       0
       0       0       0       0       0       0       0       0       0       0
       0       0       0       0       0       0       0       0       0       0
       0       0       0       0       0       0       0       0       0       0
       0       0       0       0       0       0       0       0       0       0
       0       0       0       0       0       0       0       0       0       0
       0       0       0       0       0       0       0       0       0       0
       0       0       0       0       0       0       0       0       0       0
       0       0       0       0       0       0       0       0       0       0
       0       0       0       0       0       0       0       0       0       0
       0       0       0       0       0       0       0       0       0       0
       0       0       0       0       0       0       0       0       0       0
       0       0       0       0       0       0       0       0       0       0
       0       0       0       0       0       0       0       0       0       0
       0       0       0       0       0       0       0       0       0       0
       0       0       0       0       0       0       0       0       0       0
       0       0       0       0       0       0       0       0       0       0
       0       0       0       0       0       0       0       0       0       0
       0       0       0       0       0       0       0       0       0       0
       0       0       0       0       0       0       0       0       0       0
       0       0       0       0       0       0       0       0       0       0
       0       0       0       0       0       0       0       0       0       0
       0       0       0       0       0       0       0       0       0       0
       0       0       0       0       0       0       0       0       0       0
       0       0       0       0       0       0       0       0       0       0
       0       0       0       0       0       0       0       0       0       0
       0       0       0       0       0       0       0       0       0       0
       0       0       0       0       0       0       0       0       0       0
       0       0       0       0       0       0       0       0       0       0
       0       0       0       0       0       0       0       0       0       0
       0       0       0       0       0       0       0       0       0       0
       0       0       0       0       0       0       0       0       0       0
       0       0       0       0       0       0       0       0       0       0
       0       0       0       0       0       0       0       0       0       0
       0       0       0       0       0       0       0       0       0       0
       0       0       0       0       0       0       0       0       0       0
       0       0       0       0       0       0       0       0       0       0
       0       0       0       0       0       0       0       0       0       0
       0       0       0       0       0       0       0       0       0       0
       0       0       0       0       0       0       0       0       0       0
       0       0       0       0       0       0       0       0       0       0
       0       0       0       0       0       0       0       0       0       0
       0       0       0       0       0       0       0       0       0       0
       0       0       0       0       0       0       0       0       0       0
       0       0       0       0       0       0       0       0       0       0
       0       0       0       0       0       0       0       0       0       0
       0       0       0       0       0       0       0       0       0       0
       0       0       0       0       0       0       0       0       0       0
       0       0       0       0       0       0       0       0       0       0
       0       0       0       0       0       0       0       0       0       0
       0       0       0       0       0       0       0       0       0       0
       0       0       0       0       0       0       0       0       0       0
       0       0       0       0       0       0       0       0       0       0
       0       0       0       0       0       0       0       0       0       0
       0       0       0       0       0       0       0       0       0       0
       0       0       0       0       0       0       0       0       0       0
       0       0       0       0       0       0       0       0       0       0
       0       0       0       0       0       0       0       0       0       0
       0       0       0       0       0       0       0       0       0       0
       0       0       0       0       0       0       0       0       0       0
       0       0       0       0       0       0       0       0       0       0
       0       0       0       0       0       0       0       0       0       0
       0       0       0       0       0       0       0       0       0       0
       0       0       0       0       0       0       0       0       0       0
       0       0       0       0       0       0       0       0       0       0
       0       0       0       0       0       0       0       0       0       0
       0       0       0       0       0       0       0       0       0       0
       0       0       0       0       0       0       0       0       0       0
       0       0       0       0       0       0       0       0       0       0
       0       0       0       0       0       0       0       0       0       0
       0       0       0       0       0       0       0       0       0       0
       0       0       0       0       0       0       0       0       0       0
       0       0       0       0       0       0       0       0       0       0
       0       0       0       0       0       0       0       0       0       0
       0       0       0       0       0       0       0       0       0       0
       0       0       0       0       0       0       0       0       0       0
       0       0       0       0       0       0       0       0       0       0
       0       0       0       0       0       0       0       0       0       0
       0       0       0       0       0       0       0       0       0       0
       0       0       0       0       0       0       0       0       0       0
       0       0       0       0       0       0       0       0       0       0
       0       0       0       0       0       0       0       0       0       0
       0       0       0       0       0       0       0       0       0       0
       0       0       0       0       0       0       0       0       0       0
       0       0       0       0       0       0       0       0       0       0
       0       0       0       0       0       0       0       0       0       0
       0       0       0       0       0       0       0       0       0       0
       0       0       0       0       0       0       0       0       0       0
       0       0       0       0       0       0       0       0       0       0
       0       0       0       0       0       0       0       0       0       0
       0       0       0       0       0       0       0       0       0       0
       0       0       0       0       0       0       0       0       0       0
       0       0       0       0       0       0       0       0       0       0
       0       0       0       0       0       0       0       0       0       0
       0       0       0       0       0       0       0       0       0       0
       0       0       0       0       0       0       0       0       0       0
       0       0       0       0       0       0       0       0       0       0
       0       0       0       0       0       0       0       0       0       0
       0       0       0       0       0       0       0       0       0       0
       0       0       0       0       0       0       0       0       0       0
       0       0       0       0       0       0       0       0       0       0
       0       0       0       0       0       0       0       0       0       0
       0       0       0       0       0       0       0       0       0       0
       0       0       0       0       0       0       0       0       0       0
       0       0       0       0       0       0       0       0       0       0
       0       0       0       0       0       0       0       0       0       0
       0       0       0       0       0       0       0       0       0       0
       0       0       0       0       0       0       0       0       0       0
       0       0       0       0       0       0       0       0       0       0
       0       0       0       0       0       0       0       0       0       0
       0       0       0       0       0       0       0       0       0       0
       0       0       0       0       0       0       0       0       0       0
       0       0       0       0       0       0       0       0       0       0
       0       0       0       0       0       0       0       0       0       0
       0       0       0       0       0       0       0       0       0       0
       0       0       0       0       0       0       0       0       0       0
       0       0       0       0       0       0       0       0       0       0
       0       0       0       0       0       0       0       0       0       0
       0       0       0       0       0       0       0       0       0       0
       0       0       0       0       0       0       0       0       0       0
       0       0       0       0       0       0       0       0       0       0
       0       0       0       0       0       0       0       0       0       0
       0       0       0       0       0       0       0       0       0       0
       0       0       0       0       0       0       0       0       0       0
       0       0       0       0       0       0       0       0       0       0
       0       0       0       0       0       0       0       0       0       0
       0       0       0       0       0       0       0       0       0       0
       0       0       0       0       0       0       0       0       0       0
       0       0       0       0       0       0       0       0       0       0
       0       0       0       0       0       0       0       0       0       0
       0       0       0       0       0       0       0       0       0       0
       0       0       0       0       0       0       0       0       0       0
       0       0       0       0       0       0       0       0       0       0
       0       0       0       0       0       0       0       0       0       0
       0       0       0       0       0       0       0       0       0       0
       0       0       0       0       0       0       0       0       0       0
       0       0       0       0       0       0       0       0       0       0
       0       0       0       0       0       0       0       0       0       0
       0       0       0       0       0       0       0       0       0       0
       0       0       0       0       0       0       0       0       0       0
       0       0       0       0       0       0       0       0       0       0
       0       0       0       0       0       0       0       0       0       0
       0       0       0       0       0       0       0       0       0       0
       0       0       0       0       0       0       0       0       0       0
       0       0       0       0       0       0       0       0       0       0
       0       0       0       0       0       0       0       0       0       0
       0       0       0       0       0       0       0       0       0       0
       0       0       0       0       0       0       0       0       0       0
       0       0       0       0       0       0       0       0       0       0
       0       0       0       0       0       0       0       0       0       0
       0       0       0       0       0       0       0       0       0       0
       0       0       0       0       0       0       0       0       0       0
       0       0       0       0       0       0       0       0       0       0
       0       0       0       0       0       0       0       0       0       0
       0       0       0       0       0       0       0       0       0       0
       0       0       0       0       0       0       0       0       0       0
       0       0       0       0       0       0       0       0       0       0
       0       0       0       0       0       0       0       0       0       0
       0       0       0       0       0       0       0       0       0       0
       0       0       0       0       0       0       0       0       0       0
       0       0       0       0       0       0       0       0       0       0
       0       0       0       0       0       0       0       0       0       0
       0       0       0       0       0       0       0       0       0       0
       0       0       0       0       0       0       0       0       0       0
       0       0       0       0       0       0       0       0       0       0
       0       0       0       0       0       0       0       0       0       0
       0       0       0       0       0       0       0       0       0       0
       0       0       0       0       0       0       0       0       0       0
       0       0       0       0       0       0       0       0       0       0
       0       0       0       0       0       0       0       0       0       0
       0       0       0       0       0       0       0       0       0       0
       0       0       0       0       0       0       0       0       0       0
       0       0       0       0       0       0       0       0       0       0
       0       0       0       0       0       0       0       0       0       0
       0       0       0       0       0       0       0       0       0       0
       0       0       0       0       0       0       0       0       0       0
       0       0       0       0       0       0       0       0       0       0
       0       0       0       0       0       0       0       0       0       0
       0       0       0       0       0       0       0       0       0       0
       0       0       0       0       0       0       0       0       0       0
       0       0       0       0       0       0       0       0       0       0
       0       0       0       0       0       0       0       0       0       0
       0       0       0       0       0       0       0       0       0       0
       0       0       0       0       0       0       0       0       0       0
       0       0       0       0       0       0       0       0       0       0
       0       0       0       0       0       0       0       0       0       0
       0       0       0       0       0       0       0       0       0       0
       0       0       0       0       0       0       0       0       0       0
       0       0       0       0       0       0       0       0       0       0
       0       0       0       0       0       0       0       0       0       0
       0       0       0       0       0       0       0       0       0       0
       0       0       0       0       0       0       0       0       0       0
       0       0       0       0       0       0       0       0       0       0
       0       0       0       0       0       0       0       0       0       0
       0       0       0       0       0       0       0       0       0       0
       0       0       0       0       0       0       0       0       0       0
       0       0       0       0       0       0       0       0       0       0
       0       0       0       0       0       0       0       0       0       0
       0       0       0       0       0       0       0       0       0       0
       0       0       0       0       0       0       0       0       0       0
       0       0       0       0       0       0       0       0       0       0
       0       0       0       0       0       0       0       0       0       0
       0       0       0       0       0       0       0       0       0       0
       0       0       0       0       0       0       0       0       0       0
       0       0       0       0       0       0       0       0       0       0
       0       0       0       0       0       0       0       0       0       0
       0       0       0       0       0       0       0       0       0       0
       0       0       0       0       0       0       0       0       0       0
       0       0       0       0       0       0       0       0       0       0
       0       0       0       0       0       0       0       0       0       0
       0       0       0       0       0       0       0       0       0       0
       0       0       0       0       0       0       0       0       0       0
       0       0       0       0       0       0       0       0       0       0
       0       0       0       0       0       0       0       0       0       0
       0       0       0       0       0       0       0       0       0       0
       0       0       0       0       0       0       0       0       0       0
       0       0       0       0       0       0       0       0       0       0
       0       0       0       0       0       0       0       0       0       0
       0       0       0       0       0       0       0       0       0       0
       0       0       0       0       0       0       0       0       0       0
       0       0       0       0       0       0       0       0       0       0
       0       0       0       0       0       0       0       0       0       0
       0       0       0       0       0       0       0       0       0       0
       0       0       0       0       0       0       0       0       0       0
       0       0       0       0       0       0       0       0       0       0
       0       0       0       0       0       0       0       0       0       0
       0       0       0       0       0       0       0       0       0       0
       0       0       0       0       0       0       0       0       0       0
       0       0       0       0       0       0       0       0       0       0
       0       0       0       0       0       0       0       0       0       0
       0       0       0       0       0       0       0       0       0       0
       0       0       0       0       0       0       0       0       0       0
       0       0       0       0       0       0       0       0       0       0
       0       0       0       0       0       0       0       0       0       0
       0       0       0       0       0       0       0       0       0       0
       0       0       0       0       0       0       0       0       0       0
       0       0       0       0       0       0       0       0       0       0
       0       0       0       0       0       0       0       0       0       0
       0       0       0       0       0       0       0       0       0       0
       0       0       0       0       0       0       0       0       0       0
       0       0       0       0       0       0       0       0       0       0
       0       0       0       0       0       0       0       0       0       0
       0       0       0       0       0       0       0       0       0       0
       0       0       0       0       0       0       0       0       0       0
       0       0       0       0       0       0       0       0       0       0
       0       0       0       0       0       0       0       0       0       0
       0       0       0       0       0       0       0       0       0       0
       0       0       0       0       0       0       0       0       0       0
       0       0       0       0       0       0       0       0       0       0
       0       0       0       0       0       0       0       0       0       0
       0       0       0       0       0       0       0       0       0       0
       0       0       0       0       0       0       0       0       0       0
       0       0       0       0       0       0       0       0       0       0
       0       0       0       0       0       0       0       0       0       0
       0       0       0       0       0       0       0       0       0       0
       0       0       0       0       0       0       0       0       0       0
       0       0       0       0       0       0       0       0       0       0
       0       0       0       0       0       0       0       0       0       0
       0       0       0       0       0       0       0       0       0       0
       0       0       0       0       0       0       0       0       0       0
       0       0       0       0       0       0       0       0       0       0
       0       0       0       0       0       0       0       0       0       0
       0       0       0       0       0       0       0       0       0       0
       0       0       0       0       0       0       0       0       0       0
       0       0       0       0       0       0       0       0       0       0
       0       0       0       0       0       0       0       0       0       0
       0       0       0       0       0       0       0       0       0       0
       0       0       0       0       0       0       0       0       0       0
       0       0       0       0       0       0       0       0       0       0
       0       0       0       0       0       0       0       0       0       0
       0       0       0       0       0       0       0       0       0       0
       0       0       0       0       0       0       0       0       0       0
       0       0       0       0       0       0       0       0       0       0
       0       0       0       0       0       0       0       0       0       0
       0       0       0       0       0       0       0       0       0       0
       0       0       0       0       0       0       0       0       0       0
       0       0       0       0       0       0       0       0       0       0
       0       0       0       0       0       0       0       0       0       0
       0       0       0       0       0       0       0       0       0       0
       0       0       0       0       0       0       0       0       0       0
       0       0       0       0       0       0       0       0       0       0
       0       0       0       0       0       0       0       0       0       0
       0       0       0       0       0       0       0       0       0       0
       0       0       0       0       0       0       0       0       0       0
       0       0       0       0       0       0       0       0       0       0
       0       0       0       0       0       0       0       0       0       0
       0       0       0       0       0       0       0       0       0       0
       0       0       0       0       0       0       0       0       0       0
       0       0       0       0       0       0       0       0       0       0
       0       0       0       0       0       0       0       0       0       0
       0       0       0       0       0       0       0       0       0       0
       0       0       0       0       0       0       0       0       0       0
       0       0       0       0       0       0       0       0       0       0
       0       0       0       0       0       0       0       0       0       0
       0       0       0       0       0       0       0       0       0       0
       0       0       0       0       0       0       0       0       0       0
       0       0       0       0       0       0       0       0       0       0
       0       0       0       0       0       0       0       0       0       0
       0       0       0       0       0       0       0       0       0       0
       0       0       0       0       0       0       0       0       0       0
       0       0       0       0       0       0       0       0       0       0
       0       0       0       0       0       0       0       0       0       0
       0       0       0       0       0       0       0       0       0       0
       0       0       0       0       0       0       0       0       0       0
       0       0       0       0       0       0       0       0       0       0
       0       0       0       0       0       0       0       0       0       0
       0       0       0       0       0       0       0       0       0       0
       0       0       0       0       0       0       0       0       0       0
       0       0       0       0       0       0       0       0       0       0
       0       0       0       0       0       0       0       0       0       0
       0       0       0       0       0       0       0       0       0       0
       0       0       0       0       0       0       0       0       0       0
       0       0       0       0       0       0       0       0       0       0
       0       0       0       0       0       0       0       0       0       0
       0       0       0       0       0       0       0       0       0       0
       0       0       0       0       0       0       0       0       0       0
       0       0       0       0       0       0       0       0       0       0
       0       0       0       0       0       0       0       0       0       0
       0       0       0       0       0       0       0       0       0       0
       0       0       0       0       0       0       0       0       0       0
       0       0       0       0       0       0       0       0       0       0
       0       0       0       0       0       0       0       0       0       0
       0       0       0       0       0       0       0       0       0       0
       0       0       0       0       0       0       0       0       0       0
       0       0       0       0       0       0       0       0       0       0
       0       0       0       0       0       0       0       0       0       0
       0       0       0       0       0       0       0       0       0       0
       0       0       0       0       0       0       0       0       0       0
       0       0       0       0       0       0       0       0       0       0
       0       0       0       0       0       0       0       0       0       0
       0       0       0       0       0       0       0       0       0       0
       0       0       0       0       0       0       0       0       0       0
       0       0       0       0       0       0       0       0       0       0
       0       0       0       0       0       0       0       0       0       0
       0       0       0       0       0       0       0       0       0       0
       0       0       0       0       0       0       0       0       0       0
       0       0       0       0       0       0       0       0       0       0
       0       0       0       0       0       0       0       0       0       0
       0       0       0       0       0       0       0       0       0       0
       0       0       0       0       0       0       0       0       0       0
       0       0       0       0       0       0       0       0       0       0
       0       0       0       0       0       0       0       0       0       0
       0       0       0       0       0       0       0       0       0       0
       0       0       0       0       0       0       0       0       0       0
       0       0       0       0       0       0       0       0       0       0
       0       0       0       0       0       0       0       0       0       0
       0       0       0       0       0       0       0       0       0       0
       0       0       0       0       0       0       0       0       0       0
       0       0       0       0       0       0       0       0       0       0
       0       0       0       0       0       0       0       0       0       0
       0       0       0       0       0       0       0       0       0       0
       0       0       0       0       0       0       0       0       0       0
       0       0       0       0       0       0       0       0       0       0
       0       0       0       0       0       0       0       0       0       0
       0       0       0       0       0       0       0       0       0       0
       0       0       0       0       0       0       0       0       0       0
       0       0       0       0       0       0       0       0       0       0
       0       0       0       0       0       0       0       0       0       0
       0       0       0       0       0       0       0       0       0       0
       0       0       0       0       0       0       0       0       0       0
       0       0       0       0       0       0       0       0       0       0
       0       0       0       0       0       0       0       0       0       0
       0       0       0       0       0       0       0       0       0       0
       0       0       0       0       0       0       0       0       0       0
       0       0       0       0       0       0       0       0       0       0
       0       0       0       0       0       0       0       0       0       0
       0       0       0       0       0       0       0       0       0       0
       0       0       0       0       0       0       0       0       0       0
       0       0       0       0       0       0       0       0       0       0
       0       0       0       0       0       0       0       0       0       0
       0       0       0       0       0       0       0       0       0       0
       0       0       0       0       0       0       0       0       0       0
       0       0       0       0       0       0       0       0       0       0
       0       0       0       0       0       0       0       0       0       0
       0       0       0       0       0       0       0       0       0       0
       0       0       0       0       0       0       0       0       0       0
       0       0       0       0       0       0       0       0       0       0
       0       0       0       0       0       0       0       0       0       0
       0       0       0       0       0       0       0       0       0       0
       0       0       0       0       0       0       0       0       0       0
       0       0       0       0       0       0       0       0       0       0
       0       0       0       0       0       0       0       0       0       0
       0       0       0       0       0       0       0       0       0       0
       0       0       0       0       0       0       0       0       0       0
       0       0       0       0       0       0       0       0       0       0
       0       0       0       0       0       0       0       0       0       0
       0       0       0       0       0       0       0       0       0       0
       0       0       0       0       0       0       0       0       0       0
       0       0       0       0       0       0       0       0       0       0
       0       0       0       0       0       0       0       0       0       0
       0       0       0       0       0       0       0       0       0       0
       0       0       0       0       0       0       0       0       0       0
       0       0       0       0       0       0       0       0       0       0
       0       0       0       0       0       0       0       0       0       0
       0       0       0       0       0       0       0       0       0       0
       0       0       0       0       0       0       0       0       0       0
       0       0       0       0       0       0       0       0       0       0
       0       0       0       0       0       0       0       0       0       0
       0       0       0       0       0       0       0       0       0       0
       0       0       0       0       0       0       0       0       0       0
       0       0       0       0       0       0       0       0       0       0
       0       0       0       0       0       0       0       0       0       0
       0       0       0       0       0       0       0       0       0       0
       0       0       0       0       0       0       0       0       0       0
       0       0       0       0       0       0       0       0       0       0
       0       0       0       0       0       0       0       0       0       0
       0       0       0       0       0       0       0       0       0       0
       0       0       0       0       0       0       0       0       0       0
       0       0       0       0       0       0       0       0       0       0
       0       0       0       0       0       0       0       0       0       0
       0       0       0       0       0       0       0       0       0       0
       0       0       0       0       0       0       0       0       0       0
       0       0       0       0       0       0       0       0       0       0
       0       0       0       0       0       0       0       0       0       0
       0       0       0       0       0       0       0       0       0       0
       0       0       0       0       0       0       0       0       0       0
       0       0       0       0       0       0       0       0       0       0
       0       0       0       0       0       0       0       0       0       0
       0       0       0       0       0       0       0       0       0       0
       0       0       0       0       0       0       0       0       0       0
       0       0       0       0       0       0       0       0       0       0
       0       0       0       0       0       0       0       0       0       0
       0       0       0       0       0       0       0       0       0       0
       0       0       0       0       0       0       0       0       0       0
       0       0       0       0       0       0       0       0       0       0
       0       0       0       0       0       0       0       0       0       0
       0       0       0       0       0       0       0       0       0       0
       0       0       0       0       0       0       0       0       0       0
       0       0       0       0       0       0       0       0       0       0
       0       0       0       0       0       0       0       0       0       0
       0       0       0       0       0       0       0       0       0       0
       0       0       0       0       0       0       0       0       0       0
       0       0       0       0       0       0       0       0       0       0
       0       0       0       0       0       0       0       0       0       0
       0       0       0       0       0       0       0       0       0       0
       0       0       0       0       0       0       0       0       0       0
       0       0       0       0       0       0       0       0       0       0
       0       0       0       0       0       0       0       0       0       0
       0       0       0       0       0       0       0       0       0       0
       0       0       0       0       0       0       0       0       0       0
       0       0       0       0       0       0       0       0       0       0
       0       0       0       0       0       0       0       0       0       0
       0       0       0       0       0       0       0       0       0       0
       0       0       0       0       0       0       0       0       0       0
       0       0       0       0       0       0       0       0       0       0
       0       0       0       0       0       0       0       0       0       0
       0       0       0       0       0       0       0       0       0       0
       0       0       0       0       0       0       0       0       0       0
       0       0       0       0       0       0       0       0       0       0
       0       0       0       0       0       0       0       0       0       0
       0       0       0       0       0       0       0       0       0       0
       0       0       0       0       0       0       0       0       0       0
       0       0       0       0       0       0       0       0       0       0
       0       0       0       0       0       0       0       0       0       0
       0       0       0       0       0       0       0       0       0       0
       0       0       0       0       0       0       0       0       0       0
       0       0       0       0       0       0       0       0       0       0
       0       0       0       0       0       0       0       0       0       0
       0       0       0       0       0       0       0       0       0       0
       0       0       0       0       0       0       0       0       0       0
       0       0       0       0       0       0       0       0       0       0
       0       0       0       0       0       0       0       0       0       0
       0       0       0       0       0       0       0       0       0       0
       0       0       0       0       0       0       0       0       0       0
       0       0       0       0       0       0       0       0       0       0
       0       0       0       0       0       0       0       0       0       0
       0       0       0       0       0       0       0       0       0       0
       0       0       0       0       0       0       0       0       0       0
       0       0       0       0       0       0       0       0       0       0
       0       0       0       0       0       0       0       0       0       0
       0       0       0       0       0       0       0       0       0       0
       0       0       0       0       0       0       0       0       0       0
       0       0       0       0       0       0       0       0       0       0
       0       0       0       0       0       0       0       0       0       0
       0       0       0       0       0       0       0       0       0       0
       0       0       0       0       0       0       0       0       0       0
       0       0       0       0       0       0       0       0       0       0
       0       0       0       0       0       0       0       0       0       0
       0       0       0       0       0       0       0       0       0       0
       0       0       0       0       0       0       0       0       0       0
       0       0       0       0       0       0       0       0       0       0
       0       0       0       0       0       0       0       0       0       0
       0       0       0       0       0       0       0       0       0       0
       0       0       0       0       0       0       0       0       0       0
       0       0       0       0       0       0       0       0       0       0
       0       0       0       0       0       0       0       0       0       0
       0       0       0       0       0       0       0       0       0       0
       0       0       0       0       0       0       0       0       0       0
       0       0       0       0       0       0       0       0       0       0
       0       0       0       0       0       0       0       0       0       0
       0       0       0       0       0       0       0       0       0       0
       0       0       0       0       0       0       0       0       0       0
       0       0       0       0       0       0       0       0       0       0
       0       0       0       0       0       0       0       0       0       0
       0       0       0       0       0       0       0       0       0       0
       0       0       0       0       0       0       0       0       0       0
       0       0       0       0       0       0       0       0       0       0
       0       0       0       0       0       0       0       0       0       0
       0       0       0       0       0       0       0       0       0       0
       0       0       0       0       0       0       0       0       0       0
       0       0       0       0       0       0       0       0       0       0
       0       0       0       0       0       0       0       0       0       0
       0       0       0       0       0       0       0       0       0       0
       0       0       0       0       0       0       0       0       0       0
       0       0       0       0       0       0       0       0       0       0
       0       0       0       0       0       0       0       0       0       0
       0       0       0       0       0       0       0       0       0       0
       0       0       0       0       0       0       0       0       0       0
       0       0       0       0       0       0       0       0       0       0
       0       0       0       0       0       0       0       0       0       0
       0       0       0       0       0       0       0       0       0       0
       0       0       0       0       0       0       0       0       0       0
       0       0       0       0       0       0       0       0       0       0
       0       0       0       0       0       0       0       0       0       0
       0       0       0       0       0       0       0       0       0       0
       0       0       0       0       0       0       0       0       0       0
       0       0       0       0       0       0       0       0       0       0
       0       0       0       0       0       0       0       0       0       0
       0       0       0       0       0       0       0       0       0       0
       0       0       0       0       0       0       0       0       0       0
       0       0       0       0       0       0       0       0       0       0
       0       0       0       0       0       0       0       0       0       0
       0       0       0       0       0       0       0       0       0       0
       0       0       0       0       0       0       0       0       0       0
       0       0       0       0       0       0       0       0       0       0
       0       0       0       0       0       0       0       0       0       0
       0       0       0       0       0       0       0       0       0       0
       0       0       0       0       0       0       0       0       0       0
       0       0       0       0       0       0       0       0       0       0
       0       0       0       0       0       0       0       0       0       0
       0       0       0       0       0       0       0       0       0       0
       0       0       0       0       0       0       0       0       0       0
       0       0       0       0       0       0       0       0       0       0
       0       0       0       0       0       0       0       0       0       0
       0       0       0       0       0       0       0       0       0       0
       0       0       0       0       0       0       0       0       0       0
       0       0       0       0       0       0       0       0       0       0
       0       0       0       0       0       0       0       0       0       0
       0       0       0       0       0       0       0       0       0       0
       0       0       0       0       0       0       0       0       0       0
       0       0       0       0       0       0       0       0       0       0
       0       0       0       0       0       0       0       0       0       0
       0       0       0       0       0       0       0       0       0       0
       0       0       0       0       0       0       0       0       0       0
       0       0       0       0       0       0       0       0       0       0
       0       0       0       0       0       0       0       0       0       0
       0       0       0       0       0       0       0       0       0       0
       0       0       0       0       0       0       0       0       0       0
       0       0       0       0       0       0       0       0       0       0
       0       0       0       0       0       0       0       0       0       0
       0       0       0       0       0       0       0       0       0       0
       0       0       0       0       0       0       0       0       0       0
       0       0       0       0       0       0       0       0       0       0
       0       0       0       0       0       0       0       0       0       0
       0       0       0       0       0       0       0       0       0       0
       0       0       0       0       0       0       0       0       0       0
       0       0       0       0       0       0       0       0       0       0
       0       0       0       0       0       0       0       0       0       0
       0       0       0       0       0       0       0       0       0       0
       0       0       0       0       0       0       0       0       0       0
       0       0       0       0       0       0       0       0       0       0
       0       0       0       0       0       0       0       0       0       0
       0       0       0       0       0       0       0       0       0       0
       0       0       0       0       0       0       0       0       0       0
       0       0       0       0       0       0       0       0       0       0
       0       0       0       0       0       0       0       0       0       0
       0       0       0       0       0       0       0       0       0       0
       0       0       0       0       0       0       0       0       0       0
       0       0       0       0       0       0       0       0       0       0
       0       0       0       0       0       0       0       0       0       0
       0       0       0       0       0       0       0       0       0       0
       0       0       0       0       0       0       0       0       0       0
       0       0       0       0       0       0       0       0       0       0
       0       0       0       0       0       0       0       0       0       0
       0       0       0       0       0       0       0       0       0       0
       0       0       0       0       0       0       0       0       0       0
       0       0       0       0       0       0       0       0       0       0
       0       0       0       0       0       0       0       0       0       0
       0       0       0       0       0       0       0       0       0       0
       0       0       0       0       0       0       0       0       0       0
       0       0       0       0       0       0       0       0       0       0
       0       0       0       0       0       0       0       0       0       0
       0       0       0       0       0       0       0       0       0       0
       0       0       0       0       0       0       0       0       0       0
       0       0       0       0       0       0       0       0       0       0
       0       0       0       0       0       0       0       0       0       0
       0       0       0       0       0       0       0       0       0       0
       0       0       0       0       0       0       0       0       0       0
       0       0       0       0       0       0       0       0       0       0
       0       0       0       0       0       0       0       0       0       0
       0       0       0       0       0       0       0       0       0       0
       0       0       0       0       0       0       0       0       0       0
       0       0       0       0       0       0       0       0       0       0
       0       0       0       0       0       0       0       0       0       0
       0       0       0       0       0       0       0       0       0       0
       0       0       0       0       0       0       0       0       0       0
       0       0       0       0       0       0       0       0       0       0
       0       0       0       0       0       0       0       0       0       0
       0       0       0       0       0       0       0       0       0       0
       0       0       0       0       0       0       0       0       0       0
       0       0       0       0       0       0       0       0       0       0
       0       0       0       0       0       0       0       0       0       0
       0       0       0       0       0       0       0       0       0       0
       0       0       0       0       0       0       0       0       0       0
       0       0       0       0       0       0       0       0       0       0
       0       0       0       0       0       0       0       0       0       0
       0       0       0       0       0       0       0       0       0       0
       0       0       0       0       0       0       0       0       0       0
       0       0       0       0       0       0       0       0       0       0
       0       0       0       0       0       0       0       0       0       0
       0       0       0       0       0       0       0       0       0       0
       0       0       0       0       0       0       0       0       0       0
       0       0       0       0       0       0       0       0       0       0
       0       0       0       0       0       0       0       0       0       0
       0       0       0       0       0       0       0       0       0       0
       0       0       0       0       0       0       0       0       0       0
       0       0       0       0       0       0       0       0       0       0
       0       0       0       0       0       0       0       0       0       0
       0       0       0       0       0       0       0       0       0       0
       0       0       0       0       0       0       0       0       0       0
       0       0       0       0       0       0       0       0       0       0
       0       0       0       0       0       0       0       0       0       0
       0       0       0       0       0       0       0       0       0       0
       0       0       0       0       0       0       0       0       0       0
       0       0       0       0       0       0       0       0       0       0
       0       0       0       0       0       0       0       0       0       0
       0       0       0       0       0       0       0       0       0       0
       0       0       0       0       0       0       0       0       0       0
       0       0       0       0       0       0       0       0       0       0
       0       0       0       0       0       0       0       0       0       0
       0       0       0       0       0       0       0       0       0       0
       0       0       0       0       0       0       0       0       0       0
       0       0       0       0       0       0       0       0       0       0
       0       0       0       0       0       0       0       0       0       0
       0       0       0       0       0       0       0       0       0       0
       0       0       0       0       0       0       0       0       0       0
       0       0       0       0       0       0       0       0       0       0
       0       0       0       0       0       0       0       0       0       0
       0       0       0       0       0       0       0       0       0       0
       0       0       0       0       0       0       0       0       0       0
       0       0       0       0       0       0       0       0       0       0
       0       0       0       0       0       0       0       0       0       0
       0       0       0       0       0       0       0       0       0       0
       0       0       0       0       0       0       0       0       0       0
       0       0       0       0       0       0       0       0       0       0
       0       0       0       0       0       0       0       0       0       0
       0       0       0       0       0       0       0       0       0       0
       0       0       0       0       0       0       0       0       0       0
       0       0       0       0       0       0       0       0       0       0
       0       0       0       0       0       0       0       0       0       0
       0       0       0       0       0       0       0       0       0       0
       0       0       0       0       0       0       0       0       0       0
       0       0       0       0       0       0       0       0       0       0
       0       0       0       0       0       0       0       0       0       0
       0       0       0       0       0       0       0       0       0       0
       0       0       0       0       0       0       0       0       0       0
       0       0       0       0       0       0       0       0       0       0
       0       0       0       0       0       0       0       0       0       0
       0       0       0       0       0       0       0       0       0       0
       0       0       0       0       0       0       0       0       0       0
       0       0       0       0       0       0       0       0       0       0
       0       0       0       0       0       0       0       0       0       0
       0       0       0       0       0       0       0       0       0       0
       0       0       0       0       0       0       0       0       0       0
       0       0       0       0       0       0       0       0       0       0
       0       0       0       0       0       0       0       0       0       0
       0       0       0       0       0       0       0       0       0       0
       0       0       0       0       0       0       0       0       0       0
       0       0       0       0       0       0       0       0       0       0
       0       0       0       0       0       0       0       0       0       0
       0       0       0       0       0       0       0       0       0       0
       0       0       0       0       0       0       0       0       0       0
       0       0       0       0       0       0       0       0       0       0
       0       0       0       0       0       0       0       0       0       0
       0       0       0       0       0       0       0       0       0       0
       0       0       0       0       0       0       0       0       0       0
       0       0       0       0       0       0       0       0       0       0
       0       0       0       0       0       0       0       0       0       0
       0       0       0       0       0       0       0       0       0       0
       0       0       0       0       0       0       0       0       0       0
       0       0       0       0       0       0       0       0       0       0
       0       0       0       0       0       0       0       0       0       0
       0       0       0       0       0       0       0       0       0       0
       0       0       0       0       0       0       0       0       0       0
       0       0       0       0       0       0       0       0       0       0
       0       0       0       0       0       0       0       0       0       0
       0       0       0       0       0       0       0       0       0       0
       0       0       0       0       0       0       0       0       0       0
       0       0       0       0       0       0       0       0       0       0
       0       0       0       0       0       0       0       0       0       0
       0       0       0       0       0       0       0       0       0       0
       0       0       0       0       0       0       0       0       0       0
       0       0       0       0       0       0       0       0       0       0
       0       0       0       0       0       0       0       0       0       0
       0       0       0       0       0       0       0       0       0       0
       0       0       0       0       0       0       0       0       0       0
       0       0       0       0       0       0       0       0       0       0
       0       0       0       0       0       0       0       0       0       0
       0       0       0       0       0       0       0       0       0       0
       0       0       0       0       0       0       0       0       0       0
       0       0       0       0       0       0       0       0       0       0
       0       0       0       0       0       0       0       0       0       0
       0       0       0       0       0       0       0       0       0       0
       0       0       0       0       0       0       0       0       0       0
       0       0       0       0       0       0       0       0       0       0
       0       0       0       0       0       0       0       0       0       0
       0       0       0       0       0       0       0       0       0       0
       0       0       0       0       0       0       0       0       0       0
       0       0       0       0       0       0       0       0       0       0
       0       0       0       0       0       0       0       0       0       0
       0       0       0       0       0       0       0       0       0       0
       0       0       0       0       0       0       0       0       0       0
       0       0       0       0       0       0       0       0       0       0
       0       0       0       0       0       0       0       0       0       0
       0       0       0       0       0       0       0       0       0       0
       0       0       0       0       0       0       0       0       0       0
       0       0       0       0       0       0       0       0       0       0
       0       0       0       0       0       0       0       0       0       0
       0       0       0       0       0       0       0       0       0       0
       0       0       0       0       0       0       0       0       0       0
       0       0       0       0       0       0       0       0       0       0
       0       0       0       0       0       0       0       0       0       0
       0       0       0       0       0       0       0       0       0       0
       0       0       0       0       0       0       0       0       0       0
       0       0       0       0       0       0       0       0       0       0
       0       0       0       0       0       0       0       0       0       0
       0       0       0       0       0       0       0       0       0       0
       0       0       0       0       0       0       0       0       0       0
       0       0       0       0       0       0       0       0       0       0
       0       0       0       0       0       0       0       0       0       0
       0       0       0       0       0       0       0       0       0       0
       0       0       0       0       0       0       0       0       0       0
       0       0       0       0       0       0       0       0       0       0
       0       0       0       0       0       0       0       0       0       0
       0       0       0       0       0       0       0       0       0       0
       0       0       0       0       0       0       0       0       0       0
       0       0       0       0       0       0       0       0       0       0
       0       0       0       0       0       0       0       0       0       0
       0       0       0       0       0       0       0       0       0       0
       0       0       0       0       0       0       0       0       0       0
       0       0       0       0       0       0       0       0       0       0
       0       0       0       0       0       0       0       0       0       0
       0       0       0       0       0       0       0       0       0       0
       0       0       0       0       0       0       0       0       0       0
       0       0       0       0       0       0       0       0       0       0
       0       0       0       0       0       0       0       0       0       0
       0       0       0       0       0       0       0       0       0       0
       0       0       0       0       0       0       0       0       0       0
       0       0       0       0       0       0       0       0       0       0
       0       0       0       0       0       0       0       0       0       0
       0       0       0       0       0       0       0       0       0       0
       0       0       0       0       0       0       0       0       0       0
       0       0       0       0       0       0       0       0       0       0
       0       0       0       0       0       0       0       0       0       0
       0       0       0       0       0       0       0       0       0       0
       0       0       0       0       0       0       0       0       0       0
       0       0       0       0       0       0       0       0       0       0
       0       0       0       0       0       0       0       0       0       0
       0       0       0       0       0       0       0       0       0       0
       0       0       0       0       0       0       0       0       0       0
       0       0       0       0       0       0       0       0       0       0
       0       0       0       0       0       0       0       0       0       0
       0       0       0       0       0       0       0       0       0       0
       0       0       0       0       0       0       0       0       0       0
       0       0       0       0       0       0       0       0       0       0
       0       0       0       0       0       0       0       0       0       0
       0       0       0       0       0       0       0       0       0       0
       0       0       0       0       0       0       0       0       0       0
       0       0       0       0       0       0       0       0       0       0
       0       0       0       0       0       0       0       0       0       0
       0       0       0       0       0       0       0       0       0       0
       0       0       0       0       0       0       0       0       0       0
       0       0       0       0       0       0       0       0       0       0
       0       0       0       0       0       0       0       0       0       0
       0       0       0       0       0       0       0       0       0       0
       0       0       0       0       0       0       0       0       0       0
       0       0       0       0       0       0       0       0       0       0
       0       0       0       0       0       0       0       0       0       0
       0       0       0       0       0       0       0       0       0       0
       0       0       0       0       0       0       0       0       0       0
       0       0       0       0       0       0       0       0       0       0
       0       0       0       0       0       0       0       0       0       0
       0       0       0       0       0       0       0       0       0       0
       0       0       0       0       0       0       0       0       0       0
       0       0       0       0       0       0       0       0       0       0
       0       0       0       0       0       0       0       0       0       0
       0       0       0       0       0       0       0       0       0       0
       0       0       0       0       0       0       0       0       0       0
       0       0       0       0       0       0       0       0       0       0
       0       0       0       0       0       0       0       0       0       0
       0       0       0       0       0       0       0       0       0       0
       0       0       0       0       0       0       0       0       0       0
       0       0       0       0       0       0       0       0       0       0
       0       0       0       0       0       0       0       0       0       0
       0       0       0       0       0       0       0       0       0       0
       0       0       0       0       0       0       0       0       0       0
       0       0       0       0       0       0       0       0       0       0
       0       0       0       0       0       0       0       0       0       0
       0       0       0       0       0       0       0       0       0       0
       0       0       0       0       0       0       0       0       0       0
       0       0       0       0       0       0       0       0       0       0
       0       0       0       0       0       0       0       0       0       0
       0       0       0       0       0       0       0       0       0       0
       0       0       0       0       0       0       0       0       0       0
       0       0       0       0       0       0       0       0       0       0
       0       0       0       0       0       0       0       0       0       0
       0       0       0       0       0       0       0       0       0       0
       0       0       0       0       0       0       0       0       0       0
       0       0       0       0       0       0       0       0       0       0
       0       0       0       0       0       0       0       0       0       0
       0       0       0       0       0       0       0       0       0       0
       0       0       0       0       0       0       0       0       0       0
       0       0       0       0       0       0       0       0       0       0
       0       0       0       0       0       0       0       0       0       0
       0       0       0       0       0       0       0       0       0       0
       0       0       0       0       0       0       0       0       0       0
       0       0       0       0       0       0       0       0       0       0
       0       0       0       0       0       0       0       0       0       0
       0       0       0       0       0       0       0       0       0       0
       0       0       0       0       0       0       0       0       0       0
       0       0       0       0       0       0       0       0       0       0
       0       0       0       0       0       0       0       0       0       0
       0       0       0       0       0       0       0       0       0       0
       0       0       0       0       0       0       0       0       0       0
       0       0       0       0       0       0       0       0       0       0
       0       0       0       0       0       0       0       0       0       0
       0       0       0       0       0       0       0       0       0       0
       0       0       0       0       0       0       0       0       0       0
       0       0       0       0       0       0       0       0       0       0
       0       0       0       0       0       0       0       0       0       0
       0       0       0       0       0       0       0       0       0       0
       0       0       0       0       0       0       0       0       0       0
       0       0       0       0       0       0       0       0       0       0
       0       0       0       0       0       0       0       0       0       0
       0       0       0       0       0       0       0       0       0       0
       0       0       0       0       0       0       0       0       0       0
       0       0       0       0       0       0       0       0       0       0
       0       0       0       0       0       0       0       0       0       0
       0       0       0       0       0       0       0       0       0       0
       0       0       0       0       0       0       0       0       0       0
       0       0       0       0       0       0       0       0       0       0
       0       0       0       0       0       0       0       0       0       0
       0       0       0       0       0       0       0       0       0       0
       0       0       0       0       0       0       0       0       0       0
       0       0       0       0       0       0       0       0       0       0
       0       0       0       0       0       0       0       0       0       0
       0       0       0       0       0       0       0       0       0       0
       0       0       0       0       0       0       0       0       0       0
       0       0       0       0       0       0       0       0       0       0
       0       0       0       0       0       0       0       0       0       0
       0       0       0       0       0       0       0       0       0       0
       0       0       0       0       0       0       0       0       0       0
       0       0       0       0       0       0       0       0       0       0
       0       0       0       0       0       0       0       0       0       0
       0       0       0       0       0       0       0       0       0       0
       0       0       0       0       0       0       0       0       0       0
       0       0       0       0       0       0       0       0       0       0
       0       0       0       0       0       0       0       0       0       0
       0       0       0       0       0       0       0       0       0       0
       0       0       0       0       0       0       0       0       0       0
       0       0       0       0       0       0       0       0       0       0
       0       0       0       0       0       0       0       0       0       0
       0       0       0       0       0       0       0       0       0       0
       0       0       0       0       0       0       0       0       0       0
       0       0       0       0       0       0       0       0       0       0
       0       0       0       0       0       0       0       0       0       0
       0       0       0       0       0       0       0       0       0       0
       0       0       0       0       0       0       0       0       0       0
       0       0       0       0       0       0       0       0       0       0
       0       0       0       0       0       0       0       0       0       0
       0       0       0       0       0       0       0       0       0       0
       0       0       0       0       0       0       0       0       0       0
       0       0       0       0       0       0       0       0       0       0
       0       0       0       0       0       0       0       0       0       0
       0       0       0       0       0       0       0       0       0       0
       0       0       0       0       0       0       0       0       0       0
       0       0       0       0       0       0       0       0       0       0
       0       0       0       0       0       0       0       0       0       0
       0       0       0       0       0       0       0       0       0       0
       0       0       0       0       0       0       0       0       0       0
       0       0       0       0       0       0       0       0       0       0
       0       0       0       0       0       0       0       0       0       0
       0       0       0       0       0       0       0       0       0       0
       0       0       0       0       0       0       0       0       0       0
       0       0       0       0       0       0       0       0       0       0
       0       0       0       0       0       0       0       0       0       0
       0       0       0       0       0       0       0       0       0       0
       0       0       0       0       0       0       0       0       0       0
       0       0       0       0       0       0       0       0       0       0
       0       0       0       0       0       0       0       0       0       0
       0       0       0       0       0       0       0       0       0       0
       0       0       0       0       0       0       0       0       0       0
       0       0       0       0       0       0       0       0       0       0
       0       0       0       0       0       0       0       0       0       0
       0       0       0       0       0       0       0       0       0       0
       0       0       0       0       0       0       0       0       0       0
       0       0       0       0       0       0       0       0       0       0
       0       0       0       0       0       0       0       0       0       0
       0       0       0       0       0       0       0       0       0       0
       0       0       0       0       0       0       0       0       0       0
       0       0       0       0       0       0       0       0       0       0
       0       0       0       0       0       0       0       0       0       0
       0       0       0       0       0       0       0       0       0       0
       0       0       0       0       0       0       0       0       0       0
       0       0       0       0       0       0       0       0       0       0
       0       0       0       0       0       0       0       0       0       0
       0       0       0       0       0       0       0       0       0       0
       0       0       0       0       0       0       0       0       0       0
       0       0       0       0       0       0       0       0       0       0
       0       0       0       0       0       0       0       0       0       0
       0       0       0       0       0       0       0       0       0       0
       0       0       0       0       0       0       0       0       0       0
       0       0       0       0       0       0       0       0       0       0
       0       0       0       0       0       0       0       0       0       0
       0       0       0       0       0       0       0       0       0       0
       0       0       0       0       0       0       0       0       0       0
       0       0       0       0       0       0       0       0       0       0
       0       0       0       0       0       0       0       0       0       0
       0       0       0       0       0       0       0       0       0       0
       0       0       0       0       0       0       0       0       0       0
       0       0       0       0       0       0       0       0       0       0
       0       0       0       0       0       0       0       0       0       0
       0       0       0       0       0       0       0       0       0       0
       0       0       0       0       0       0       0       0       0       0
       0       0       0       0       0       0       0       0       0       0
       0       0       0       0       0       0       0       0       0       0
       0       0       0       0       0       0       0       0       0       0
       0       0       0       0       0       0       0       0       0       0
       0       0       0       0       0       0       0       0       0       0
       0       0       0       0       0       0       0       0       0       0
       0       0       0       0       0       0       0       0       0       0
       0       0       0       0       0       0       0       0       0       0
       0       0       0       0       0       0       0       0       0       0
       0       0       0       0       0       0       0       0       0       0
       0       0       0       0       0       0       0       0       0       0
       0       0       0       0       0       0       0       0       0       0
       0       0       0       0       0       0       0       0       0       0
       0       0       0       0       0       0       0       0       0       0
       0       0       0       0       0       0       0       0       0       0
       0       0       0       0       0       0       0       0       0       0
       0       0       0       0       0       0       0       0       0       0
       0       0       0       0       0       0       0       0       0       0
       0       0       0       0       0       0       0       0       0       0
       0       0       0       0       0       0       0       0       0       0
       0       0       0       0       0       0       0       0       0       0
       0       0       0       0       0       0       0       0       0       0
       0       0       0       0       0       0       0       0       0       0
       0       0       0       0       0       0       0       0       0       0
       0       0       0       0       0       0       0       0       0       0
       0       0       0       0       0       0       0       0       0       0
       0       0       0       0       0       0       0       0       0       0
       0       0       0       0       0       0       0       0       0       0
       0       0       0       0       0       0       0       0       0       0
       0       0       0       0       0       0       0       0       0       0
       0       0       0       0       0       0       0       0       0       0
       0       0       0       0       0       0       0       0       0       0
       0       0       0       0       0       0       0       0       0       0
       0       0       0       0       0       0       0       0       0       0
       0       0       0       0       0       0       0       0       0       0
       0       0       0       0       0       0       0       0       0       0
       0       0       0       0       0       0       0       0       0       0
       0       0       0       0       0       0       0       0       0       0
       0       0       0       0       0       0       0       0       0       0
       0       0       0       0       0       0       0       0       0       0
       0       0       0       0       0       0       0       0       0       0
       0       0       0       0       0       0       0       0       0       0
       0       0       0       0       0       0       0       0       0       0
       0       0       0       0       0       0       0       0       0       0
       0       0       0       0       0       0       0       0       0       0
       0       0       0       0       0       0       0       0       0       0
       0       0       0       0       0       0       0       0       0       0
       0       0       0       0       0       0       0       0       0       0
       0       0       0       0       0       0       0       0       0       0
       0       0       0       0       0       0       0       0       0       0
       0       0       0       0       0       0       0       0       0       0
       0       0       0       0       0       0       0       0       0       0
       0       0       0       0       0       0       0       0       0       0
       0       0       0       0       0       0       0       0       0       0
       0       0       0       0       0       0       0       0       0       0
       0       0       0       0       0       0       0       0       0       0
       0       0       0       0       0       0       0       0       0       0
       0       0       0       0       0       0       0       0       0       0
       0       0       0       0       0       0       0       0       0       0
       0       0       0       0       0       0       0       0       0       0
       0       0       0       0       0       0       0       0       0       0
       0       0       0       0       0       0       0       0       0       0
       0       0       0       0       0       0       0       0       0       0
       0       0       0       0       0       0       0       0       0       0
       0       0       0       0       0       0       0       0       0       0
       0       0       0       0       0       0       0       0       0       0
       0       0       0       0       0       0       0       0       0       0
       0       0       0       0       0       0       0       0       0       0
       0       0       0       0       0       0       0       0       0       0
       0       0       0       0       0       0       0       0       0       0
       0       0       0       0       0       0       0       0       0       0
       0       0       0       0       0       0       0       0       0       0
       0       0       0       0       0       0       0       0       0       0
       0       0       0       0       0       0       0       0       0       0
       0       0       0       0       0       0       0       0       0       0
       0       0       0       0       0       0       0       0       0       0
       0       0       0       0       0       0       0       0       0       0
       0       0       0       0       0       0       0       0       0       0
       0       0       0       0       0       0       0       0       0       0
       0       0       0       0       0       0       0       0       0       0
       0       0       0       0       0       0       0       0       0       0
       0       0       0       0       0       0       0       0       0       0
       0       0       0       0       0       0       0       0       0       0
       0       0       0       0       0       0       0       0       0       0
       0       0       0       0       0       0       0       0       0       0
       0       0       0       0       0       0       0       0       0       0
       0       0       0       0       0       0       0       0       0       0
       0       0       0       0       0       0       0       0       0       0
       0       0       0       0       0       0       0       0       0       0
       0       0       0       0       0       0       0       0       0       0
       0       0       0       0       0       0       0       0       0       0
       0       0       0       0       0       0       0       0       0       0
       0       0       0       0       0       0       0       0       0       0
       0       0       0       0       0       0       0       0       0       0
       0       0       0       0       0       0       0       0       0       0
       0       0       0       0       0       0       0       0       0       0
       0       0       0       0       0       0       0       0       0       0
       0       0       0       0       0       0       0       0       0       0
       0       0       0       0       0       0       0       0       0       0
       0       0       0       0       0       0       0       0       0       0
       0       0       0       0       0       0       0       0       0       0
       0       0       0       0       0       0       0       0       0       0
       0       0       0       0       0       0       0       0       0       0
       0       0       0       0       0       0       0       0       0       0
       0       0       0       0       0       0       0       0       0       0
       0       0       0       0       0       0       0       0       0       0
       0       0       0       0       0       0       0       0       0       0
       0       0       0       0       0       0       0       0       0       0
       0       0       0       0       0       0       0       0       0       0
       0       0       0       0       0       0       0       0       0       0
       0       0       0       0       0       0       0       0       0       0
       0       0       0       0       0       0       0       0       0       0
       0       0       0       0       0       0       0       0       0       0
       0       0       0       0       0       0       0       0       0       0
       0       0       0       0       0       0       0       0       0       0
       0       0       0       0       0       0       0       0       0       0
       0       0       0       0       0       0       0       0       0       0
       0       0       0       0       0       0       0       0       0       0
       0       0       0       0       0       0       0       0       0       0
       0       0       0       0       0       0       0       0       0       0
       0       0       0       0       0       0       0       0       0       0
       0       0       0       0       0       0       0       0       0       0
       0       0       0       0       0       0       0       0       0       0
       0       0       0       0       0       0       0       0       0       0
       0       0       0       0       0       0       0       0       0       0
       0       0       0       0       0       0       0       0       0       0
       0       0       0       0       0       0       0       0       0       0
       0       0       0       0       0       0       0       0       0       0
       0       0       0       0       0       0       0       0       0       0
       0       0       0       0       0       0       0       0       0       0
       0       0       0       0       0       0       0       0       0       0
       0       0       0       0       0       0       0       0       0       0
       0       0       0       0       0       0       0       0       0       0
       0       0       0       0       0       0       0       0       0       0
       0       0       0       0       0       0       0       0       0       0
       0       0       0       0       0       0       0       0       0       0
       0       0       0       0       0       0       0       0       0       0
       0       0       0       0       0       0       0       0       0       0
       0       0       0       0       0       0       0       0       0       0
       0       0       0       0       0       0       0       0       0       0
       0       0       0       0       0       0       0       0       0       0
       0       0       0       0       0       0       0       0       0       0
       0       0       0       0       0       0       0       0       0       0
       0       0       0       0       0       0       0       0       0       0
       0       0       0       0       0       0       0       0       0       0
       0       0       0       0       0       0       0       0       0       0
       0       0       0       0       0       0       0       0       0       0
       0       0       0       0       0       0       0       0       0       0
       0       0       0       0       0       0       0       0       0       0
       0       0       0       0       0       0       0       0       0       0
       0       0       0       0       0       0       0       0       0       0
       0       0       0       0       0       0       0       0       0       0
       0       0       0       0       0       0       0       0       0       0
       0       0       0       0       0       0       0       0       0       0
       0       0       0       0       0       0       0       0       0       0
       0       0       0       0       0       0       0       0       0       0
       0       0       0       0       0       0       0       0       0       0
       0       0       0       0       0       0       0       0       0       0
       0       0       0       0       0       0       0       0       0       0
       0       0       0       0       0       0       0       0       0       0
       0       0       0       0       0       0       0       0       0       0
       0       0       0       0       0       0       0       0       0       0
       0       0       0       0       0       0       0       0       0       0
       0       0       0       0       0       0       0       0       0       0
       0       0       0       0       0       0       0       0       0       0
       0       0       0       0       0       0       0       0       0       0
       0       0       0       0       0       0       0       0       0       0
       0       0       0       0       0       0       0       0       0       0
       0       0       0       0       0       0       0       0       0       0
       0       0       0       0       0       0       0       0       0       0
       0       0       0       0       0       0       0       0       0       0
       0       0       0       0       0       0       0       0       0       0
       0       0       0       0       0       0       0       0       0       0
       0       0       0       0       0       0       0       0       0       0
       0       0       0       0       0       0       0       0       0       0
       0       0       0       0       0       0       0       0       0       0
       0       0       0       0       0       0       0       0       0       0
       0       0       0       0       0       0       0       0       0       0
       0       0       0       0       0       0       0       0       0       0
       0       0       0       0       0       0       0       0       0       0
       0       0       0       0       0       0       0       0       0       0
       0       0       0       0       0       0       0       0       0       0
       0       0       0       0       0       0       0       0       0       0
       0       0       0       0       0       0       0       0       0       0
       0       0       0       0       0       0       0       0       0       0
       0       0       0       0       0       0       0       0       0       0
       0       0       0       0       0       0       0       0       0       0
       0       0       0       0       0       0       0       0       0       0
       0       0       0       0       0       0       0       0       0       0
       0       0       0       0       0       0       0       0       0       0
       0       0       0       0       0       0       0       0       0       0
       0       0       0       0       0       0       0       0       0       0
       0       0       0       0       0       0       0       0       0       0
       0       0       0       0       0       0       0       0       0       0
       0       0       0       0       0       0       0       0       0       0
       0       0       0       0       0       0       0       0       0       0
       0       0       0       0       0       0       0       0       0       0
       0       0       0       0       0       0       0       0       0       0
       0       0       0       0       0       0       0       0       0       0
       0       0       0       0       0       0       0       0       0       0
       0       0       0       0       0       0       0       0       0       0
       0       0       0       0       0       0       0       0       0       0
       0       0       0       0       0       0       0       0       0       0
       0       0       0       0       0       0       0       0       0       0
       0       0       0       0       0       0       0       0       0       0
       0       0       0       0       0       0       0       0       0       0
       0       0       0       0       0       0       0       0       0       0
       0       0       0       0       0       0       0       0       0       0
       0       0       0       0       0       0       0       0       0       0
       0       0       0       0       0       0       0       0       0       0
       0       0       0       0       0       0       0       0       0       0
       0       0       0       0       0       0       0       0       0       0
       0       0       0       0       0       0       0       0       0       0
       0       0       0       0       0       0       0       0       0       0
       0       0       0       0       0       0       0       0       0       0
       0       0       0       0       0       0       0       0       0       0
       0       0       0       0       0       0       0       0       0       0
       0       0       0       0       0       0       0       0       0       0
       0       0       0       0       0       0       0       0       0       0
       0       0       0       0       0       0       0       0       0       0
       0       0       0       0       0       0       0       0       0       0
       0       0       0       0       0       0       0       0       0       0
       0       0       0       0       0       0       0       0       0       0
       0       0       0       0       0       0       0       0       0       0
       0       0       0       0       0       0       0       0       0       0
       0       0       0       0       0       0       0       0       0       0
       0       0       0       0       0       0       0       0       0       0
       0       0       0       0       0       0       0       0       0       0
       0       0       0       0       0       0       0       0       0       0
       0       0       0       0       0       0       0       0       0       0
       0       0       0       0       0       0       0       0       0       0
       0       0       0       0       0       0       0       0       0       0
       0       0       0       0       0       0       0       0       0       0
       0       0       0       0       0       0       0       0       0       0
       0       0       0       0       0       0       0       0       0       0
       0       0       0       0       0       0       0       0       0       0
       0       0       0       0       0       0       0       0       0       0
       0       0       0       0       0       0       0       0       0       0
       0       0       0       0       0       0       0       0       0       0
       0       0       0       0       0       0       0       0       0       0
       0       0       0       0       0       0       0       0       0       0
       0       0       0       0       0       0       0       0       0       0
       0       0       0       0       0       0       0       0       0       0
       0       0       0       0       0       0       0       0       0       0
       0       0       0       0       0       0       0       0       0       0
       0       0       0       0       0       0       0       0       0       0
       0       0       0       0       0       0       0       0       0       0
       0       0       0       0       0       0       0       0       0       0
       0       0       0       0       0       0       0       0       0       0
       0       0       0       0       0       0       0       0       0       0
       0       0       0       0       0       0       0       0       0       0
       0       0       0       0       0       0       0       0       0       0
       0       0       0       0       0       0       0       0       0       0
       0       0       0       0       0       0       0       0       0       0
       0       0       0       0       0       0       0       0       0       0
       0       0       0       0       0       0       0       0       0       0
       0       0       0       0       0       0       0       0       0       0
       0       0       0       0       0       0       0       0       0       0
       0       0       0       0       0       0       0       0       0       0
       0       0       0       0       0       0       0       0       0       0
       0       0       0       0       0       0       0       0       0       0
       0       0       0       0       0       0       0       0       0       0
       0       0       0       0       0       0       0       0       0       0
       0       0       0       0       0       0       0       0       0       0
       0       0       0       0       0       0       0       0       0       0
       0       0       0       0       0       0       0       0       0       0
       0       0       0       0       0       0       0       0       0       0
       0       0       0       0       0       0       0       0       0       0
       0       0       0       0       0       0       0       0       0       0
       0       0       0       0       0       0       0       0       0       0
       0       0       0       0       0       0       0       0       0       0
       0       0       0       0       0       0       0       0       0       0
       0       0       0       0       0       0       0       0       0       0
       0       0       0       0       0       0       0       0       0       0
       0       0       0       0       0       0       0       0       0       0
       0       0       0       0       0       0       0       0       0       0
       0       0       0       0       0       0       0       0       0       0
       0       0       0       0       0       0       0       0       0       0
       0       0       0       0       0       0       0       0       0       0
       0       0       0       0       0       0       0       0       0       0
       0       0       0       0       0       0       0       0       0       0
       0       0       0       0       0       0       0       0       0       0
       0       0       0       0       0       0       0       0       0       0
       0       0       0       0       0       0       0       0       0       0
       0       0       0       0       0       0       0       0       0       0
       0       0       0       0       0       0       0       0       0       0
       0       0       0       0       0       0       0       0       0       0
       0       0       0       0       0       0       0       0       0       0
       0       0       0       0       0       0       0       0       0       0
       0       0       0       0       0       0       0       0       0       0
       0       0       0       0       0       0       0       0       0       0
       0       0       0       0       0       0       0       0       0       0
       0       0       0       0       0       0       0       0       0       0
       0       0       0       0       0       0       0       0       0       0
       0       0       0       0       0       0       0       0       0       0
       0       0       0       0       0       0       0       0       0       0
       0       0       0       0       0       0       0       0       0       0
       0       0       0       0       0       0       0       0       0       0
       0       0       0       0       0       0       0       0       0       0
       0       0       0       0       0       0       0       0       0       0
       0       0       0       0       0       0       0       0       0       0
       0       0       0       0       0       0       0       0       0       0
       0       0       0       0       0       0       0       0       0       0
       0       0       0       0       0       0       0       0       0       0
       0       0       0       0       0       0       0       0       0       0
       0       0       0       0       0       0       0       0       0       0
       0       0       0       0       0       0       0       0       0       0
       0       0       0       0       0       0       0       0       0       0
       0       0       0       0       0       0       0       0       0       0
       0       0       0       0       0       0       0       0       0       0
       0       0       0       0       0       0       0       0       0       0
       0       0       0       0       0       0       0       0       0       0
       0       0       0       0       0       0       0       0       0       0
       0       0       0       0       0       0       0       0       0       0
       0       0       0       0       0       0       0       0       0       0
       0       0       0       0       0       0       0       0       0       0
       0       0       0       0       0       0       0       0       0       0
       0       0       0       0       0       0       0       0       0       0
       0       0       0       0       0       0       0       0       0       0
       0       0       0       0       0       0       0       0       0       0
       0       0       0       0       0       0       0       0       0       0
       0       0       0       0       0       0       0       0       0       0
       0       0       0       0       0       0       0       0       0       0
       0       0       0       0       0       0       0       0       0       0
       0       0       0       0       0       0       0       0       0       0
       0       0       0       0       0       0       0       0       0       0
       0       0       0       0       0       0       0       0       0       0
       0       0       0       0       0       0       0       0       0       0
       0       0       0       0       0       0       0       0       0       0
       0       0       0       0       0       0       0       0       0       0
       0       0       0       0       0       0       0       0       0       0
       0       0       0       0       0       0       0       0       0       0
       0       0       0       0       0       0       0       0       0       0
       0       0       0       0       0       0       0       0       0       0
       0       0       0       0       0       0       0       0       0       0
       0       0       0       0       0       0       0       0       0       0
       0       0       0       0       0       0       0       0       0       0
       0       0       0       0       0       0       0       0       0       0
       0       0       0       0       0       0       0       0       0       0
       0       0       0       0       0       0       0       0       0       0
       0       0       0       0       0       0       0       0       0       0
       0       0       0       0       0       0       0       0       0       0
       0       0       0       0       0       0       0       0       0       0
       0       0       0       0       0       0       0       0       0       0
       0       0       0       0       0       0       0       0       0       0
       0       0       0       0       0       0       0       0       0       0
       0       0       0       0       0       0       0       0       0       0
       0       0       0       0       0       0       0       0       0       0
       0       0       0       0       0       0       0       0       0       0
       0       0       0       0       0       0       0       0       0       0
       0       0       0       0       0       0       0       0       0       0
       0       0       0       0       0       0       0       0       0       0
       0       0       0       0       0       0       0       0       0       0
       0       0       0       0       0       0       0       0       0       0
       0       0       0       0       0       0       0       0       0       0
       0       0       0       0       0       0       0       0       0       0
       0       0       0       0       0       0       0       0       0       0
       0       0       0       0       0       0       0       0       0       0
       0       0       0       0       0       0       0       0       0       0
       0       0       0       0       0       0       0       0       0       0
       0       0       0       0       0       0       0       0       0       0
       0       0       0       0       0       0       0       0       0       0
       0       0       0       0       0       0       0       0       0       0
       0       0       0       0       0       0       0       0       0       0
       0       0       0       0       0       0       0       0       0       0
       0       0       0       0       0       0       0       0       0       0
       0       0       0       0       0       0       0       0       0       0
       0       0       0       0       0       0       0       0       0       0
       0       0       0       0       0       0       0       0       0       0
       0       0       0       0       0       0       0       0       0       0
       0       0       0       0       0       0       0       0       0       0
       0       0       0       0       0       0       0       0       0       0
       0       0       0       0       0       0       0       0       0       0
       0       0       0       0       0       0       0       0       0       0
       0       0       0       0       0       0       0       0       0       0
       0       0       0       0       0       0       0       0       0       0
       0       0       0       0       0       0       0       0       0       0
       0       0       0       0       0       0       0       0       0       0
       0       0       0       0       0       0       0       0       0       0
       0       0       0       0       0       0       0       0       0       0
       0       0       0       0       0       0       0       0       0       0
       0       0       0       0       0       0       0       0       0       0
       0       0       0       0       0       0       0       0       0       0
       0       0       0       0       0       0       0       0       0       0
       0       0       0       0       0       0       0       0       0       0
       0       0       0       0       0       0       0       0       0       0
       0       0       0       0       0       0       0       0       0       0
       0       0       0       0       0       0       0       0       0       0
       0       0       0       0       0       0       0       0       0       0
       0       0       0       0       0       0       0       0       0       0
       0       0       0       0       0       0       0       0       0       0
       0       0       0       0       0       0       0       0       0       0
       0       0       0       0       0       0       0       0       0       0
       0       0       0       0       0       0       0       0       0       0
       0       0       0       0       0       0       0       0       0       0
       0       0       0       0       0       0       0       0       0       0
       0       0       0       0       0       0       0       0       0       0
       0       0       0       0       0       0       0       0       0       0
       0       0       0       0       0       0       0       0       0       0
       0       0       0       0       0       0       0       0       0       0
       0       0       0       0       0       0       0       0       0       0
       0       0       0       0       0       0       0       0       0       0
       0       0       0       0       0       0       0       0       0       0
       0       0       0       0       0       0       0       0       0       0
       0       0       0       0       0       0       0       0       0       0
       0       0       0       0       0       0       0       0       0       0
       0       0       0       0       0       0       0       0       0       0
       0       0       0       0       0       0       0       0       0       0
       0       0       0       0       0       0       0       0       0       0
       0       0       0       0       0       0       0       0       0       0
       0       0       0       0       0       0       0       0       0       0
       0       0       0       0       0       0       0       0       0       0
       0       0       0       0       0       0       0       0       0       0
       0       0       0       0       0       0       0       0       0       0
       0       0       0       0       0       0       0       0       0       0
       0       0       0       0       0       0       0       0       0       0
       0       0       0       0       0       0       0       0       0       0
       0       0       0       0       0       0       0       0       0       0
       0       0       0       0       0       0       0       0       0       0
       0       0       0       0       0       0       0       0       0       0
       0       0       0       0       0       0       0       0       0       0
       0       0       0       0       0       0       0       0       0       0
       0       0       0       0       0       0       0       0       0       0
       0       0       0       0       0       0       0       0       0       0
       0       0       0       0       0       0       0       0       0       0
       0       0       0       0       0       0       0       0       0       0
       0       0       0       0       0       0       0       0       0       0
       0       0       0       0       0       0       0       0       0       0
       0       0       0       0       0       0       0       0       0       0
       0       0       0       0       0       0       0       0       0       0
       0       0       0       0       0       0       0       0       0       0
       0       0       0       0       0       0       0       0       0       0
       0       0       0       0       0       0       0       0       0       0
       0       0       0       0       0       0       0       0       0       0
       0       0       0       0       0       0       0       0       0       0
       0       0       0       0       0       0       0       0       0       0
       0       0       0       0       0       0       0       0       0       0
       0       0       0       0       0       0       0       0       0       0
       0       0       0       0       0       0       0       0       0       0
       0       0       0       0       0       0       0       0       0       0
       0       0       0       0       0       0       0       0       0       0
       0       0       0       0       0       0       0       0       0       0
       0       0       0       0       0       0       0       0       0       0
       0       0       0       0       0       0       0       0       0       0
       0       0       0       0       0       0       0       0       0       0
       0       0       0       0       0       0       0       0       0       0
       0       0       0       0       0       0       0       0       0       0
       0       0       0       0       0       0       0       0       0       0
       0       0       0       0       0       0       0       0       0       0
       0       0       0       0       0       0       0       0       0       0
       0       0       0       0       0       0       0       0       0       0
       0       0       0       0       0       0       0       0       0       0
       0       0       0       0       0       0       0       0       0       0
       0       0       0       0       0       0       0       0       0       0
       0       0       0       0       0       0       0       0       0       0
       0       0       0       0       0       0       0       0       0       0
       0       0       0       0       0       0       0       0       0       0
       0       0       0       0       0       0       0       0       0       0
       0       0       0       0       0       0       0       0       0       0
       0       0       0       0       0       0       0       0       0       0
       0       0       0       0       0       0       0       0       0       0
       0       0       0       0       0       0       0       0       0       0
       0       0       0       0       0       0       0       0       0       0
       0       0       0       0       0       0       0       0       0       0
       0       0       0       0       0       0       0       0       0       0
       0       0       0       0       0       0       0       0       0       0
       0       0       0       0       0       0       0       0       0       0
       0       0       0       0       0       0       0       0       0       0
       0       0       0       0       0       0       0       0       0       0
       0       0       0       0       0       0       0       0       0       0
       0       0       0       0       0       0       0       0       0       0
       0       0       0       0       0       0       0       0       0       0
       0       0       0       0       0       0       0       0       0       0
       0       0       0       0       0       0       0       0       0       0
       0       0       0       0       0       0       0       0       0       0
       0       0       0       0       0       0       0       0       0       0
       0       0       0       0       0       0       0       0       0       0
       0       0       0       0       0       0       0       0       0       0
       0       0       0       0       0       0       0       0       0       0
       0       0       0       0       0       0       0       0       0       0
       0       0       0       0       0       0       0       0       0       0
       0       0       0       0       0       0       0       0       0       0
       0       0       0       0       0       0       0       0       0       0
       0       0       0       0       0       0       0       0       0       0
       0       0       0       0       0       0       0       0       0       0
       0       0       0       0       0       0       0       0       0       0
       0       0       0       0       0       0       0       0       0       0
       0       0       0       0       0       0       0       0       0       0
       0       0       0       0       0       0       0       0       0       0
       0       0       0       0       0       0       0       0       0       0
       0       0       0       0       0       0       0       0       0       0
       0       0       0       0       0       0       0       0       0       0
       0       0       0       0       0       0       0       0       0       0
       0       0       0       0       0       0       0       0       0       0
       0       0       0       0       0       0       0       0       0       0
       0       0       0       0       0       0       0       0       0       0
       0       0       0       0       0       0       0       0       0       0
       0       0       0       0       0       0       0       0       0       0
       0       0       0       0       0       0       0       0       0       0
       0       0       0       0       0       0       0       0       0       0
       0       0       0       0       0       0       0       0       0       0
       0       0       0       0       0       0       0       0       0       0
       0       0       0       0       0       0       0       0       0       0
       0       0       0       0       0       0       0       0       0       0
       0       0       0       0       0       0       0       0       0       0
       0       0       0       0       0       0       0       0       0       0
       0       0       0       0       0       0       0       0       0       0
       0       0       0       0       0       0       0       0       0       0
       0       0       0       0       0       0       0       0       0       0
       0       0       0       0       0       0       0       0       0       0
       0       0       0       0       0       0       0       0       0       0
       0       0       0       0       0       0       0       0       0       0
       0       0       0       0       0       0       0       0       0       0
       0       0       0       0       0       0       0       0       0       0
       0       0       0       0       0       0       0       0       0       0
       0       0       0       0       0       0       0       0       0       0
       0       0       0       0       0       0       0       0       0       0
       0       0       0       0       0       0       0       0       0       0
       0       0       0       0       0       0       0       0       0       0
       0       0       0       0       0       0       0       0       0       0
       0       0       0       0       0       0       0       0       0       0
       0       0       0       0       0       0       0       0       0       0
       0       0       0       0       0       0       0       0       0       0
       0       0       0       0       0       0       0       0       0       0
       0       0       0       0       0       0       0       0       0       0
       0       0       0       0       0       0       0       0       0       0
       0       0       0       0       0       0       0       0       0       0
       0       0       0       0       0       0       0       0       0       0
       0       0       0       0       0       0       0       0       0       0
       0       0       0       0       0       0       0       0       0       0
       0       0       0       0       0       0       0       0       0       0
       0       0       0       0       0       0       0       0       0       0
       0       0       0       0       0       0       0       0       0       0
       0       0       0       0       0       0       0       0       0       0
       0       0       0       0       0       0       0       0       0       0
       0       0       0       0       0       0       0       0       0       0
       0       0       0       0       0       0       0       0       0       0
       0       0       0       0       0       0       0       0       0       0
       0       0       0       0       0       0       0       0       0       0
       0       0       0       0       0       0       0       0       0       0
       0       0       0       0       0       0       0       0       0       0
       0       0       0       0       0       0       0       0       0       0
       0       0       0       0       0       0       0       0       0       0
       0       0       0       0       0       0       0       0       0       0
       0       0       0       0       0       0       0       0       0       0
       0       0       0       0       0       0       0       0       0       0
       0       0       0       0       0       0       0       0       0       0
       0       0       0       0       0       0       0       0       0       0
       0       0       0       0       0       0       0       0       0       0
       0       0       0       0       0       0       0       0       0       0
       0       0       0       0       0       0       0       0       0       0
       0       0       0       0       0       0       0       0       0       0
       0       0       0       0       0       0       0       0       0       0
       0       0       0       0       0       0       0       0       0       0
       0       0       0       0       0       0       0       0       0       0
       0       0       0       0       0       0       0       0       0       0
       0       0       0       0       0       0       0       0       0       0
       0       0       0       0       0       0       0       0       0       0
       0       0       0       0       0       0       0       0       0       0
       0       0       0       0       0       0       0       0       0       0
       0       0       0       0       0       0       0       0       0       0
       0       0       0       0       0       0       0       0       0       0
       0       0       0       0       0       0       0       0       0       0
       0       0       0       0       0       0       0       0       0       0
       0       0       0       0       0       0       0       0       0       0
       0       0       0       0       0       0       0       0       0       0
       0       0       0       0       0       0       0       0       0       0
       0       0       0       0       0       0       0       0       0       0
       0       0       0       0       0       0       0       0       0       0
       0       0       0       0       0       0       0       0       0       0
       0       0       0       0       0       0       0       0       0       0
       0       0       0       0       0       0       0       0       0       0
       0       0       0       0       0       0       0       0       0       0
       0       0       0       0       0       0       0       0       0       0
       0       0       0       0       0       0       0       0       0       0
       0       0       0       0       0       0       0       0       0       0
       0       0       0       0       0       0       0       0       0       0
       0       0       0       0       0       0       0       0       0       0
       0       0       0       0       0       0       0       0       0       0
       0       0       0       0       0       0       0       0       0       0
       0       0       0       0       0       0       0       0       0       0
       0       0       0       0       0       0       0       0       0       0
       0       0       0       0       0       0       0       0       0       0
       0       0       0       0       0       0       0       0       0       0
       0       0       0       0       0       0       0       0       0       0
       0       0       0       0       0       0       0       0       0       0
       0       0       0       0       0       0       0       0       0       0
       0       0       0       0       0       0       0       0       0       0
       0       0       0       0       0       0       0       0       0       0
       0       0       0       0       0       0       0       0       0       0
       0       0       0       0       0       0       0       0       0       0
       0       0       0       0       0       0       0       0       0       0
       0       0       0       0       0       0       0       0       0       0
       0       0       0       0       0       0       0       0       0       0
       0       0       0       0       0       0       0       0       0       0
       0       0       0       0       0       0       0       0       0       0
       0       0       0       0       0       0       0       0       0       0
       0       0       0       0       0       0       0       0       0       0
       0       0       0       0       0       0       0       0       0       0
       0       0       0       0       0       0       0       0       0       0
       0       0       0       0       0       0       0       0       0       0
       0       0       0       0       0       0       0       0       0       0
       0       0       0       0       0       0       0       0       0       0
       0       0       0       0       0       0       0       0       0       0
       0       0       0       0       0       0       0       0       0       0
       0       0       0       0       0       0       0       0       0       0
       0       0       0       0       0       0       0       0       0       0
       0       0       0       0       0       0       0       0       0       0
       0       0       0       0       0       0       0       0       0       0
       0       0       0       0       0       0       0       0       0       0
       0       0       0       0       0       0       0       0       0       0
       0       0       0       0       0       0       0       0       0       0
       0       0       0       0       0       0       0       0       0       0
       0       0       0       0       0       0       0       0       0       0
       0       0       0       0       0       0       0       0       0       0
       0       0       0       0       0       0       0       0       0       0
       0       0       0       0       0       0       0       0       0       0
       0       0       0       0       0       0       0       0       0       0
       0       0       0       0       0       0       0       0       0       0
       0       0       0       0       0       0       0       0       0       0
       0       0       0       0       0       0       0       0       0       0
       0       0       0       0       0       0       0       0       0       0
       0       0       0       0       0       0       0       0       0       0
       0       0       0       0       0       0       0       0       0       0
       0       0       0       0       0       0       0       0       0       0
       0       0       0       0       0       0       0       0       0       0
       0       0       0       0       0       0       0       0       0       0
       0       0       0       0       0       0       0       0       0       0
       0       0       0       0       0       0       0       0       0       0
       0       0       0       0       0       0       0       0       0       0
       0       0       0       0       0       0       0       0       0       0
       0       0       0       0       0       0       0       0       0       0
       0       0       0       0       0       0       0       0       0       0
       0       0       0       0       0       0       0       0       0       0
       0       0       0       0       0       0       0       0       0       0
       0       0       0       0       0       0       0       0       0       0
       0       0       0       0       0       0       0       0       0       0
       0       0       0       0       0       0       0       0       0       0
       0       0       0       0       0       0       0       0       0       0
       0       0       0       0       0       0       0       0       0       0
       0       0       0       0       0       0       0       0       0       0
       0       0       0       0       0       0       0       0       0       0
       0       0       0       0       0       0       0       0       0       0
       0       0       0       0       0       0       0       0       0       0
       0       0       0       0       0       0       0       0       0       0
       0       0       0       0       0       0       0       0       0       0
       0       0       0       0       0       0       0       0       0       0
       0       0       0       0       0       0       0       0       0       0
       0       0       0       0       0       0       0       0       0       0
       0       0       0       0       0       0       0       0       0       0
       0       0       0       0       0       0       0       0       0       0
       0       0       0       0       0       0       0       0       0       0
       0       0       0       0       0       0       0       0       0       0
       0       0       0       0       0       0       0       0       0       0
       0       0       0       0       0       0       0       0       0       0
       0       0       0       0       0       0       0       0       0       0
       0       0       0       0       0       0       0       0       0       0
       0       0       0       0       0       0       0       0       0       0
       0       0       0       0       0       0       0       0       0       0
       0       0       0       0       0       0       0       0       0       0
       0       0       0       0       0       0       0       0       0       0
       0       0       0       0       0       0       0       0       0       0
       0       0       0       0       0       0       0       0       0       0
       0       0       0       0       0       0       0       0       0       0
       0       0       0       0       0       0       0       0       0       0
       0       0       0       0       0       0       0       0       0       0
       0       0       0       0       0       0       0       0       0       0
       0       0       0       0       0       0       0       0       0       0
       0       0       0       0       0       0       0       0       0       0
       0       0       0       0       0       0       0       0       0       0
       0       0       0       0       0       0       0       0       0       0
       0       0       0       0       0       0       0       0       0       0
       0       0       0       0       0       0       0       0       0       0
       0       0       0       0       0       0       0       0       0       0
       0       0       0       0       0       0       0       0       0       0
       0       0       0       0       0       0       0       0       0       0
       0       0       0       0       0       0       0       0       0       0
       0       0       0       0       0       0       0       0       0       0
       0       0       0       0       0       0       0       0       0       0
       0       0       0       0       0       0       0       0       0       0
       0       0       0       0       0       0       0       0       0       0
       0       0       0       0       0       0       0       0       0       0
       0       0       0       0       0       0       0       0       0       0
       0       0       0       0       0       0       0       0       0       0
       0       0       0       0       0       0       0       0       0       0
       0       0       0       0       0       0       0       0       0       0
       0       0       0       0       0       0       0       0       0       0
       0       0       0       0       0       0       0       0       0       0
       0       0       0       0       0       0       0       0       0       0
       0       0       0       0       0       0       0       0       0       0
       0       0       0       0       0       0       0       0       0       0
       0       0       0       0       0       0       0       0       0       0
       0       0       0       0       0       0       0       0       0       0
       0       0       0       0       0       0       0       0       0       0
       0       0       0       0       0       0       0       0       0       0
       0       0       0       0       0       0       0       0       0       0
       0       0       0       0       0       0       0       0       0       0
       0       0       0       0       0       0       0       0       0       0
       0       0       0       0       0       0       0       0       0       0
       0       0       0       0       0       0       0       0       0       0
       0       0       0       0       0       0       0       0       0       0
       0       0       0       0       0       0       0       0       0       0
       0       0       0       0       0       0       0       0       0       0
       0       0       0       0       0       0       0       0       0       0
       0       0       0       0       0       0       0       0       0       0
       0       0       0       0       0       0       0       0       0       0
       0       0       0       0       0       0       0       0       0       0
       0       0       0       0       0       0       0       0       0       0
       0       0       0       0       0       0       0       0       0       0
       0       0       0       0       0       0       0       0       0       0
       0       0       0       0       0       0       0       0       0       0
       0       0       0       0       0       0       0       0       0       0
       0       0       0       0       0       0       0       0       0       0
       0       0       0       0       0       0       0       0       0       0
       0       0       0       0       0       0       0       0       0       0
       0       0       0       0       0       0       0       0       0       0
       0       0       0       0       0       0       0       0       0       0
       0       0       0       0       0       0       0       0       0       0
       0       0       0       0       0       0       0       0       0       0
       0       0       0       0       0       0       0       0       0       0
       0       0       0       0       0       0       0       0       0       0
       0       0       0       0       0       0       0       0       0       0
       0       0       0       0       0       0       0       0       0       0
       0       0       0       0       0       0       0       0       0       0
       0       0       0       0       0       0       0       0       0       0
       0       0       0       0       0       0       0       0       0       0
       0       0       0       0       0       0       0       0       0       0
       0       0       0       0       0       0       0       0       0       0
       0       0       0       0       0       0       0       0       0       0
       0       0       0       0       0       0       0       0       0       0
       0       0       0       0       0       0       0       0       0       0
       0       0       0       0       0       0       0       0       0       0
       0       0       0       0       0       0       0       0       0       0
       0       0       0       0       0       0       0       0       0       0
       0       0       0       0       0       0       0       0       0       0
       0       0       0       0       0       0       0       0       0       0
       0       0       0       0       0       0       0       0       0       0
       0       0       0       0       0       0       0       0       0       0
       0       0       0       0       0       0       0       0       0       0
       0       0       0       0       0       0       0       0       0       0
       0       0       0       0       0       0       0       0       0       0
       0       0       0       0       0       0       0       0       0       0
       0       0       0       0       0       0       0       0       0       0
       0       0       0       0       0       0       0       0       0       0
       0       0       0       0       0       0       0       0       0       0
       0       0       0       0       0       0       0       0       0       0
       0       0       0       0       0       0       0       0       0       0
       0       0       0       0       0       0       0       0       0       0
       0       0       0       0       0       0       0       0       0       0
       0       0       0       0       0       0       0       0       0       0
       0       0       0       0       0       0       0       0       0       0
       0       0       0       0       0       0       0       0       0       0
       0       0       0       0       0       0       0       0       0       0
       0       0       0       0       0       0       0       0       0       0
       0       0       0       0       0       0       0       0       0       0
       0       0       0       0       0       0       0       0       0       0
       0       0       0       0       0       0       0       0       0       0
       0       0       0       0       0       0       0       0       0       0
       0       0       0       0       0       0       0       0       0       0
       0       0       0       0       0       0       0       0       0       0
       0       0       0       0       0       0       0       0       0       0
       0       0       0       0       0       0       0       0       0       0
       0       0       0       0       0       0       0       0       0       0
       0       0       0       0       0       0       0       0       0       0
       0       0       0       0       0       0       0       0       0       0
       0       0       0       0       0       0       0       0       0       0
       0       0       0       0       0       0       0       0       0       0
       0       0       0       0       0       0       0       0       0       0
       0       0       0       0       0       0       0       0       0       0
       0       0       0       0       0       0       0       0       0       0
       0       0       0       0       0       0       0       0       0       0
       0       0       0       0       0       0       0       0       0       0
       0       0       0       0       0       0       0       0       0       0
       0       0       0       0       0       0       0       0       0       0
       0       0       0       0       0       0       0       0       0       0
       0       0       0       0       0       0       0       0       0       0
       0       0       0       0       0       0       0       0       0       0
       0       0       0       0       0       0       0       0       0       0
       0       0       0       0       0       0       0       0       0       0
       0       0       0       0       0       0       0       0       0       0
       0       0       0       0       0       0       0       0       0       0
       0       0       0       0       0       0       0       0       0       0
       0       0       0       0       0       0       0       0       0       0
       0       0       0       0       0       0       0       0       0       0
       0       0       0       0       0       0       0       0       0       0
       0       0       0       0       0       0       0       0       0       0
       0       0       0       0       0       0       0       0       0       0
       0       0       0       0       0       0       0       0       0       0
       0       0       0       0       0       0       0       0       0       0
       0       0       0       0       0       0       0       0       0       0
       0       0       0       0       0       0       0       0       0       0
       0       0       0       0       0       0       0       0       0       0
       0       0       0       0       0       0       0       0       0       0
       0       0       0       0       0       0       0       0       0       0
       0       0       0       0       0       0       0       0       0       0
       0       0       0       0       0       0       0       0       0       0
       0       0       0       0       0       0       0       0       0       0
       0       0       0       0       0       0       0       0       0       0
       0       0       0       0       0       0       0       0       0       0
       0       0       0       0       0       0       0       0       0       0
       0       0       0       0       0       0       0       0       0       0
       0       0       0       0       0       0       0       0       0       0
       0       0       0       0       0       0       0       0       0       0
       0       0       0       0       0       0       0       0       0       0
       0       0       0       0       0       0       0       0       0       0
       0       0       0       0       0       0       0       0       0       0
       0       0       0       0       0       0       0       0       0       0
       0       0       0       0       0       0       0       0       0       0
       0       0       0       0       0       0       0       0       0       0
       0       0       0       0       0       0       0       0       0       0
       0       0       0       0       0       0       0       0       0       0
       0       0       0       0       0       0       0       0       0       0
       0       0       0       0       0       0       0       0       0       0
       0       0       0       0       0       0       0       0       0       0
       0       0       0       0       0       0       0       0       0       0
       0       0       0       0       0       0       0       0       0       0
       0       0       0       0       0       0       0       0       0       0
       0       0       0       0       0       0       0       0       0       0
       0       0       0       0       0       0       0       0       0       0
       0       0       0       0       0       0       0       0       0       0
       0       0       0       0       0       0       0       0       0       0
       0       0       0       0       0       0       0       0       0       0
       0       0       0       0       0       0       0       0       0       0
       0       0       0       0       0       0       0       0       0       0
       0       0       0       0       0       0       0       0       0       0
       0       0       0       0       0       0       0       0       0       0
       0       0       0       0       0       0       0       0       0       0
       0       0       0       0       0       0       0       0       0       0
       0       0       0       0       0       0       0       0       0       0
       0       0       0       0       0       0       0       0       0       0
       0       0       0       0       0       0       0       0       0       0
       0       0       0       0       0       0       0       0       0       0
       0       0       0       0       0       0       0       0       0       0
       0       0       0       0       0       0       0       0       0       0
       0       0       0       0       0       0       0       0       0       0
       0       0       0       0       0       0       0       0       0       0
       0       0       0       0       0       0       0       0       0       0
       0       0       0       0       0       0       0       0       0       0
       0       0       0       0       0       0       0       0       0       0
       0       0       0       0       0       0       0       0       0       0
       0       0       0       0       0       0       0       0       0       0
       0       0       0       0       0       0       0       0       0       0
       0       0       0       0       0       0       0       0       0       0
       0       0       0       0       0       0       0       0       0       0
       0       0       0       0       0       0       0       0       0       0
       0       0       0       0       0       0       0       0       0       0
       0       0       0       0       0       0       0       0       0       0
       0       0       0       0       0       0       0       0       0       0
       0       0       0       0       0       0       0       0       0       0
       0       0       0       0       0       0       0       0       0       0
       0       0       0       0       0       0       0       0       0       0
       0       0       0       0       0       0       0       0       0       0
       0       0       0       0       0       0       0       0       0       0
       0       0       0       0       0       0       0       0       0       0
       0       0       0       0       0       0       0       0       0       0
       0       0       0       0       0       0       0       0       0       0
       0       0       0       0       0       0       0       0       0       0
       0       0       0       0       0       0       0       0       0       0
       0       0       0       0       0       0       0       0       0       0
       0       0       0       0       0       0       0       0       0       0
       0       0       0       0       0       0       0       0       0       0
       0       0       0       0       0       0       0       0       0       0
       0       0       0       0       0       0       0       0       0       0
       0       0       0       0       0       0       0       0       0       0
       0       0       0       0       0       0       0       0       0       0
       0       0       0       0       0       0       0       0       0       0
       0       0       0       0       0       0       0       0       0       0
       0       0       0       0       0       0       0       0       0       0
       0       0       0       0       0       0       0       0       0       0
       0       0       0       0       0       0       0       0       0       0
       0       0       0       0       0       0       0       0       0       0
       0       0       0       0       0       0       0       0       0       0
       0       0       0       0       0       0       0       0       0       0
       0       0       0       0       0       0       0       0       0       0
       0       0       0       0       0       0       0       0       0       0
       0       0       0       0       0       0       0       0       0       0
       0       0       0       0       0       0       0       0       0       0
       0       0       0       0       0       0       0       0       0       0
       0       0       0       0       0       0       0       0       0       0
       0       0       0       0       0       0       0       0       0       0
       0       0       0       0       0       0       0       0       0       0
       0       0       0       0       0       0       0       0       0       0
       0       0       0       0       0       0       0       0       0       0
       0       0       0       0       0       0       0       0       0       0
       0       0       0       0       0       0       0       0       0       0
       0       0       0       0       0       0       0       0       0       0
       0       0       0       0       0       0       0       0       0       0
       0       0       0       0       0       0       0       0       0       0
       0       0       0       0       0       0       0       0       0       0
       0       0       0       0       0       0       0       0       0       0
       0       0       0       0       0       0       0       0       0       0
       0       0       0       0       0       0       0       0       0       0
       0       0       0       0       0       0       0       0       0       0
       0       0       0       0       0       0       0       0       0       0
       0       0       0       0       0       0       0       0       0       0
       0       0       0       0       0       0       0       0       0       0
       0       0       0       0       0       0       0       0       0       0
       0       0       0       0       0       0       0       0       0       0
       0       0       0       0       0       0       0       0       0       0
       0       0       0       0       0       0       0       0       0       0
       0       0       0       0       0       0       0       0       0       0
       0       0       0       0       0       0       0       0       0       0
       0       0       0       0       0       0       0       0       0       0
       0       0       0       0       0       0       0       0       0       0
       0       0       0       0       0       0       0       0       0       0
       0       0       0       0       0       0       0       0       0       0
       0       0       0       0       0       0       0       0       0       0
       0       0       0       0       0       0       0       0       0       0
       0       0       0       0       0       0       0       0       0       0
       0       0       0       0       0       0       0       0       0       0
       0       0       0       0       0       0       0       0       0       0
       0       0       0       0       0       0       0       0       0       0
       0       0       0       0       0       0       0       0       0       0
       0       0       0       0       0       0       0       0       0       0
       0       0       0       0       0       0       0       0       0       0
       0       0       0       0       0       0       0       0       0       0
       0       0       0       0       0       0       0       0       0       0
       0       0       0       0       0       0       0       0       0       0
       0       0       0       0       0       0       0       0       0       0
       0       0       0       0       0       0       0       0       0       0
       0       0       0       0       0       0       0       0       0       0
       0       0       0       0       0       0       0       0       0       0
       0       0       0       0       0       0       0       0       0       0
       0       0       0       0       0       0       0       0       0       0
       0       0       0       0       0       0       0       0       0       0
       0       0       0       0       0       0       0       0       0       0
       0       0       0       0       0       0       0       0       0       0
       0       0       0       0       0       0       0       0       0       0
       0       0       0       0       0       0       0       0       0       0
       0       0       0       0       0       0       0       0       0       0
       0       0       0       0       0       0       0       0       0       0
       0       0       0       0       0       0       0       0       0       0
       0       0       0       0       0       0       0       0       0       0
       0       0       0       0       0       0       0       0       0       0
       0       0       0       0       0       0       0       0       0       0
       0       0       0       0       0       0       0       0       0       0
       0       0       0       0       0       0       0       0       0       0
       0       0       0       0       0       0       0       0       0       0
       0       0       0       0       0       0       0       0       0       0
       0       0       0       0       0       0       0       0       0       0
       0       0       0       0       0       0       0       0       0       0
       0       0       0       0       0       0       0       0       0       0
       0       0       0       0       0       0       0       0       0       0
       0       0       0       0       0       0       0       0       0       0
       0       0       0       0       0       0       0       0       0       0
       0       0       0       0       0       0       0       0       0       0
       0       0       0       0       0       0       0       0       0       0
       0       0       0       0       0       0       0       0       0       0
       0       0       0       0       0       0       0       0       0       0
       0       0       0       0       0       0       0       0       0       0
       0       0       0       0       0       0       0       0       0       0
       0       0       0       0       0       0       0       0       0       0
       0       0       0       0       0       0       0       0       0       0
       0       0       0       0       0       0       0       0       0       0
       0       0       0       0       0       0       0       0       0       0
       0       0       0       0       0       0       0       0       0       0
       0       0       0       0       0       0       0       0       0       0
       0       0       0       0       0       0       0       0       0       0
       0       0       0       0       0       0       0       0       0       0
       0       0       0       0       0       0       0       0       0       0
       0       0       0       0       0       0       0       0       0       0
       0       0       0       0       0       0       0       0       0       0
       0       0       0       0       0       0       0       0       0       0
       0       0       0       0       0       0       0       0       0       0
       0       0       0       0       0       0       0       0       0       0
       0       0       0       0       0       0       0       0       0       0
       0       0       0       0       0       0       0       0       0       0
       0       0       0       0       0       0       0       0       0       0
       0       0       0       0       0       0       0       0       0       0
       0       0       0       0       0       0       0       0       0       0
       0       0       0       0       0       0       0       0       0       0
       0       0       0       0       0       0       0       0       0       0
       0       0       0       0       0       0       0       0       0       0
       0       0       0       0       0       0       0       0       0       0
       0       0       0       0       0       0       0       0       0       0
       0       0       0       0       0       0       0       0       0       0
       0       0       0       0       0       0       0       0       0       0
       0       0       0       0       0       0       0       0       0       0
       0       0       0       0       0       0       0       0       0       0
       0       0       0       0       0       0       0       0       0       0
       0       0       0       0       0       0       0       0       0       0
       0       0       0       0       0       0       0       0       0       0
       0       0       0       0       0       0       0       0       0       0
       0       0       0       0       0       0       0       0       0       0
       0       0       0       0       0       0       0       0       0       0
       0       0       0       0       0       0       0       0       0       0
       0       0       0       0       0       0       0       0       0       0
       0       0       0       0       0       0       0       0       0       0
       0       0       0       0       0       0       0       0       0       0
       0       0       0       0       0       0       0       0       0       0
       0       0       0       0       0       0       0       0       0       0
       0       0       0       0       0       0       0       0       0       0
       0       0       0       0       0       0       0       0       0       0
       0       0       0       0       0       0       0       0       0       0
       0       0       0       0       0       0       0       0       0       0
       0       0       0       0       0       0       0       0       0       0
       0       0       0       0       0       0       0       0       0       0
       0       0       0       0       0       0       0       0       0       0
       0       0       0       0       0       0       0       0       0       0
       0       0       0       0       0       0       0       0       0       0
       0       0       0       0       0       0       0       0       0       0
       0       0       0       0       0       0       0       0       0       0
       0       0       0       0       0       0       0       0       0       0
       0       0       0       0       0       0       0       0       0       0
       0       0       0       0       0       0       0       0       0       0
       0       0       0       0       0       0       0       0       0       0
       0       0       0       0       0       0       0       0       0       0
       0       0       0       0       0       0       0       0       0       0
       0       0       0       0       0       0       0       0       0       0
       0       0       0       0       0       0       0       0       0       0
       0       0       0       0       0       0       0       0       0       0
       0       0       0       0       0       0       0       0       0       0
       0       0       0       0       0       0       0       0       0       0
       0       0       0       0       0       0       0       0       0       0
       0       0       0       0       0       0       0       0       0       0
       0       0       0       0       0       0       0       0       0       0
       0       0       0       0       0       0       0       0       0       0
       0       0       0       0       0       0       0       0       0       0
       0       0       0       0       0       0       0       0       0       0
       0       0       0       0       0       0       0       0       0       0
       0       0       0       0       0       0       0       0       0       0
       0       0       0       0       0       0       0       0       0       0
       0       0       0       0       0       0       0       0       0       0
       0       0       0       0       0       0       0       0       0       0
       0       0       0       0       0       0       0       0       0       0
       0       0       0       0       0       0       0       0       0       0
       0       0       0       0       0       0       0       0       0       0
       0       0       0       0       0       0       0       0       0       0
       0       0       0       0       0       0       0       0       0       0
       0       0       0       0       0       0       0       0       0       0
       0       0       0       0       0       0       0       0       0       0
       0       0       0       0       0       0       0       0       0       0
       0       0       0       0       0       0       0       0       0       0
       0       0       0       0       0       0       0       0       0       0
       0       0       0       0       0       0       0       0       0       0
       0       0       0       0       0       0       0       0       0       0
       0       0       0       0       0       0       0       0       0       0
       0       0       0       0       0       0       0       0       0       0
       0       0       0       0       0       0       0       0       0       0
       0       0       0       0       0       0       0       0       0       0
       0       0       0       0       0       0       0       0       0       0
       0       0       0       0       0       0       0       0       0       0
       0       0       0       0       0       0       0       0       0       0
       0       0       0       0       0       0       0       0       0       0
       0       0       0       0       0       0       0       0       0       0
       0       0       0       0       0       0       0       0       0       0
       0       0       0       0       0       0       0       0       0       0
       0       0       0       0       0       0       0       0       0       0
       0       0       0       0       0       0       0       0       0       0
       0       0       0       0       0       0       0       0       0       0
       0       0       0       0       0       0       0       0       0       0
       0       0       0       0       0       0       0       0       0       0
       0       0       0       0       0       0       0       0       0       0
       0       0       0       0       0       0       0       0       0       0
       0       0       0       0       0       0       0       0       0       0
       0       0       0       0       0       0       0       0       0       0
       0       0       0       0       0       0       0       0       0       0
       0       0       0       0       0       0       0       0       0       0
       0       0       0       0       0       0       0       0       0       0
       0       0       0       0       0       0       0       0       0       0
       0       0       0       0       0       0       0       0       0       0
       0       0       0       0       0       0       0       0       0       0
       0       0       0       0       0       0       0       0       0       0
       0       0       0       0       0       0       0       0       0       0
       0       0       0       0       0       0       0       0       0       0
       0       0       0       0       0       0       0       0       0       0
       0       0       0       0       0       0       0       0       0       0
       0       0       0       0       0       0       0       0       0       0
       0       0       0       0       0       0       0       0       0       0
       0       0       0       0       0       0       0       0       0       0
       0       0       0       0       0       0       0       0       0       0
       0       0       0       0       0       0       0       0       0       0
       0       0       0       0       0       0       0       0       0       0
       0       0       0       0       0       0       0       0       0       0
       0       0       0       0       0       0       0       0       0       0
       0       0       0       0       0       0       0       0       0       0
       0       0       0       0       0       0       0       0       0       0
       0       0       0       0       0       0       0       0       0       0
       0       0       0       0       0       0       0       0       0       0
       0       0       0       0       0       0       0       0       0       0
       0       0       0       0       0       0       0       0       0       0
       0       0       0       0       0       0       0       0       0       0
       0       0       0       0       0       0       0       0       0       0
       0       0       0       0       0       0       0       0       0       0
       0       0       0       0       0       0       0       0       0       0
       0       0       0       0       0       0       0       0       0       0
       0       0       0       0       0       0       0       0       0       0
       0       0       0       0       0       0       0       0       0       0
       0       0       0       0       0       0       0       0       0       0
       0       0       0       0       0       0       0       0       0       0
       0       0       0       0       0       0       0       0       0       0
       0       0       0       0       0       0       0       0       0       0
       0       0       0       0       0       0       0       0       0       0
       0       0       0       0       0       0       0       0       0       0
       0       0       0       0       0       0       0       0       0       0
       0       0       0       0       0       0       0       0       0       0
       0       0       0       0       0       0       0       0       0       0
       0       0       0       0       0       0       0       0       0       0
       0       0       0       0       0       0       0       0       0       0
       0       0       0       0       0       0       0       0       0       0
       0       0       0       0       0       0       0       0       0       0
       0       0       0       0       0       0       0       0       0       0
       0       0       0       0       0       0       0       0       0       0
       0       0       0       0       0       0       0       0       0       0
       0       0       0       0       0       0       0       0       0       0
       0       0       0       0       0       0       0       0       0       0
       0       0       0       0       0       0       0       0       0       0
       0       0       0       0       0       0       0       0       0       0
       0       0       0       0       0       0       0       0       0       0
       0       0       0       0       0       0       0       0       0       0
       0       0       0       0       0       0       0       0       0       0
       0       0       0       0       0       0       0       0       0       0
       0       0       0       0       0       0       0       0       0       0
       0       0       0       0       0       0       0       0       0       0
       0       0       0       0       0       0       0       0       0       0
       0       0       0       0       0       0       0       0       0       0
       0       0       0       0       0       0       0       0       0       0
       0       0       0       0       0       0       0       0       0       0
       0       0       0       0       0       0       0       0       0       0
       0       0       0       0       0       0       0       0       0       0
       0       0       0       0       0       0       0       0       0       0
       0       0       0       0       0       0       0       0       0       0
       0       0       0       0       0       0       0       0       0       0
       0       0       0       0       0       0       0       0       0       0
       0       0       0       0       0       0       0       0       0       0
       0       0       0       0       0       0       0       0       0       0
       0       0       0       0       0       0       0       0       0       0
       0       0       0       0       0       0       0       0       0       0
       0       0       0       0       0       0       0       0       0       0
       0       0       0       0       0       0       0       0       0       0
       0       0       0       0       0       0       0       0       0       0
       0       0       0       0       0       0       0       0       0       0
       0       0       0       0       0       0       0       0       0       0
       0       0       0       0       0       0       0       0       0       0
       0       0       0       0       0       0       0       0       0       0
       0       0       0       0       0       0       0       0       0       0
       0       0       0       0       0       0       0       0       0       0
       0       0       0       0       0       0       0       0       0       0
       0       0       0       0       0       0       0       0       0       0
       0       0       0       0       0       0       0       0       0       0
       0       0       0       0       0       0       0       0       0       0
       0       0       0       0       0       0       0       0       0       0
       0       0       0       0       0       0       0       0       0       0
       0       0       0       0       0       0       0       0       0       0
       0       0       0       0       0       0       0       0       0       0
       0       0       0       0       0       0       0       0       0       0
       0       0       0       0       0       0       0       0       0       0
       0       0       0       0       0       0       0       0       0       0
       0       0       0       0       0       0       0       0       0       0
       0       0       0       0       0       0       0       0       0       0
       0       0       0       0       0       0       0       0       0       0
       0       0       0       0       0       0       0       0       0       0
       0       0       0       0       0       0       0       0       0       0
       0       0       0       0       0       0       0       0       0       0
       0       0       0       0       0       0       0       0       0       0
       0       0       0       0       0       0       0       0       0       0
       0       0       0       0       0       0       0       0       0       0
       0       0       0       0       0       0       0       0       0       0
       0       0       0       0       0       0       0       0       0       0
       0       0       0       0       0       0       0       0       0       0
       0       0       0       0       0       0       0       0       0       0
       0       0       0       0       0       0       0       0       0       0
       0       0       0       0       0       0       0       0       0       0
       0       0       0       0       0       0       0       0       0       0
       0       0       0       0       0       0       0       0       0       0
       0       0       0       0       0       0       0       0       0       0
       0       0       0       0       0       0       0       0       0       0
       0       0       0       0       0       0       0       0       0       0
       0       0       0       0       0       0       0       0       0       0
       0       0       0       0       0       0       0       0       0       0
       0       0       0       0       0       0       0       0       0       0
       0       0       0       0       0       0       0       0       0       0
       0       0       0       0       0       0       0       0       0       0
       0       0       0       0       0       0       0       0       0       0
       0       0       0       0       0       0       0       0       0       0
       0       0       0       0       0       0       0       0       0       0
       0       0       0       0       0       0       0       0       0       0
       0       0       0       0       0       0       0       0       0       0
       0       0       0       0       0       0       0       0       0       0
       0       0       0       0       0       0       0       0       0       0
       0       0       0       0       0       0       0       0       0       0
       0       0       0       0       0       0       0       0       0       0
       0       0       0       0       0       0       0       0       0       0
       0       0       0       0       0       0       0       0       0       0
       0       0       0       0       0       0       0       0       0       0
       0       0       0       0       0       0       0       0       0       0
       0       0       0       0       0       0       0       0       0       0
       0       0       0       0       0       0       0       0       0       0
       0       0       0       0       0       0       0       0       0       0
       0       0       0       0       0       0       0       0       0       0
       0       0       0       0       0       0       0       0       0       0
       0       0       0       0       0       0       0       0       0       0
       0       0       0       0       0       0       0       0       0       0
       0       0       0       0       0       0       0       0       0       0
       0       0       0       0       0       0       0       0       0       0
       0       0       0       0       0       0       0       0       0       0
       0       0       0       0       0       0       0       0       0       0
       0       0       0       0       0       0       0       0       0       0
       0       0       0       0       0       0       0       0       0       0
       0       0       0       0       0       0       0       0       0       0
       0       0       0       0       0       0       0       0       0       0
       0       0       0       0       0       0       0       0       0       0
       0       0       0       0       0       0       0       0       0       0
       0       0       0       0       0       0       0       0       0       0
       0       0       0       0       0       0       0       0       0       0
       0       0       0       0       0       0       0       0       0       0
       0       0       0       0       0       0       0       0       0       0
       0       0       0       0       0       0       0       0       0       0
       0       0       0       0       0       0       0       0       0       0
       0       0       0       0       0       0       0       0       0       0
       0       0       0       0       0       0       0       0       0       0
       0       0       0       0       0       0       0       0       0       0
       0       0       0       0       0       0       0       0       0       0
       0       0       0       0       0       0       0       0       0       0
       0       0       0       0       0       0       0       0       0       0
       0       0       0       0       0       0       0       0       0       0
       0       0       0       0       0       0       0       0       0       0
       0       0       0       0       0       0       0       0       0       0
       0       0       0       0       0       0       0       0       0       0
       0       0       0       0       0       0       0       0       0       0
       0       0       0       0       0       0       0       0       0       0
       0       0       0       0       0       0       0       0       0       0
       0       0       0       0       0       0       0       0       0       0
       0       0       0       0       0       0       0       0       0       0
       0       0       0       0       0       0       0       0       0       0
       0       0       0       0       0       0       0       0       0       0
       0       0       0       0       0       0       0       0       0       0
       0       0       0       0       0       0       0       0       0       0
       0       0       0       0       0       0       0       0       0       0
       0       0       0       0       0       0       0       0       0       0
       0       0       0       0       0       0       0       0       0       0
       0       0       0       0       0       0       0       0       0       0
       0       0       0       0       0       0       0       0       0       0
       0       0       0       0       0       0       0       0       0       0
       0       0       0       0       0       0       0       0       0       0
       0       0       0       0       0       0       0       0       0       0
       0       0       0       0       0       0       0       0       0       0
       0       0       0       0       0       0       0       0       0       0
       0       0       0       0       0       0       0       0       0       0
       0       0       0       0       0       0       0       0       0       0
       0       0       0       0       0       0       0       0       0       0
       0       0       0       0       0       0       0       0       0       0
       0       0       0       0       0       0       0       0       0       0
       0       0       0       0       0       0       0       0       0       0
       0       0       0       0       0       0       0       0       0       0
       0       0       0       0       0       0       0       0       0       0
       0       0       0       0       0       0       0       0       0       0
       0       0       0       0       0       0       0       0       0       0
       0       0       0       0       0       0       0       0       0       0
       0       0       0       0       0       0       0       0       0       0
       0       0       0       0       0       0       0       0       0       0
       0       0       0       0       0       0       0       0       0       0
       0       0       0       0       0       0       0       0       0       0
       0       0       0       0       0       0       0       0       0       0
       0       0       0       0       0       0       0       0       0       0
       0       0       0       0       0       0       0       0       0       0
       0       0       0       0       0       0       0       0       0       0
       0       0       0       0       0       0       0       0       0       0
       0       0       0       0       0       0       0       0       0       0
       0       0       0       0       0       0       0       0       0       0
       0       0       0       0       0       0       0       0       0       0
       0       0       0       0       0       0       0       0       0       0
       0       0       0       0       0       0       0       0       0       0
       0       0       0       0       0       0       0       0       0       0
       0       0       0       0       0       0       0       0       0       0
       0       0       0       0       0       0       0       0       0       0
       0       0       0       0       0       0       0       0       0       0
       0       0       0       0       0       0       0       0       0       0
       0       0       0       0       0       0       0       0       0       0
       0       0       0       0       0       0       0       0       0       0
       0       0       0       0       0       0       0       0       0       0
       0       0       0       0       0       0       0       0       0       0
       0       0       0       0       0       0       0       0       0       0
       0       0       0       0       0       0       0       0       0       0
       0       0       0       0       0       0       0       0       0       0
       0       0       0       0       0       0       0       0       0       0
       0       0       0       0       0       0       0       0       0       0
       0       0       0       0       0       0       0       0       0       0
       0       0       0       0       0       0       0       0       0       0
       0       0       0       0       0       0       0       0       0       0
       0       0       0       0       0       0       0       0       0       0
       0       0       0       0       0       0       0       0       0       0
       0       0       0       0       0       0       0       0       0       0
       0       0       0       0       0       0       0       0       0       0
       0       0       0       0       0       0       0       0       0       0
       0       0       0       0       0       0       0       0       0       0
       0       0       0       0       0       0       0       0       0       0
       0       0       0       0       0       0       0       0       0       0
       0       0       0       0       0       0       0       0       0       0
       0       0       0       0       0       0       0       0       0       0
       0       0       0       0       0       0       0       0       0       0
       0       0       0       0       0       0       0       0       0       0
       0       0       0       0       0       0       0       0       0       0
       0       0       0       0       0       0       0       0       0       0
       0       0       0       0       0       0       0       0       0       0
       0       0       0       0       0       0       0       0       0       0
       0       0       0       0       0       0       0       0       0       0
       0       0       0       0       0       0       0       0       0       0
       0       0       0       0       0       0       0       0       0       0
       0       0       0       0       0       0       0       0       0       0
       0       0       0       0       0       0       0       0       0       0
       0       0       0       0       0       0       0       0       0       0
       0       0       0       0       0       0       0       0       0       0
       0       0       0       0       0       0       0       0       0       0
       0       0       0       0       0       0       0       0       0       0
       0       0       0       0       0       0       0       0       0       0
       0       0       0       0       0       0       0       0       0       0
       0       0       0       0       0       0       0       0       0       0
       0       0       0       0       0       0       0       0       0       0
       0       0       0       0       0       0       0       0       0       0
       0       0       0       0       0       0       0       0       0       0
       0       0       0       0       0       0       0       0       0       0
       0       0       0       0       0       0       0       0       0       0
       0       0       0       0       0       0       0       0       0       0
       0       0       0       0       0       0       0       0       0       0
       0       0       0       0       0       0       0       0       0       0
       0       0       0       0       0       0       0       0       0       0
       0       0       0       0       0       0       0       0       0       0
       0       0       0       0       0       0       0       0       0       0
       0       0       0       0       0       0       0       0       0       0
       0       0       0       0       0       0       0       0       0       0
       0       0       0       0       0       0       0       0       0       0
       0       0       0       0       0       0       0       0       0       0
       0       0       0       0       0       0       0       0       0       0
       0       0       0       0       0       0       0       0       0       0
       0       0       0       0       0       0       0       0       0       0
       0       0       0       0       0       0       0       0       0       0
       0       0       0       0       0       0       0       0       0       0
       0       0       0       0       0       0       0       0       0       0
       0       0       0       0       0       0       0       0       0       0
       0       0       0       0       0       0       0       0       0       0
       0       0       0       0       0       0       0       0       0       0
       0       0       0       0       0       0       0       0       0       0
       0       0       0       0       0       0       0       0       0       0
       0       0       0       0       0       0       0       0       0       0
       0       0       0       0       0       0       0       0       0       0
       0       0       0       0       0       0       0       0       0       0
       0       0       0       0       0       0       0       0       0       0
       0       0       0       0       0       0       0       0       0       0
       0       0       0       0       0       0       0       0       0       0
       0       0       0       0       0       0       0       0       0       0
       0       0       0       0       0       0       0       0       0       0
       0       0       0       0       0       0       0       0       0       0
       0       0       0       0       0       0       0       0       0       0
       0       0       0       0       0       0       0       0       0       0
       0       0       0       0       0       0       0       0       0       0
       0       0       0       0       0       0       0       0       0       0
       0       0       0       0       0       0       0       0       0       0
       0       0       0       0       0       0       0       0       0       0
       0       0       0       0       0       0       0       0       0       0
       0       0       0       0       0       0       0       0       0       0
       0       0       0       0       0       0       0       0       0       0
       0       0       0       0       0       0       0       0       0       0
       0       0       0       0       0       0       0       0       0       0
       0       0       0       0       0       0       0       0       0       0
       0       0       0       0       0       0       0       0       0       0
       0       0       0       0       0       0       0       0       0       0
       0       0       0       0       0       0       0       0       0       0
       0       0       0       0       0       0       0       0       0       0
       0       0       0       0       0       0       0       0       0       0
       0       0       0       0       0       0       0       0       0       0
       0       0       0       0       0       0       0       0       0       0
       0       0       0       0       0       0       0       0       0       0
       0       0       0       0       0       0       0       0       0       0
       0       0       0       0       0       0       0       0       0       0
       0       0       0       0       0       0       0       0       0       0
       0       0       0       0       0       0       0       0       0       0
       0       0       0       0       0       0       0       0       0       0
       0       0       0       0       0       0       0       0       0       0
       0       0       0       0       0       0       0       0       0       0
       0       0       0       0       0       0       0       0       0       0
       0       0       0       0       0       0       0       0       0       0
       0       0       0       0       0       0       0       0       0       0
       0       0       0       0       0       0       0       0       0       0
       0       0       0       0       0       0       0       0       0       0
       0       0       0       0       0       0       0       0       0       0
       0       0       0       0       0       0       0       0       0       0
       0       0       0       0       0       0       0       0       0       0
       0       0       0       0       0       0       0       0       0       0
       0       0       0       0       0       0       0       0       0       0
       0       0       0       0       0       0       0       0       0       0
       0       0       0       0       0       0       0       0       0       0
       0       0       0       0       0       0       0       0       0       0
       0       0       0       0       0       0       0       0       0       0
       0       0       0       0       0       0       0       0       0       0
       0       0       0       0       0       0       0       0       0       0
       0       0       0       0       0       0       0       0       0       0
       0       0       0       0       0       0       0       0       0       0
       0       0       0       0       0       0       0       0       0       0
       0       0       0       0       0       0       0       0       0       0
       0       0       0       0       0       0       0       0       0       0
       0       0       0       0       0       0       0       0       0       0
       0       0       0       0       0       0       0       0       0       0
       0       0       0       0       0       0       0       0       0       0
       0       0       0       0       0       0       0       0       0       0
       0       0       0       0       0       0       0       0       0       0
       0       0       0       0       0       0       0       0       0       0
       0       0       0       0       0       0       0       0       0       0
       0       0       0       0       0       0       0       0       0       0
       0       0       0       0       0       0       0       0       0       0
       0       0       0       0       0       0       0       0       0       0
       0       0       0       0       0       0       0       0       0       0
       0       0       0       0       0       0       0       0       0       0
       0       0       0       0       0       0       0       0       0       0
       0       0       0       0       0       0       0       0       0       0
       0       0       0       0       0       0       0       0       0       0
       0       0       0       0       0       0       0       0       0       0
       0       0       0       0       0       0       0       0       0       0
       0       0       0       0       0       0       0       0       0       0
       0       0       0       0       0       0       0       0       0       0
       0       0       0       0       0       0       0       0       0       0
       0       0       0       0       0       0       0       0       0       0
       0       0       0       0       0       0       0       0       0       0
       0       0       0       0       0       0       0       0       0       0
       0       0       0       0       0       0       0       0       0       0
       0       0       0       0       0       0       0       0       0       0
       0       0       0       0       0       0       0       0       0       0
       0       0       0       0       0       0       0       0       0       0
       0       0       0       0       0       0       0       0       0       0
       0       0       0       0       0       0       0       0       0       0
       0       0       0       0       0       0       0       0       0       0
       0       0       0       0       0       0       0       0       0       0
       0       0       0       0       0       0       0       0       0       0
       0       0       0       0       0       0       0       0       0       0
       0       0       0       0       0       0       0       0       0       0
       0       0       0       0       0       0       0       0       0       0
       0       0       0       0       0       0       0       0       0       0
       0       0       0       0       0       0       0       0       0       0
       0       0       0       0       0       0       0       0       0       0
       0       0       0       0       0       0       0       0       0       0
       0       0       0       0       0       0       0       0       0       0
       0       0       0       0       0       0       0       0       0       0
       0       0       0       0       0       0       0       0       0       0
       0       0       0       0       0       0       0       0       0       0
       0       0       0       0       0       0       0       0       0       0
       0       0       0       0       0       0       0       0       0       0
       0       0       0       0       0       0       0       0       0       0
       0       0       0       0       0       0       0       0       0       0
       0       0       0       0       0       0       0       0       0       0
       0       0       0       0       0       0       0       0       0       0
       0       0       0       0       0       0       0       0       0       0
       0       0       0       0       0       0       0       0       0       0
       0       0       0       0       0       0       0       0       0       0
       0       0       0       0       0       0       0       0       0       0
       0       0       0       0       0       0       0       0       0       0
       0       0       0       0       0       0       0       0       0       0
       0       0       0       0       0       0       0       0       0       0
       0       0       0       0       0       0       0       0       0       0
       0       0       0       0       0       0       0       0       0       0
       0       0       0       0       0       0       0       0       0       0
       0       0       0       0       0       0       0       0       0       0
       0       0       0       0       0       0       0       0       0       0
       0       0       0       0       0       0       0       0       0       0
       0       0       0       0       0       0       0       0       0       0
       0       0       0       0       0       0       0       0       0       0
       0       0       0       0       0       0       0       0       0       0
       0       0       0       0       0       0       0       0       0       0
       0       0       0       0       0       0       0       0       0       0
       0       0       0       0       0       0       0       0       0       0
       0       0       0       0       0       0       0       0       0       0
       0       0       0       0       0       0       0       0       0       0
       0       0       0       0       0       0       0       0       0       0
       0       0       0       0       0       0       0       0       0       0
       0       0       0       0       0       0       0       0       0       0
       0       0       0       0       0       0       0       0       0       0
       0       0       0       0       0       0       0       0       0       0
       0       0       0       0       0       0       0       0       0       0
       0       0       0       0       0       0       0       0       0       0
       0       0       0       0       0       0       0       0       0       0
       0       0       0       0       0       0       0       0       0       0
       0       0       0       0       0       0       0       0       0       0
       0       0       0       0       0       0       0       0       0       0
       0       0       0       0       0       0       0       0       0       0
       0       0       0       0       0       0       0       0       0       0
       0       0       0       0       0       0       0       0       0       0
       0       0       0       0       0       0       0       0       0       0
       0       0       0       0       0       0       0       0       0       0
       0       0       0       0       0       0       0       0       0       0
       0       0       0       0       0       0       0       0       0       0
       0       0       0       0       0       0       0       0       0       0
       0       0       0       0       0       0       0       0       0       0
       0       0       0       0       0       0       0       0       0       0
       0       0       0       0       0       0       0       0       0       0
       0       0       0       0       0       0       0       0       0       0
       0       0       0       0       0       0       0       0       0       0
       0       0       0       0       0       0       0       0       0       0
       0       0       0       0       0       0       0       0       0       0
       0       0       0       0       0       0       0       0       0       0
       0       0       0       0       0       0       0       0       0       0
       0       0       0       0       0       0       0       0       0       0
       0       0       0       0       0       0       0       0       0       0
       0       0       0       0       0       0       0       0       0       0
       0       0       0       0       0       0       0       0       0       0
       0       0       0       0       0       0       0       0       0       0
       0       0       0       0       0       0       0       0       0       0
       0       0       0       0       0       0       0       0       0       0
       0       0       0       0       0       0       0       0       0       0
       0       0       0       0       0       0       0       0       0       0
       0       0       0       0       0       0       0       0       0       0
       0       0       0       0       0       0       0       0       0       0
       0       0       0       0       0       0       0       0       0       0
       0       0       0       0       0       0       0       0       0       0
       0       0       0       0       0       0       0       0       0       0
       0       0       0       0       0       0       0       0       0       0
       0       0       0       0       0       0       0       0       0       0
       0       0       0       0       0       0       0       0       0       0
       0       0       0       0       0       0       0       0       0       0
       0       0       0       0       0       0       0       0       0       0
       0       0       0       0       0       0       0       0       0       0
       0       0       0       0       0       0       0       0       0       0
       0       0       0       0       0       0       0       0       0       0
       0       0       0       0       0       0       0       0       0       0
       0       0       0       0       0       0       0       0       0       0
       0       0       0       0       0       0       0       0       0       0
       0       0       0       0       0       0       0       0       0       0
       0       0       0       0       0       0       0       0       0       0
       0       0       0       0       0       0       0       0       0       0
       0       0       0       0       0       0       0       0       0       0
       0       0       0       0       0       0       0       0       0       0
       0       0       0       0       0       0       0       0       0       0
       0       0       0       0       0       0       0       0       0       0
       0       0       0       0       0       0       0       0       0       0
       0       0       0       0       0       0       0       0       0       0
       0       0       0       0       0       0       0       0       0       0
       0       0       0       0       0       0       0       0       0       0
       0       0       0       0       0       0       0       0       0       0
       0       0       0       0       0       0       0       0       0       0
       0       0       0       0       0       0       0       0       0       0
       0       0       0       0       0       0       0       0       0       0
       0       0       0       0       0       0       0       0       0       0
       0       0       0       0       0       0       0       0       0       0
       0       0       0       0       0       0       0       0       0       0
       0       0       0       0       0       0       0       0       0       0
       0       0       0       0       0       0       0       0       0       0
       0       0       0       0       0       0       0       0       0       0
       0       0       0       0       0       0       0       0       0       0
       0       0       0       0       0       0       0       0       0       0
       0       0       0       0       0       0       0       0       0       0
       0       0       0       0       0       0       0       0       0       0
       0       0       0       0       0       0       0       0       0       0
       0       0       0       0       0       0       0       0       0       0
       0       0       0       0       0       0       0       0       0       0
       0       0       0       0       0       0       0       0       0       0
       0       0       0       0       0       0       0       0       0       0
       0       0       0       0       0       0       0       0       0       0
       0       0       0       0       0       0       0       0       0       0
       0       0       0       0       0       0       0       0       0       0
       0       0       0       0       0       0       0       0       0       0
       0       0       0       0       0       0       0       0       0       0
       0       0       0       0       0       0       0       0       0       0
       0       0       0       0       0       0       0       0       0       0
       0       0       0       0       0       0       0       0       0       0
       0       0       0       0       0       0       0       0       0       0
       0       0       0       0       0       0       0       0       0       0
       0       0       0       0       0       0       0       0       0       0
       0       0       0       0       0       0       0       0       0       0
       0       0       0       0       0       0       0       0       0       0
       0       0       0       0       0       0       0       0       0       0
       0       0       0       0       0       0       0       0       0       0
       0       0       0       0       0       0       0       0       0       0
       0       0       0       0       0       0       0       0       0       0
       0       0       0       0       0       0       0       0       0       0
       0       0       0       0       0       0       0       0       0       0
       0       0       0       0       0       0       0       0       0       0
       0       0       0       0       0       0       0       0       0       0
       0       0       0       0       0       0       0       0       0       0
       0       0       0       0       0       0       0       0       0       0
       0       0       0       0       0       0       0       0       0       0
       0       0       0       0       0       0       0       0       0       0
       0       0       0       0       0       0       0       0       0       0
       0       0       0       0       0       0       0       0       0       0
       0       0       0       0       0       0       0       0       0       0
       0       0       0       0       0       0       0       0       0       0
       0       0       0       0       0       0       0       0       0       0
       0       0       0       0       0       0       0       0       0       0
       0       0       0       0       0       0       0       0       0       0
       0       0       0       0       0       0       0       0       0       0
       0       0       0       0       0       0       0       0       0       0
       0       0       0       0       0       0       0       0       0       0
       0       0       0       0       0       0       0       0       0       0
       0       0       0       0       0       0       0       0       0       0
       0       0       0       0       0       0       0       0       0       0
       0       0       0       0       0       0       0       0       0       0
       0       0       0       0       0       0       0       0       0       0
       0       0       0       0       0       0       0       0       0       0
       0       0       0       0       0       0       0       0       0       0
       0       0       0       0       0       0       0       0       0       0
       0       0       0       0       0       0       0       0       0       0
       0       0       0       0       0       0       0       0       0       0
       0       0       0       0       0       0       0       0       0       0
       0       0       0       0       0       0       0       0       0       0
       0       0       0       0       0       0       0       0       0       0
       0       0       0       0       0       0       0       0       0       0
       0       0       0       0       0       0       0       0       0       0
       0       0       0       0       0       0       0       0       0       0
       0       0       0       0       0       0       0       0       0       0
       0       0       0       0       0       0       0       0       0       0
       0       0       0       0       0       0       0       0       0       0
       0       0       0       0       0       0       0       0       0       0
       0       0       0       0       0       0       0       0       0       0
       0       0       0       0       0       0       0       0       0       0
       0       0       0       0       0       0       0       0       0       0
       0       0       0       0       0       0       0       0       0       0
       0       0       0       0       0       0       0       0       0       0
       0       0       0       0       0       0       0       0       0       0
       0       0       0       0       0       0       0       0       0       0
       0       0       0       0       0       0       0       0       0       0
       0       0       0       0       0       0       0       0       0       0
       0       0       0       0       0       0       0       0       0       0
       0       0       0       0       0       0       0       0       0       0
       0       0       0       0       0       0       0       0       0       0
       0       0       0       0       0       0       0       0       0       0
       0       0       0       0       0       0       0       0       0       0
       0       0       0       0       0       0       0       0       0       0
       0       0       0       0       0       0       0       0       0       0
       0       0       0       0       0       0       0       0       0       0
       0       0       0       0       0       0       0       0       0       0
       0       0       0       0       0       0       0       0       0       0
       0       0       0       0       0       0       0       0       0       0
       0       0       0       0       0       0       0       0       0       0
       0       0       0       0       0       0       0       0       0       0
       0       0       0       0       0       0       0       0       0       0
       0       0       0       0       0       0       0       0       0       0
       0       0       0       0       0       0       0       0       0       0
       0       0       0       0       0       0       0       0       0       0
       0       0       0       0       0       0       0       0       0       0
       0       0       0       0       0       0       0       0       0       0
       0       0       0       0       0       0       0       0       0       0
       0       0       0       0       0       0       0       0       0       0
       0       0       0       0       0       0       0       0       0       0
       0       0       0       0       0       0       0       0       0       0
       0       0       0       0       0       0       0       0       0       0
       0       0       0       0       0       0       0       0       0       0
       0       0       0       0       0       0       0       0       0       0
       0       0       0       0       0       0       0       0       0       0
       0       0       0       0       0       0       0       0       0       0
       0       0       0       0       0       0       0       0       0       0
       0       0       0       0       0       0       0       0       0       0
       0       0       0       0       0       0       0       0       0       0
       0       0       0       0       0       0       0       0       0       0
       0       0       0       0       0       0       0       0       0       0
       0       0       0       0       0       0       0       0       0       0
       0       0       0       0       0       0       0       0       0       0
       0       0       0       0       0       0       0       0       0       0
       0       0       0       0       0       0       0       0       0       0
       0       0       0       0       0       0       0       0       0       0
       0       0       0       0       0       0       0       0       0       0
       0       0       0       0       0       0       0       0       0       0
       0       0       0       0       0       0       0       0       0       0
       0       0       0       0       0       0       0       0       0       0
       0       0       0       0       0       0       0       0       0       0
       0       0       0       0       0       0       0       0       0       0
       0       0       0       0       0       0       0       0       0       0
       0       0       0       0       0       0       0       0       0       0
       0       0       0       0       0       0       0       0       0       0
       0       0       0       0       0       0       0       0       0       0
       0       0       0       0       0       0       0       0       0       0
       0       0       0       0       0       0       0       0       0       0
       0       0       0       0       0       0       0       0       0       0
       0       0       0       0       0       0       0       0       0       0
       0       0       0       0       0       0       0       0       0       0
       0       0       0       0       0       0       0       0       0       0
       0       0       0       0       0       0       0       0       0       0
       0       0       0       0       0       0       0       0       0       0
       0       0       0       0       0       0       0       0       0       0
       0       0       0       0       0       0       0       0       0       0
       0       0       0       0       0       0       0       0       0       0
       0       0       0       0       0       0       0       0       0       0
       0       0       0       0       0       0       0       0       0       0
       0       0       0       0       0       0       0       0       0       0
       0       0       0       0       0       0       0       0       0       0
       0       0       0       0       0       0       0       0       0       0
       0       0       0       0       0       0       0       0       0       0
       0       0       0       0       0       0       0       0       0       0
       0       0       0       0       0       0       0       0       0       0
       0       0       0       0       0       0       0       0       0       0
       0       0       0       0       0       0       0       0       0       0
       0       0       0       0       0       0       0       0       0       0
       0       0       0       0       0       0       0       0       0       0
       0       0       0       0       0       0       0       0       0       0
       0       0       0       0       0       0       0       0       0       0
       0       0       0       0       0       0       0       0       0       0
       0       0       0       0       0       0       0       0       0       0
       0       0       0       0       0       0       0       0       0       0
       0       0       0       0       0       0       0       0       0       0
       0       0       0       0       0       0       0       0       0       0
       0       0       0       0       0       0       0       0       0       0
       0       0       0       0       0       0       0       0       0       0
       0       0       0       0       0       0       0       0       0       0
       0       0       0       0       0       0       0       0       0       0
       0       0       0       0       0       0       0       0       0       0
       0       0       0       0       0       0       0       0       0       0
       0       0       0       0       0       0       0       0       0       0
       0       0       0       0       0       0       0       0       0       0
       0       0       0       0       0       0       0       0       0       0
       0       0       0       0       0       0       0       0       0       0
       0       0       0       0       0       0       0       0       0       0
       0       0       0       0       0       0       0       0       0       0
       0       0       0       0       0       0       0       0       0       0
       0       0       0       0       0       0       0       0       0       0
       0       0       0       0       0       0       0       0       0       0
       0       0       0       0       0       0       0       0       0       0
       0       0       0       0       0       0       0       0       0       0
       0       0       0       0       0       0       0       0       0       0
       0       0       0       0       0       0       0       0       0       0
       0       0       0       0       0       0       0       0       0       0
       0       0       0       0       0       0       0       0       0       0
       0       0       0       0       0       0       0       0       0       0
       0       0       0       0       0       0       0       0       0       0
       0       0       0       0       0       0       0       0       0       0
       0       0       0       0       0       0       0       0       0       0
       0       0       0       0       0       0       0       0       0       0
       0       0       0       0       0       0       0       0       0       0
       0       0       0       0       0       0       0       0       0       0
       0       0       0       0       0       0       0       0       0       0
       0       0       0       0       0       0       0       0       0       0
       0       0       0       0       0       0       0       0       0       0
       0       0       0       0       0       0       0       0       0       0
       0       0       0       0       0       0       0       0       0       0
       0       0       0       0       0       0       0       0       0       0
       0       0       0       0       0       0       0       0       0       0
       0       0       0       0       0       0       0       0       0       0
       0       0       0       0       0       0       0       0       0       0
       0       0       0       0       0       0       0       0       0       0
       0       0       0       0       0       0       0       0       0       0
       0       0       0       0       0       0       0       0       0       0
       0       0       0       0       0       0       0       0       0       0
       0       0       0       0       0       0       0       0       0       0
       0       0       0       0       0       0       0       0       0       0
       0       0       0       0       0       0       0       0       0       0
       0       0       0       0       0       0       0       0       0       0
       0       0       0       0       0       0       0       0       0       0
       0       0       0       0       0       0       0       0       0       0
       0       0       0       0       0       0       0       0       0       0
       0       0       0       0       0       0       0       0       0       0
       0       0       0       0       0       0       0       0       0       0
       0       0       0       0       0       0       0       0       0       0
       0       0       0       0       0       0       0       0       0       0
       0       0       0       0       0       0       0       0       0       0
       0       0       0       0       0       0       0       0       0       0
       0       0       0       0       0       0       0       0       0       0
       0       0       0       0       0       0       0       0       0       0
       0       0       0       0       0       0       0       0       0       0
       0       0       0       0       0       0       0       0       0       0
       0       0       0       0       0       0       0       0       0       0
       0       0       0       0       0       0       0       0       0       0
       0       0       0       0       0       0       0       0       0       0
       0       0       0       0       0       0       0       0       0       0
       0       0       0       0       0       0       0       0       0       0
       0       0       0       0       0       0       0       0       0       0
       0       0       0       0       0       0       0       0       0       0
       0       0       0       0       0       0       0       0       0       0
       0       0       0       0       0       0       0       0       0       0
       0       0       0       0       0       0       0       0       0       0
       0       0       0       0       0       0       0       0       0       0
       0       0       0       0       0       0       0       0       0       0
       0       0       0       0       0       0       0       0       0       0
       0       0       0       0       0       0       0       0       0       0
       0       0       0       0       0       0       0       0       0       0
       0       0       0       0       0       0       0       0       0       0
       0       0       0       0       0       0       0       0       0       0
       0       0       0       0       0       0       0       0       0       0
       0       0       0       0       0       0       0       0       0       0
       0       0       0       0       0       0       0       0       0       0
       0       0       0       0       0       0       0       0       0       0
       0       0       0       0       0       0       0       0       0       0
       0       0       0       0       0       0       0       0       0       0
       0       0       0       0       0       0       0       0       0       0
       0       0       0       0       0       0       0       0       0       0
       0       0       0       0       0       0       0       0       0       0
       0       0       0       0       0       0       0       0       0       0
       0       0       0       0       0       0       0       0       0       0
       0       0       0       0       0       0       0       0       0       0
       0       0       0       0       0       0       0       0       0       0
       0       0       0       0       0       0       0       0       0       0
       0       0       0       0       0       0       0       0       0       0
       0       0       0       0       0       0       0       0       0       0
       0       0       0       0       0       0       0       0       0       0
       0       0       0       0       0       0       0       0       0       0
       0       0       0       0       0       0       0       0       0       0
       0       0       0       0       0       0       0       0       0       0
       0       0       0       0       0       0       0       0       0       0
       0       0       0       0       0       0       0       0       0       0
       0       0       0       0       0       0       0       0       0       0
       0       0       0       0       0       0       0       0       0       0
       0       0       0       0       0       0       0       0       0       0
       0       0       0       0       0       0       0       0       0       0
       0       0       0       0       0       0       0       0       0       0
       0       0       0       0       0       0       0       0       0       0
       0       0       0       0       0       0       0       0       0       0
       0       0       0       0       0       0       0       0       0       0
       0       0       0       0       0       0       0       0       0       0
       0       0       0       0       0       0       0       0       0       0
       0       0       0       0       0       0       0       0       0       0
       0       0       0       0       0       0       0       0       0       0
       0       0       0       0       0       0       0       0       0       0
       0       0       0       0       0       0       0       0       0       0
       0       0       0       0       0       0       0       0       0       0
       0       0       0       0       0       0       0       0       0       0
       0       0       0       0       0       0       0       0       0       0
       0       0       0       0       0       0       0       0       0       0
       0       0       0       0       0       0       0       0       0       0
       0       0       0       0       0       0       0       0       0       0
       0       0       0       0       0       0       0       0       0       0
       0       0       0       0       0       0       0       0       0       0
       0       0       0       0       0       0       0       0       0       0
       0       0       0       0       0       0       0       0       0       0
       0       0       0       0       0       0       0       0       0       0
       0       0       0       0       0       0       0       0       0       0
       0       0       0       0       0       0       0       0       0       0
       0       0       0       0       0       0       0       0       0       0
       0       0       0       0       0       0       0       0       0       0
       0       0       0       0       0       0       0       0       0       0
       0       0       0       0       0       0       0       0       0       0
       0       0       0       0       0       0       0       0       0       0
       0       0       0       0       0       0       0       0       0       0
       0       0       0       0       0       0       0       0       0       0
       0       0       0       0       0       0       0       0       0       0
       0       0       0       0       0       0       0       0       0       0
       0       0       0       0       0       0       0       0       0       0
       0       0       0       0       0       0       0       0       0       0
       0       0       0       0       0       0       0       0       0       0
       0       0       0       0       0       0       0       0       0       0
       0       0       0       0       0       0       0       0       0       0
       0       0       0       0       0       0       0       0       0       0
       0       0       0       0       0       0       0       0       0       0
       0       0       0       0       0       0       0       0       0       0
       0       0       0       0       0       0       0       0       0       0
       0       0       0       0       0       0       0       0       0       0
       0       0       0       0       0       0       0       0       0       0
       0       0       0       0       0       0       0       0       0       0
       0       0       0       0       0       0       0       0       0       0
       0       0       0       0       0       0       0       0       0       0
       0       0       0       0       0       0       0       0       0       0
       0       0       0       0       0       0       0       0       0       0
       0       0       0       0       0       0       0       0       0       0
       0       0       0       0       0       0       0       0       0       0
       0       0       0       0       0       0       0       0       0       0
       0       0       0       0       0       0       0       0       0       0
       0       0       0       0       0       0       0       0       0       0
       0       0       0       0       0       0       0       0       0       0
       0       0       0       0       0       0       0       0       0       0
       0       0       0       0       0       0       0       0       0       0
       0       0       0       0       0       0       0       0       0       0
       0       0       0       0       0       0       0       0       0       0
       0       0       0       0       0       0       0       0       0       0
       0       0       0       0       0       0       0       0       0       0
       0       0       0       0       0       0       0       0       0       0
       0       0       0       0       0       0       0       0       0       0
       0       0       0       0       0       0       0       0       0       0
       0       0       0       0       0       0       0       0       0       0
       0       0       0       0       0       0       0       0       0       0
       0       0       0       0       0       0       0       0       0       0
       0       0       0       0       0       0       0       0       0       0
       0       0       0       0       0       0       0       0       0       0
       0       0       0       0       0       0       0       0       0       0
       0       0       0       0       0       0       0       0       0       0
       0       0       0       0       0       0       0       0       0       0
       0       0       0       0       0       0       0       0       0       0
       0       0       0       0       0       0       0       0       0       0
       0       0       0       0       0       0       0       0       0       0
       0       0       0       0       0       0       0       0       0       0
       0       0       0       0       0       0       0       0       0       0
       0       0       0       0       0       0       0       0       0       0
       0       0       0       0       0       0       0       0       0       0
       0       0       0       0       0       0       0       0       0       0
       0       0       0       0       0       0       0       0       0       0
       0       0       0       0       0       0       0       0       0       0
       0       0       0       0       0       0       0       0       0       0
       0       0       0       0       0       0       0       0       0       0
       0       0       0       0       0       0       0       0       0       0
       0       0       0       0       0       0       0       0       0       0
       0       0       0       0       0       0       0       0       0       0
       0       0       0       0       0       0       0       0       0       0
       0       0       0       0       0       0       0       0       0       0
       0       0       0       0       0       0       0       0       0       0
       0       0       0       0       0       0       0       0       0       0
       0       0       0       0       0       0       0       0       0       0
       0       0       0       0       0       0       0       0       0       0
       0       0       0       0       0       0       0       0       0       0
       0       0       0       0       0       0       0       0       0       0
       0       0       0       0       0       0       0       0       0       0
       0       0       0       0       0       0       0       0       0       0
       0       0       0       0       0       0       0       0       0       0
       0       0       0       0       0       0       0       0       0       0
       0       0       0       0       0       0       0       0       0       0
       0       0       0       0       0       0       0       0       0       0
       0       0       0       0       0       0       0       0       0       0
       0       0       0       0       0       0       0       0       0       0
       0       0       0       0       0       0       0       0       0       0
       0       0       0       0       0       0       0       0       0       0
       0       0       0       0       0       0       0       0       0       0
       0       0       0       0       0       0       0       0       0       0
       0       0       0       0       0       0       0       0       0       0
       0       0       0       0       0       0       0       0       0       0
       0       0       0       0       0       0       0       0       0       0
       0       0       0       0       0       0       0       0       0       0
       0       0       0       0       0       0       0       0       0       0
       0       0       0       0       0       0       0       0       0       0
       0       0       0       0       0       0       0       0       0       0
       0       0       0       0       0       0       0       0       0       0
       0       0       0       0       0       0       0       0       0       0
       0       0       0       0       0       0       0       0       0       0
       0       0       0       0       0       0       0       0       0       0
       0       0       0       0       0       0       0       0       0       0
       0       0       0       0       0       0       0       0       0       0
       0       0       0       0       0       0       0       0       0       0
       0       0       0       0       0       0       0       0       0       0
       0       0       0       0       0       0       0       0       0       0
       0       0       0       0       0       0       0       0       0       0
       0       0       0       0       0       0       0       0       0       0
       0       0       0       0       0       0       0       0       0       0
       0       0       0       0       0       0       0       0       0       0
       0       0       0       0       0       0       0       0       0       0
       0       0       0       0       0       0       0       0       0       0
       0       0       0       0       0       0       0       0       0       0
       0       0       0       0       0       0       0       0       0       0
       0       0       0       0       0       0       0       0       0       0
       0       0       0       0       0       0       0       0       0       0
       0       0       0       0       0       0       0       0       0       0
       0       0       0       0       0       0       0       0       0       0
       0       0       0       0       0       0       0       0       0       0
       0       0       0       0       0       0       0       0       0       0
       0       0       0       0       0       0       0       0       0       0
       0       0       0       0       0       0       0       0       0       0
       0       0       0       0       0       0       0       0       0       0
       0       0       0       0       0       0       0       0       0       0
       0       0       0       0       0       0       0       0       0       0
       0       0       0       0       0       0       0       0       0       0
       0       0       0       0       0       0       0       0       0       0
       0       0       0       0       0       0       0       0       0       0
       0       0       0       0       0       0       0       0       0       0
       0       0       0       0       0       0       0       0       0       0
       0       0       0       0       0       0       0       0       0       0
       0       0       0       0       0       0       0       0       0       0
       0       0       0       0       0       0       0       0       0       0
       0       0       0       0       0       0       0       0       0       0
       0       0       0       0       0       0       0       0       0       0
       0       0       0       0       0       0       0       0       0       0
       0       0       0       0       0       0       0       0       0       0
       0       0       0       0       0       0       0       0       0       0
       0       0       0       0       0       0       0       0       0       0
       0       0       0       0       0       0       0       0       0       0
       0       0       0       0       0       0       0       0       0       0
       0       0       0       0       0       0       0       0       0       0
       0       0       0       0       0       0       0       0       0       0
       0       0       0       0       0       0       0       0       0       0
       0       0       0       0       0       0       0       0       0       0
       0       0       0       0       0       0       0       0       0       0
       0       0       0       0       0       0       0       0       0       0
       0       0       0       0       0       0       0       0       0       0
       0       0       0       0       0       0       0       0       0       0
       0       0       0       0       0       0       0       0       0       0
       0       0       0       0       0       0       0       0       0       0
       0       0       0       0       0       0       0       0       0       0
       0       0       0       0       0       0       0       0       0       0
       0       0       0       0       0       0       0       0       0       0
       0       0       0       0       0       0       0       0       0       0
       0       0       0       0       0       0       0       0       0       0
       0       0       0       0       0       0       0       0       0       0
       0       0       0       0       0       0       0       0       0       0
       0       0       0       0       0       0       0       0       0       0
       0       0       0       0       0       0       0       0       0       0
       0       0       0       0       0       0       0       0       0       0
       0       0       0       0       0       0       0       0       0       0
       0       0       0       0       0       0       0       0       0       0
       0       0       0       0       0       0       0       0       0       0
       0       0       0       0       0       0       0       0       0       0
       0       0       0       0       0       0       0       0       0       0
       0       0       0       0       0       0       0       0       0       0
       0       0       0       0       0       0       0       0       0       0
       0       0       0       0       0       0       0       0       0       0
       0       0       0       0       0       0       0       0       0       0
       0       0       0       0       0       0       0       0       0       0
       0       0       0       0       0       0       0       0       0       0
       0       0       0       0       0       0       0       0       0       0
       0       0       0       0       0       0       0       0       0       0
       0       0       0       0       0       0       0       0       0       0
       0       0       0       0       0       0       0       0       0       0
       0       0       0       0       0       0       0       0       0       0
       0       0       0       0       0       0       0       0       0       0
       0       0       0       0       0       0       0       0       0       0
       0       0       0       0       0       0       0       0       0       0
       0       0       0       0       0       0       0       0       0       0
       0       0       0       0       0       0       0       0       0       0
       0       0       0       0       0       0       0       0       0       0
       0       0       0       0       0       0       0       0       0       0
       0       0       0       0       0       0       0       0       0       0
       0       0       0       0       0       0       0       0       0       0
       0       0       0       0       0       0       0       0       0       0
       0       0       0       0       0       0       0       0       0       0
       0       0       0       0       0       0       0       0       0       0
       0       0       0       0       0       0       0       0       0       0
       0       0       0       0       0       0       0       0       0       0
       0       0       0       0       0       0       0       0       0       0
       0       0       0       0       0       0       0       0       0       0
       0       0       0       0       0       0       0       0       0       0
       0       0       0       0       0       0       0       0       0       0
       0       0       0       0       0       0       0       0       0       0
       0       0       0       0       0       0       0       0       0       0
       0       0       0       0       0       0       0       0       0       0
       0       0       0       0       0       0       0       0       0       0
       0       0       0       0       0       0       0       0       0       0
       0       0       0       0       0       0       0       0       0       0
       0       0       0       0       0       0       0       0       0       0
       0       0       0       0       0       0       0       0       0       0
       0       0       0       0       0       0       0       0       0       0
       0       0       0       0       0       0       0       0       0       0
       0       0       0       0       0       0       0       0       0       0
       0       0       0       0       0       0       0       0       0       0
       0       0       0       0       0       0       0       0       0       0
       0       0       0       0       0       0       0       0       0       0
       0       0       0       0       0       0       0       0       0       0
       0       0       0       0       0       0       0       0       0       0
       0       0       0       0       0       0       0       0       0       0
       0       0       0       0       0       0       0       0       0       0
       0       0       0       0       0       0       0       0       0       0
       0       0       0       0       0       0       0       0       0       0
       0       0       0       0       0       0       0       0       0       0
       0       0       0       0       0       0       0       0       0       0
       0       0       0       0       0       0       0       0       0       0
       0       0       0       0       0       0       0       0       0       0
       0       0       0       0       0       0       0       0       0       0
       0       0       0       0       0       0       0       0       0       0
       0       0       0       0       0       0       0       0       0       0
       0       0       0       0       0       0       0       0       0       0
       0       0       0       0       0       0       0       0       0       0
       0       0       0       0       0       0       0       0       0       0
       0       0       0       0       0       0       0       0       0       0
       0       0       0       0       0       0       0       0       0       0
       0       0       0       0       0       0       0       0       0       0
       0       0       0       0       0       0       0       0       0       0
       0       0       0       0       0       0       0       0       0       0
       0       0       0       0       0       0       0       0       0       0
       0       0       0       0       0       0       0       0       0       0
       0       0       0       0       0       0       0       0       0       0
       0       0       0       0       0       0       0       0       0       0
       0       0       0       0       0       0       0       0       0       0
       0       0       0       0       0       0       0       0       0       0
       0       0       0       0       0       0       0       0       0       0
       0       0       0       0       0       0       0       0       0       0
       0       0       0       0       0       0       0       0       0       0
       0       0       0       0       0       0       0       0       0       0
       0       0       0       0       0       0       0       0       0       0
       0       0       0       0       0       0       0       0       0       0
       0       0       0       0       0       0       0       0       0       0
       0       0       0       0       0       0       0       0       0       0
       0       0       0       0       0       0       0       0       0       0
       0       0       0       0       0       0       0       0       0       0
       0       0       0       0       0       0       0       0       0       0
       0       0       0       0       0       0       0       0       0       0
       0       0       0       0       0       0       0       0       0       0
       0       0       0       0       0       0       0       0       0       0
       0       0       0       0       0       0       0       0       0       0
       0       0       0       0       0       0       0       0       0       0
       0       0       0       0       0       0       0       0       0       0
       0       0       0       0       0       0       0       0       0       0
       0       0       0       0       0       0       0       0       0       0
       0       0       0       0       0       0       0       0       0       0
       0       0       0       0       0       0       0       0       0       0
       0       0       0       0       0       0       0       0       0       0
       0       0       0       0       0       0       0       0       0       0
       0       0       0       0       0       0       0       0       0       0
       0       0       0       0       0       0       0       0       0       0
       0       0       0       0       0       0       0       0       0       0
       0       0       0       0       0       0       0       0       0       0
       0       0       0       0       0       0       0       0       0       0
       0       0       0       0       0       0       0       0       0       0
       0       0       0       0       0       0       0       0       0       0
       0       0       0       0       0       0       0       0       0       0
       0       0       0       0       0       0       0       0       0       0
       0       0       0       0       0       0       0       0       0       0
       0       0       0       0       0       0       0       0       0       0
       0       0       0       0       0       0       0       0       0       0
       0       0       0       0       0       0       0       0       0       0
       0       0       0       0       0       0       0       0       0       0
       0       0       0       0       0       0       0       0       0       0
       0       0       0       0       0       0       0       0       0       0
       0       0       0       0       0       0       0       0       0       0
       0       0       0       0       0       0       0       0       0       0
       0       0       0       0       0       0       0       0       0       0
       0       0       0       0       0       0       0       0       0       0
       0       0       0       0       0       0       0       0       0       0
       0       0       0       0       0       0       0       0       0       0
       0       0       0       0       0       0       0       0       0       0
       0       0       0       0       0       0       0       0       0       0
       0       0       0       0       0       0       0       0       0       0
       0       0       0       0       0       0       0       0       0       0
       0       0       0       0       0       0       0       0       0       0
       0       0       0       0       0       0       0       0       0       0
       0       0       0       0       0       0       0       0       0       0
       0       0       0       0       0       0       0       0       0       0
       0       0       0       0       0       0       0       0       0       0
       0       0       0       0       0       0       0       0       0       0
       0       0       0       0       0       0       0       0       0       0
       0       0       0       0       0       0       0       0       0       0
       0       0       0       0       0       0       0       0       0       0
       0       0       0       0       0       0       0       0       0       0
       0       0       0       0       0       0       0       0       0       0
       0       0       0       0       0       0       0       0       0       0
       0       0       0       0       0       0       0       0       0       0
       0       0       0       0       0       0       0       0       0       0
       0       0       0       0       0       0       0       0       0       0
       0       0       0       0       0       0       0       0       0       0
       0       0       0       0       0       0       0       0       0       0
       0       0       0       0       0       0       0       0       0       0
       0       0       0       0       0       0       0       0       0       0
       0       0       0       0       0       0       0       0       0       0
       0       0       0       0       0       0       0       0       0       0
       0       0       0       0       0       0       0       0       0       0
       0       0       0       0       0       0       0       0       0       0
       0       0       0       0       0       0       0       0       0       0
       0       0       0       0       0       0       0       0       0       0
       0       0       0       0       0       0       0       0       0       0
       0       0       0       0       0       0       0       0       0       0
       0       0       0       0       0       0       0       0       0       0
       0       0       0       0       0       0       0       0       0       0
       0       0       0       0       0       0       0       0       0       0
       0       0       0       0       0       0       0       0       0       0
       0       0       0       0       0       0       0       0       0       0
       0       0       0       0       0       0       0       0       0       0
       0       0       0       0       0       0       0       0       0       0
       0       0       0       0       0       0       0       0       0       0
       0       0       0       0       0       0       0       0       0       0
       0       0       0       0       0       0       0       0       0       0
       0       0       0       0       0       0       0       0       0       0
       0       0       0       0       0       0       0       0       0       0
       0       0       0       0       0       0       0       0       0       0
       0       0       0       0       0       0       0       0       0       0
       0       0       0       0       0       0       0       0       0       0
       0       0       0       0       0       0       0       0       0       0
       0       0       0       0       0       0       0       0       0       0
       0       0       0       0       0       0       0       0       0       0
       0       0       0       0       0       0       0       0       0       0
       0       0       0       0       0       0       0       0       0       0
       0       0       0       0       0       0       0       0       0       0
       0       0       0       0       0       0       0       0       0       0
       0       0       0       0       0       0       0       0       0       0
       0       0       0       0       0       0       0       0       0       0
       0       0       0       0       0       0       0       0       0       0
       0       0       0       0       0       0       0       0       0       0
       0       0       0       0       0       0       0       0       0       0
       0       0       0       0       0       0       0       0       0       0
       0       0       0       0       0       0       0       0       0       0
       0       0       0       0       0       0       0       0       0       0
       0       0       0       0       0       0       0       0       0       0
       0       0       0       0       0       0       0       0       0       0
       0       0       0       0       0       0       0       0       0       0
       0       0       0       0       0       0       0       0       0       0
       0       0       0       0       0       0       0       0       0       0
       0       0       0       0       0       0       0       0       0       0
       0       0       0       0       0       0       0       0       0       0
       0       0       0       0       0       0       0       0       0       0
       0       0       0       0       0       0       0       0       0       0
       0       0       0       0       0       0       0       0       0       0
       0       0       0       0       0       0       0       0       0       0
       0       0       0       0       0       0       0       0       0       0
       0       0       0       0       0       0       0       0       0       0
       0       0       0       0       0       0       0       0       0       0
       0       0       0       0       0       0       0       0       0       0
       0       0       0       0       0       0       0       0       0       0
       0       0       0       0       0       0       0       0       0       0
       0       0       0       0       0       0       0       0       0       0
       0       0       0       0       0       0       0       0       0       0
       0       0       0       0       0       0       0       0       0       0
       0       0       0       0       0       0       0       0       0       0
       0       0       0       0       0       0       0       0       0       0
       0       0       0       0       0       0       0       0       0       0
       0       0       0       0       0       0       0       0       0       0
       0       0       0       0       0       0       0       0       0       0
       0       0       0       0       0       0       0       0       0       0
       0       0       0       0       0       0       0       0       0       0
       0       0       0       0       0       0       0       0       0       0
       0       0       0       0       0       0       0       0       0       0
       0       0       0       0       0       0       0       0       0       0
       0       0       0       0       0       0       0       0       0       0
       0       0       0       0       0       0       0       0       0       0
       0       0       0       0       0       0       0       0       0       0
       0       0       0       0       0       0       0       0       0       0
       0       0       0       0       0       0       0       0       0       0
       0       0       0       0       0       0       0       0       0       0
       0       0       0       0       0       0       0       0       0       0
       0       0       0       0       0       0       0       0       0       0
       0       0       0       0       0       0       0       0       0       0
       0       0       0       0       0       0       0       0       0       0
       0       0       0       0       0       0       0       0       0       0
       0       0       0       0       0       0       0       0       0       0
       0       0       0       0       0       0       0       0       0       0
       0       0       0       0       0       0       0       0       0       0
       0       0       0       0       0       0       0       0       0       0
       0       0       0       0       0       0       0       0       0       0
       0       0       0       0       0       0       0       0       0       0
       0       0       0       0       0       0       0       0       0       0
       0       0       0       0       0       0       0       0       0       0
       0       0       0       0       0       0       0       0       0       0
       0       0       0       0       0       0       0       0       0       0
       0       0       0       0       0       0       0       0       0       0
       0       0       0       0       0       0       0       0       0       0
       0       0       0       0       0       0       0       0       0       0
       0       0       0       0       0       0       0       0       0       0
       0       0       0       0       0       0       0       0       0       0
       0       0       0       0       0       0       0       0       0       0
       0       0       0       0       0       0       0       0       0       0
       0       0       0       0       0       0       0       0       0       0
       0       0       0       0       0       0       0       0       0       0
       0       0       0       0       0       0       0       0       0       0
       0       0       0       0       0       0       0       0       0       0
       0       0       0       0       0       0       0       0       0       0
       0       0       0       0       0       0       0       0       0       0
       0       0       0       0       0       0       0       0       0       0
       0       0       0       0       0       0       0       0       0       0
       0       0       0       0       0       0       0       0       0       0
       0       0       0       0       0       0       0       0       0       0
       0       0       0       0       0       0       0       0       0       0
       0       0       0       0       0       0       0       0       0       0
       0       0       0       0       0       0       0       0       0       0
       0       0       0       0       0       0       0       0       0       0
       0       0       0       0       0       0       0       0       0       0
       0       0       0       0       0       0       0       0       0       0
       0       0       0       0       0       0       0       0       0       0
       0       0       0       0       0       0       0       0       0       0
       0       0       0       0       0       0       0       0       0       0
       0       0       0       0       0       0       0       0       0       0
       0       0       0       0       0       0       0       0       0       0
       0       0       0       0       0       0       0       0       0       0
       0       0       0       0       0       0       0       0       0       0
       0       0       0       0       0       0       0       0       0       0
       0       0       0       0       0       0       0       0       0       0
       0       0       0       0       0       0       0       0       0       0
       0       0       0       0       0       0       0       0       0       0
       0       0       0       0       0       0       0       0       0       0
       0       0       0       0       0       0       0       0       0       0
       0       0       0       0       0       0       0       0       0       0
       0       0       0       0       0       0       0       0       0       0
       0       0       0       0       0       0       0       0       0       0
       0       0       0       0       0       0       0       0       0       0
       0       0       0       0       0       0       0       0       0       0
       0       0       0       0       0       0       0       0       0       0
       0       0       0       0       0       0       0       0       0       0
       0       0       0       0       0       0       0       0       0       0
       0       0       0       0       0       0       0       0       0       0
       0       0       0       0       0       0       0       0       0       0
       0       0       0       0       0       0       0       0       0       0
       0       0       0       0       0       0       0       0       0       0
       0       0       0       0       0       0       0       0       0       0
       0       0       0       0       0       0       0       0       0       0
       0       0       0       0       0       0       0       0       0       0
       0       0       0       0       0       0       0       0       0       0
       0       0       0       0       0       0       0       0       0       0
       0       0       0       0       0       0       0       0       0       0
       0       0       0       0       0       0       0       0       0       0
       0       0       0       0       0       0       0       0       0       0
       0       0       0       0       0       0       0       0       0       0
       0       0       0       0       0       0       0       0       0       0
       0       0       0       0       0       0       0       0       0       0
       0       0       0       0       0       0       0       0       0       0
       0       0       0       0       0       0       0       0       0       0
       0       0       0       0       0       0       0       0       0       0
       0       0       0       0       0       0       0       0       0       0
       0       0       0       0       0       0       0       0       0       0
       0       0       0       0       0       0       0       0       0       0
       0       0       0       0       0       0       0       0       0       0
       0       0       0       0       0       0       0       0       0       0
       0       0       0       0       0       0       0       0       0       0
       0       0       0       0       0       0       0       0       0       0
       0       0       0       0       0       0       0       0       0       0
       0       0       0       0       0       0       0       0       0       0
       0       0       0       0       0       0       0       0       0       0
       0       0       0       0       0       0       0       0       0       0
       0       0       0       0       0       0       0       0       0       0
       0       0       0       0       0       0       0       0       0       0
       0       0       0       0       0       0       0       0       0       0
       0       0       0       0       0       0       0       0       0       0
       0       0       0       0       0       0       0       0       0       0
       0       0       0       0       0       0       0       0       0       0
       0       0       0       0       0       0       0       0       0       0
       0       0       0       0       0       0       0       0       0       0
       0       0       0       0       0       0       0       0       0       0
       0       0       0       0       0       0       0       0       0       0
       0       0       0       0       0       0       0       0       0       0
       0       0       0       0       0       0       0       0       0       0
       0       0       0       0       0       0       0       0       0       0
       0       0       0       0       0       0       0       0       0       0
       0       0       0       0       0       0       0       0       0       0
       0       0       0       0       0       0       0       0       0       0
       0       0       0       0       0       0       0       0       0       0
       0       0       0       0       0       0       0       0       0       0
       0       0       0       0       0       0       0       0       0       0
       0       0       0       0       0       0       0       0       0       0
       0       0       0       0       0       0       0       0       0       0
       0       0       0       0       0       0       0       0       0       0
       0       0       0       0       0       0       0       0       0       0
       0       0       0       0       0       0       0       0       0       0
       0       0       0       0       0       0       0       0       0       0
       0       0       0       0       0       0       0       0       0       0
       0       0       0       0       0       0       0       0       0       0
       0       0       0       0       0       0       0       0       0       0
       0       0       0       0       0       0       0       0       0       0
       0       0       0       0       0       0       0       0       0       0
       0       0       0       0       0       0       0       0       0       0
       0       0       0       0       0       0       0       0       0       0
       0       0       0       0       0       0       0       0       0       0
       0       0       0       0       0       0       0       0       0       0
       0       0       0       0       0       0       0       0       0       0
       0       0       0       0       0       0       0       0       0       0
       0       0       0       0       0       0       0       0       0       0
       0       0       0       0       0       0       0       0       0       0
       0       0       0       0       0       0       0       0       0       0
       0       0       0       0       0       0       0       0       0       0
       0       0       0       0       0       0       0       0       0       0
       0       0       0       0       0       0       0       0       0       0
       0       0       0       0       0       0       0       0       0       0
       0       0       0       0       0       0       0       0       0       0
       0       0       0       0       0       0       0       0       0       0
       0       0       0       0       0       0       0       0       0       0
       0       0       0       0       0       0       0       0       0       0
       0       0       0       0       0       0       0       0       0       0
       0       0       0       0       0       0       0       0       0       0
       0       0       0       0       0       0       0       0       0       0
       0       0       0       0       0       0       0       0       0       0
       0       0       0       0       0       0       0       0       0       0
       0       0       0       0       0       0       0       0       0       0
       0       0       0       0       0       0       0       0       0       0
       0       0       0       0       0       0       0       0       0       0
       0       0       0       0       0       0       0       0       0       0
       0       0       0       0       0       0       0       0       0       0
       0       0       0       0       0       0       0       0       0       0
       0       0       0       0       0       0       0       0       0       0
       0       0       0       0       0       0       0       0       0       0
       0       0       0       0       0       0       0       0       0       0
       0       0       0       0       0       0       0       0       0       0
       0       0       0       0       0       0       0       0       0       0
       0       0       0       0       0       0       0       0       0       0
       0       0       0       0       0       0       0       0       0       0
       0       0       0       0       0       0       0       0       0       0
       0       0       0       0       0       0       0       0       0       0
       0       0       0       0       0       0       0       0       0       0
       0       0       0       0       0       0       0       0       0       0
       0       0       0       0       0       0       0       0       0       0
       0       0       0       0       0       0       0       0       0       0
       0       0       0       0       0       0       0       0       0       0
       0       0       0       0       0       0       0       0       0       0
       0       0       0       0       0       0       0       0       0       0
       0       0       0       0       0       0       0       0       0       0
       0       0       0       0       0       0       0       0       0       0
       0       0       0       0       0       0       0       0       0       0
       0       0       0       0       0       0       0       0       0       0
       0       0       0       0       0       0       0       0       0       0
       0       0       0       0       0       0       0       0       0       0
       0       0       0       0       0       0       0       0       0       0
       0       0       0       0       0       0       0       0       0       0
       0       0       0       0       0       0       0       0       0       0
       0       0       0       0       0       0       0       0       0       0
       0       0       0       0       0       0       0       0       0       0
       0       0       0       0       0       0       0       0       0       0
       0       0       0       0       0       0       0       0       0       0
       0       0       0       0       0       0       0       0       0       0
       0       0       0       0       0       0       0       0       0       0
       0       0       0       0       0       0       0       0       0       0
       0       0       0       0       0       0       0       0       0       0
       0       0       0       0       0       0       0       0       0       0
       0       0       0       0       0       0       0       0       0       0
       0       0       0       0       0       0       0       0       0       0
       0       0       0       0       0       0       0       0       0       0
       0       0       0       0       0       0       0       0       0       0
       0       0       0       0       0       0       0       0       0       0
       0       0       0       0       0       0       0       0       0       0
       0       0       0       0       0       0       0       0       0       0
       0       0       0       0       0       0       0       0       0       0
       0       0       0       0       0       0       0       0       0       0
       0       0       0       0       0       0       0       0       0       0
       0       0       0       0       0       0       0       0       0       0
       0       0       0       0       0       0       0       0       0       0
       0       0       0       0       0       0       0       0       0       0
       0       0       0       0       0       0       0       0       0       0
       0       0       0       0       0       0       0       0       0       0
       0       0       0       0       0       0       0       0       0       0
       0       0       0       0       0       0       0       0       0       0
       0       0       0       0       0       0       0       0       0       0
       0       0       0       0       0       0       0       0       0       0
       0       0       0       0       0       0       0       0       0       0
       0       0       0       0       0       0       0       0       0       0
       0       0       0       0       0       0       0       0       0       0
       0       0       0       0       0       0       0       0       0       0
       0       0       0       0       0       0       0       0       0       0
       0       0       0       0       0       0       0       0       0       0
       0       0       0       0       0       0       0       0       0       0
       0       0       0       0       0       0       0       0       0       0
       0       0       0       0       0       0       0       0       0       0
       0       0       0       0       0       0       0       0       0       0
       0       0       0       0       0       0       0       0       0       0
       0       0       0       0       0       0       0       0       0       0
       0       0       0       0       0       0       0       0       0       0
       0       0       0       0       0       0       0       0       0       0
       0       0       0       0       0       0       0       0       0       0
       0       0       0       0       0       0       0       0       0       0
       0       0       0       0       0       0       0       0       0       0
       0       0       0       0       0       0       0       0       0       0
       0       0       0       0       0       0       0       0       0       0
       0       0       0       0       0       0       0       0       0       0
       0       0       0       0       0       0       0       0       0       0
       0       0       0       0       0       0       0       0       0       0
       0       0       0       0       0       0       0       0       0       0
       0       0       0       0       0       0       0       0       0       0
       0       0       0       0       0       0       0       0       0       0
       0       0       0       0       0       0       0       0       0       0
       0       0       0       0       0       0       0       0       0       0
       0       0       0       0       0       0       0       0       0       0
       0       0       0       0       0       0       0       0       0       0
       0       0       0       0       0       0       0       0       0       0
       0       0       0       0       0       0       0       0       0       0
       0       0       0       0       0       0       0       0       0       0
       0       0       0       0       0       0       0       0       0       0
       0       0       0       0       0       0       0       0       0       0
       0       0       0       0       0       0       0       0       0       0
       0       0       0       0       0       0       0       0       0       0
       0       0       0       0       0       0       0       0       0       0
       0       0       0       0       0       0       0       0       0       0
       0       0       0       0       0       0       0       0       0       0
       0       0       0       0       0       0       0       0       0       0
       0       0       0       0       0       0       0       0       0       0
       0       0       0       0       0       0       0       0       0       0
       0       0       0       0       0       0       0       0       0       0
       0       0       0       0       0       0       0       0       0       0
       0       0       0       0       0       0       0       0       0       0
       0       0       0       0       0       0       0       0       0       0
       0       0       0       0       0       0       0       0       0       0
       0       0       0       0       0       0       0       0       0       0
       0       0       0       0       0       0       0       0       0       0
       0       0       0       0       0       0       0       0       0       0
       0       0       0       0       0       0       0       0       0       0
       0       0       0       0       0       0       0       0       0       0
       0       0       0       0       0       0       0       0       0       0
       0       0       0       0       0       0       0       0       0       0
       0       0       0       0       0       0       0       0       0       0
       0       0       0       0       0       0       0       0       0       0
       0       0       0       0       0       0       0       0       0       0
       0       0       0       0       0       0       0       0       0       0
       0       0       0       0       0       0       0       0       0       0
       0       0       0       0       0       0       0       0       0       0
       0       0       0       0       0       0       0       0       0       0
       0       0       0       0       0       0       0       0       0       0
       0       0       0       0       0       0       0       0       0       0
       0       0       0       0       0       0       0       0       0       0
       0       0       0       0       0       0       0       0       0       0
       0       0       0       0       0       0       0       0       0       0
       0       0       0       0       0       0       0       0       0       0
       0       0       0       0       0       0       0       0       0       0
       0       0       0       0       0       0       0       0       0       0
       0       0       0       0       0       0       0       0       0       0
       0       0       0       0       0       0       0       0       0       0
       0       0       0       0       0       0       0       0       0       0
       0       0       0       0       0       0       0       0       0       0
       0       0       0       0       0       0       0       0       0       0
       0       0       0       0       0       0       0       0       0       0
       0       0       0       0       0       0       0       0       0       0
       0       0       0       0       0       0       0       0       0       0
       0       0       0       0       0       0       0       0       0       0
       0       0       0       0       0       0       0       0       0       0
       0       0       0       0       0       0       0       0       0       0
       0       0       0       0       0       0       0       0       0       0
       0       0       0       0       0       0       0       0       0       0
       0       0       0       0       0       0       0       0       0       0
       0       0       0       0       0       0       0       0       0       0
       0       0       0       0       0       0       0       0       0       0
       0       0       0       0       0       0       0       0       0       0
       0       0       0       0       0       0       0       0       0       0
       0       0       0       0       0       0       0       0       0       0
       0       0       0       0       0       0       0       0       0       0
       0       0       0       0       0       0       0       0       0       0
       0       0       0       0       0       0       0       0       0       0
       0       0       0       0       0       0       0       0       0       0
       0       0       0       0       0       0       0       0       0       0
       0       0       0       0       0       0       0       0       0       0
       0       0       0       0       0       0       0       0       0       0
       0       0       0       0       0       0       0       0       0       0
       0       0       0       0       0       0       0       0       0       0
       0       0       0       0       0       0       0       0       0       0
       0       0       0       0       0       0       0       0       0       0
       0       0       0       0       0       0       0       0       0       0
       0       0       0       0       0       0       0       0       0       0
       0       0       0       0       0       0       0       0       0       0
       0       0       0       0       0       0       0       0       0       0
       0       0       0       0       0       0       0       0       0       0
       0       0       0       0       0       0       0       0       0       0
       0       0       0       0       0       0       0       0       0       0
       0       0       0       0       0       0       0       0       0       0
       0       0       0       0       0       0       0       0       0       0
       0       0       0       0       0       0       0       0       0       0
       0       0       0       0       0       0       0       0       0       0
       0       0       0       0       0       0       0       0       0       0
       0       0       0       0       0       0       0       0       0       0
       0       0       0       0       0       0       0       0       0       0
       0       0       0       0       0       0       0       0       0       0
       0       0       0       0       0       0       0       0       0       0
       0       0       0       0       0       0       0       0       0       0
       0       0       0       0       0       0       0       0       0       0
       0       0       0       0       0       0       0       0       0       0
       0       0       0       0       0       0       0       0       0       0
       0       0       0       0       0       0       0       0       0       0
       0       0       0       0       0       0       0       0       0       0
       0       0       0       0       0       0       0       0       0       0
       0       0       0       0       0       0       0       0       0       0
       0       0       0       0       0       0       0       0       0       0
       0       0       0       0       0       0       0       0       0       0
       0       0       0       0       0       0       0       0       0       0
       0       0       0       0       0       0       0       0       0       0
       0       0       0       0       0       0       0       0       0       0
       0       0       0       0       0       0       0       0       0       0
       0       0       0       0       0       0       0       0       0       0
       0       0       0       0       0       0       0       0       0       0
       0       0       0       0       0       0       0       0       0       0
       0       0       0       0       0       0       0       0       0       0
       0       0       0       0       0       0       0       0       0       0
       0       0       0       0       0       0       0       0       0       0
       0       0       0       0       0       0       0       0       0       0
       0       0       0       0       0       0       0       0       0       0
       0       0       0       0       0       0       0       0       0       0
       0       0       0       0       0       0       0       0       0       0
       0       0       0       0       0       0       0       0       0       0
       0       0       0       0       0       0       0       0       0       0
       0       0       0       0       0       0       0       0       0       0
       0       0       0       0       0       0       0       0       0       0
       0       0       0       0       0       0       0       0       0       0
       0       0       0       0       0       0       0       0       0       0
       0       0       0       0       0       0       0       0       0       0
       0       0       0       0       0       0       0       0       0       0
       0       0       0       0       0       0       0       0       0       0
       0       0       0       0       0       0       0       0       0       0
       0       0       0       0       0       0       0       0       0       0
       0       0       0       0       0       0       0       0       0       0
       0       0       0       0       0       0       0       0       0       0
       0       0       0       0       0       0       0       0       0       0
       0       0       0       0       0       0       0       0       0       0
       0       0       0       0       0       0       0       0       0       0
       0       0       0       0       0       0       0       0       0       0
       0       0       0       0       0       0       0       0       0       0
       0       0       0       0       0       0       0       0       0       0
       0       0       0       0       0       0       0       0       0       0
       0       0       0       0       0       0       0       0       0       0
       0       0       0       0       0       0       0       0       0       0
       0       0       0       0       0       0       0       0       0       0
       0       0       0       0       0       0       0       0       0       0
       0       0       0       0       0       0       0       0       0       0
       0       0       0       0       0       0       0       0       0       0
       0       0       0       0       0       0       0       0       0       0
       0       0       0       0       0       0       0       0       0       0
       0       0       0       0       0       0       0       0       0       0
       0       0       0       0       0       0       0       0       0       0
       0       0       0       0       0       0       0       0       0       0
       0       0       0       0       0       0       0       0       0       0
       0       0       0       0       0       0       0       0       0       0
       0       0       0       0       0       0       0       0       0       0
       0       0       0       0       0       0       0       0       0       0
       0       0       0       0       0       0       0       0       0       0
       0       0       0       0       0       0       0       0       0       0
       0       0       0       0       0       0       0       0       0       0
       0       0       0       0       0       0       0       0       0       0
       0       0       0       0       0       0       0       0       0       0
       0       0       0       0       0       0       0       0       0       0
       0       0       0       0       0       0       0       0       0       0
       0       0       0       0       0       0       0       0       0       0
       0       0       0       0       0       0       0       0       0       0
       0       0       0       0       0       0       0       0       0       0
       0       0       0       0       0       0       0       0       0       0
       0       0       0       0       0       0       0       0       0       0
       0       0       0       0       0       0       0       0       0       0
       0       0       0       0       0       0       0       0       0       0
       0       0       0       0       0       0       0       0       0       0
       0       0       0       0       0       0       0       0       0       0
       0       0       0       0       0       0       0       0       0       0
       0       0       0       0       0       0       0       0       0       0
       0       0       0       0       0       0       0       0       0       0
       0       0       0       0       0       0       0       0       0       0
       0       0       0       0       0       0       0       0       0       0
       0       0       0       0       0       0       0       0       0       0
       0       0       0       0       0       0       0       0       0       0
       0       0       0       0       0       0       0       0       0       0
       0       0       0       0       0       0       0       0       0       0
       0       0       0       0       0       0       0       0       0       0
       0       0       0       0       0       0       0       0       0       0
       0       0       0       0       0       0       0       0       0       0
       0       0       0       0       0       0       0       0       0       0
       0       0       0       0       0       0       0       0       0       0
       0       0       0       0       0       0       0       0       0       0
       0       0       0       0       0       0       0       0       0       0
       0       0       0       0       0       0       0       0       0       0
       0       0       0       0       0       0       0       0       0       0
       0       0       0       0       0       0       0       0       0       0
       0       0       0       0       0       0       0       0       0       0
       0       0       0       0       0       0       0       0       0       0
       0       0       0       0       0       0       0       0       0       0
       0       0       0       0       0       0       0       0       0       0
       0       0       0       0       0       0       0       0       0       0
       0       0       0       0       0       0       0       0       0       0
       0       0       0       0       0       0       0       0       0       0
       0       0       0       0       0       0       0       0       0       0
       0       0       0       0       0       0       0       0       0       0
       0       0       0       0       0       0       0       0       0       0
       0       0       0       0       0       0       0       0       0       0
       0       0       0       0       0       0       0       0       0       0
       0       0       0       0       0       0       0       0       0       0
       0       0       0       0       0       0       0       0       0       0
       0       0       0       0       0       0       0       0       0       0
       0       0       0       0       0       0       0       0       0       0
       0       0       0       0       0       0       0       0       0       0
       0       0       0       0       0       0       0       0       0       0
       0       0       0       0       0       0       0       0       0       0
       0       0       0       0       0       0       0       0       0       0
       0       0       0       0       0       0       0       0       0       0
       0       0       0       0       0       0       0       0       0       0
       0       0       0       0       0       0       0       0       0       0
       0       0       0       0       0       0       0       0       0       0
       0       0       0       0       0       0       0       0       0       0
       0       0       0       0       0       0       0       0       0       0
       0       0       0       0       0       0       0       0       0       0
       0       0       0       0       0       0       0       0       0       0
       0       0       0       0       0       0       0       0       0       0
       0       0       0       0       0       0       0       0       0       0
       0       0       0       0       0       0       0       0       0       0
       0       0       0       0       0       0       0       0       0       0
       0       0       0       0       0       0       0       0       0       0
       0       0       0       0       0       0       0       0       0       0
       0       0       0       0       0       0       0       0       0       0
       0       0       0       0       0       0       0       0       0       0
       0       0       0       0       0       0       0       0       0       0
       0       0       0       0       0       0       0       0       0       0
       0       0       0       0       0       0       0       0       0       0
       0       0       0       0       0       0       0       0       0       0
       0       0       0       0       0       0       0       0       0       0
       0       0       0       0       0       0       0       0       0       0
       0       0       0       0       0       0       0       0       0       0
       0       0       0       0       0       0       0       0       0       0
       0       0       0       0       0       0       0       0       0       0
       0       0       0       0       0       0       0       0       0       0
       0       0       0       0       0       0       0       0       0       0
       0       0       0       0       0       0       0       0       0       0
       0       0       0       0       0       0       0       0       0       0
       0       0       0       0       0       0       0       0       0       0
       0       0       0       0       0       0       0       0       0       0
       0       0       0       0       0       0       0       0       0       0
       0       0       0       0       0       0       0       0       0       0
       0       0       0       0       0       0       0       0       0       0
       0       0       0       0       0       0       0       0       0       0
       0       0       0       0       0       0       0       0       0       0
       0       0       0       0       0       0       0       0       0       0
       0       0       0       0       0       0       0       0       0       0
       0       0       0       0       0       0       0       0       0       0
       0       0       0       0       0       0       0       0       0       0
       0       0       0       0       0       0       0       0       0       0
       0       0       0       0       0       0       0       0       0       0
       0       0       0       0       0       0       0       0       0       0
       0       0       0       0       0       0       0       0       0       0
       0       0       0       0       0       0       0       0       0       0
       0       0       0       0       0       0       0       0       0       0
       0       0       0       0       0       0       0       0       0       0
       0       0       0       0       0       0       0       0       0       0
       0       0       0       0       0       0       0       0       0       0
       0       0       0       0       0       0       0       0       0       0
       0       0       0       0       0       0       0       0       0       0
       0       0       0       0       0       0       0       0       0       0
       0       0       0       0       0       0       0       0       0       0
       0       0       0       0       0       0       0       0       0       0
       0       0       0       0       0       0       0       0       0       0
       0       0       0       0       0       0       0       0       0       0
       0       0       0       0       0       0
%FLAG RADIUS_SET                                                                
%FORMAT(1a80)                                                                   
modified Bondi radii (mbondi)                                                   
%FLAG RADII                                                                     
%FORMAT(5E16.8)                                                                 
  8.00000000E-01  1.50000000E+00  1.70000000E+00  1.30000000E+00  1.30000000E+00
  1.70000000E+00  1.30000000E+00  1.50000000E+00  1.70000000E+00  1.30000000E+00
  1.55000000E+00  1.70000000E+00  1.30000000E+00  1.55000000E+00  1.70000000E+00
  1.70000000E+00  1.50000000E+00  1.55000000E+00  1.30000000E+00  1.70000000E+00
  1.55000000E+00  1.30000000E+00  1.30000000E+00  1.55000000E+00  1.70000000E+00
  1.70000000E+00  1.30000000E+00  1.70000000E+00  1.30000000E+00  1.50000000E+00
  8.00000000E-01  1.50000000E+00  1.85000000E+00  1.50000000E+00  1.50000000E+00
  1.50000000E+00  1.70000000E+00  1.30000000E+00  1.30000000E+00  1.70000000E+00
  1.30000000E+00  1.50000000E+00  1.70000000E+00  1.30000000E+00  1.55000000E+00
  1.70000000E+00  1.30000000E+00  1.55000000E+00  1.70000000E+00  1.70000000E+00
  1.50000000E+00  1.55000000E+00  1.30000000E+00  1.70000000E+00  1.55000000E+00
  1.30000000E+00  1.30000000E+00  1.55000000E+00  1.70000000E+00  1.70000000E+00
  1.30000000E+00  1.70000000E+00  1.30000000E+00  1.50000000E+00  8.00000000E-01
  1.50000000E+00  1.85000000E+00  1.50000000E+00  1.50000000E+00  1.50000000E+00
  1.70000000E+00  1.30000000E+00  1.30000000E+00  1.70000000E+00  1.30000000E+00
  1.50000000E+00  1.70000000E+00  1.30000000E+00  1.55000000E+00  1.70000000E+00
  1.30000000E+00  1.55000000E+00  1.70000000E+00  1.70000000E+00  1.55000000E+00
  1.30000000E+00  1.30000000E+00  1.55000000E+00  1.70000000E+00  1.30000000E+00
  1.55000000E+00  1.70000000E+00  1.70000000E+00  1.30000000E+00  1.70000000E+00
  1.30000000E+00  1.50000000E+00  8.00000000E-01  1.50000000E+00  1.85000000E+00
  1.50000000E+00  1.50000000E+00  1.50000000E+00  1.70000000E+00  1.30000000E+00
  1.30000000E+00  1.70000000E+00  1.30000000E+00  1.50000000E+00  1.70000000E+00
  1.30000000E+00  1.55000000E+00  1.70000000E+00  1.30000000E+00  1.70000000E+00
  1.30000000E+00  1.70000000E+00  1.50000000E+00  1.55000000E+00  1.30000000E+00
  1.70000000E+00  1.50000000E+00  1.70000000E+00  1.30000000E+00  1.70000000E+00
  1.30000000E+00  1.50000000E+00  8.00000000E-01  1.50000000E+00  1.85000000E+00
  1.50000000E+00  1.50000000E+00  1.50000000E+00  1.70000000E+00  1.30000000E+00
  1.30000000E+00  1.70000000E+00  1.30000000E+00  1.50000000E+00  1.70000000E+00
  1.30000000E+00  1.55000000E+00  1.70000000E+00  1.30000000E+00  1.70000000E+00
  1.30000000E+00  1.70000000E+00  1.55000000E+00  1.30000000E+00  1.30000000E+00
  1.55000000E+00  1.70000000E+00  1.50000000E+00  1.70000000E+00  1.30000000E+00
  1.70000000E+00  1.30000000E+00  1.50000000E+00  8.00000000E-01  1.50000000E+00
  1.85000000E+00  1.50000000E+00  1.50000000E+00  1.50000000E+00  1.70000000E+00
  1.30000000E+00  1.30000000E+00  1.70000000E+00  1.30000000E+00  1.50000000E+00
  1.70000000E+00  1.30000000E+00  1.55000000E+00  1.70000000E+00  1.30000000E+00
  1.55000000E+00  1.70000000E+00  1.70000000E+00  1.55000000E+00  1.30000000E+00
  1.30000000E+00  1.55000000E+00  1.70000000E+00  1.30000000E+00  1.55000000E+00
  1.70000000E+00  1.70000000E+00  1.30000000E+00  1.70000000E+00  1.30000000E+00
  1.50000000E+00  8.00000000E-01  1.50000000E+00  1.85000000E+00  1.50000000E+00
  1.50000000E+00  1.50000000E+00  1.70000000E+00  1.30000000E+00  1.30000000E+00
  1.70000000E+00  1.30000000E+00  1.50000000E+00  1.70000000E+00  1.30000000E+00
  1.55000000E+00  1.70000000E+00  1.30000000E+00  1.70000000E+00  1.30000000E+00
  1.70000000E+00  1.50000000E+00  1.55000000E+00  1.30000000E+00  1.70000000E+00
  1.50000000E+00  1.70000000E+00  1.30000000E+00  1.70000000E+00  1.30000000E+00
  1.50000000E+00  8.00000000E-01  1.50000000E+00  1.85000000E+00  1.50000000E+00
  1.50000000E+00  1.50000000E+00  1.70000000E+00  1.30000000E+00  1.30000000E+00
  1.70000000E+00  1.30000000E+00  1.50000000E+00  1.70000000E+00  1.30000000E+00
  1.55000000E+00  1.70000000E+00  1.30000000E+00  1.55000000E+00  1.70000000E+00
  1.70000000E+00  1.55000000E+00  1.30000000E+00  1.30000000E+00  1.55000000E+00
  1.70000000E+00  1.30000000E+00  1.55000000E+00  1.70000000E+00  1.70000000E+00
  1.30000000E+00  1.70000000E+00  1.30000000E+00  1.50000000E+00  8.00000000E-01
  1.50000000E+00  1.85000000E+00  1.50000000E+00  1.50000000E+00  1.50000000E+00
  1.70000000E+00  1.30000000E+00  1.30000000E+00  1.70000000E+00  1.30000000E+00
  1.50000000E+00  1.70000000E+00  1.30000000E+00  1.55000000E+00  1.70000000E+00
  1.30000000E+00  1.70000000E+00  1.30000000E+00  1.70000000E+00  1.50000000E+00
  1.55000000E+00  1.30000000E+00  1.70000000E+00  1.50000000E+00  1.70000000E+00
  1.30000000E+00  1.70000000E+00  1.30000000E+00  1.50000000E+00  8.00000000E-01
  1.50000000E+00  1.85000000E+00  1.50000000E+00  1.50000000E+00  1.50000000E+00
  1.70000000E+00  1.30000000E+00  1.30000000E+00  1.70000000E+00  1.30000000E+00
  1.50000000E+00  1.70000000E+00  1.30000000E+00  1.55000000E+00  1.70000000E+00
  1.30000000E+00  1.55000000E+00  1.70000000E+00  1.70000000E+00  1.55000000E+00
  1.30000000E+00  1.30000000E+00  1.55000000E+00  1.70000000E+00  1.30000000E+00
  1.55000000E+00  1.70000000E+00  1.70000000E+00  1.30000000E+00  1.70000000E+00
  1.30000000E+00  1.50000000E+00  8.00000000E-01  1.50000000E+00  1.85000000E+00
  1.50000000E+00  1.50000000E+00  1.50000000E+00  1.70000000E+00  1.30000000E+00
  1.30000000E+00  1.70000000E+00  1.30000000E+00  1.50000000E+00  1.70000000E+00
  1.30000000E+00  1.55000000E+00  1.70000000E+00  1.30000000E+00  1.55000000E+00
  1.70000000E+00  1.70000000E+00  1.55000000E+00  1.30000000E+00  1.30000000E+00
  1.55000000E+00  1.70000000E+00  1.30000000E+00  1.55000000E+00  1.70000000E+00
  1.70000000E+00  1.30000000E+00  1.70000000E+00  1.30000000E+00  1.50000000E+00
  8.00000000E-01  1.50000000E+00  1.85000000E+00  1.50000000E+00  1.50000000E+00
  1.50000000E+00  1.70000000E+00  1.30000000E+00  1.30000000E+00  1.70000000E+00
  1.30000000E+00  1.50000000E+00  1.70000000E+00  1.30000000E+00  1.55000000E+00
  1.70000000E+00  1.30000000E+00  1.70000000E+00  1.30000000E+00  1.70000000E+00
  1.50000000E+00  1.55000000E+00  1.30000000E+00  1.70000000E+00  1.50000000E+00
  1.70000000E+00  1.30000000E+00  1.70000000E+00  1.30000000E+00  1.50000000E+00
  8.00000000E-01  1.50000000E+00  1.85000000E+00  1.50000000E+00  1.50000000E+00
  1.50000000E+00  1.70000000E+00  1.30000000E+00  1.30000000E+00  1.70000000E+00
  1.30000000E+00  1.50000000E+00  1.70000000E+00  1.30000000E+00  1.55000000E+00
  1.70000000E+00  1.30000000E+00  1.70000000E+00  1.30000000E+00  1.70000000E+00
  1.55000000E+00  1.30000000E+00  1.30000000E+00  1.55000000E+00  1.70000000E+00
  1.50000000E+00  1.70000000E+00  1.30000000E+00  1.70000000E+00  1.30000000E+00
  1.50000000E+00  8.00000000E-01  1.50000000E+00  1.85000000E+00  1.50000000E+00
  1.50000000E+00  1.50000000E+00  1.70000000E+00  1.30000000E+00  1.30000000E+00
  1.70000000E+00  1.30000000E+00  1.50000000E+00  1.70000000E+00  1.30000000E+00
  1.55000000E+00  1.70000000E+00  1.30000000E+00  1.55000000E+00  1.70000000E+00
  1.70000000E+00  1.50000000E+00  1.55000000E+00  1.30000000E+00  1.70000000E+00
  1.55000000E+00  1.30000000E+00  1.30000000E+00  1.55000000E+00  1.70000000E+00
  1.70000000E+00  1.30000000E+00  1.70000000E+00  1.30000000E+00  1.50000000E+00
  8.00000000E-01  1.50000000E+00  1.85000000E+00  1.50000000E+00  1.50000000E+00
  1.50000000E+00  1.70000000E+00  1.30000000E+00  1.30000000E+00  1.70000000E+00
  1.30000000E+00  1.50000000E+00  1.70000000E+00  1.30000000E+00  1.55000000E+00
  1.70000000E+00  1.30000000E+00  1.70000000E+00  1.30000000E+00  1.70000000E+00
  1.55000000E+00  1.30000000E+00  1.30000000E+00  1.55000000E+00  1.70000000E+00
  1.50000000E+00  1.70000000E+00  1.30000000E+00  1.70000000E+00  1.30000000E+00
  1.50000000E+00  8.00000000E-01  1.50000000E+00  1.85000000E+00  1.50000000E+00
  1.50000000E+00  1.50000000E+00  1.70000000E+00  1.30000000E+00  1.30000000E+00
  1.70000000E+00  1.30000000E+00  1.50000000E+00  1.70000000E+00  1.30000000E+00
  1.55000000E+00  1.70000000E+00  1.30000000E+00  1.55000000E+00  1.70000000E+00
  1.70000000E+00  1.50000000E+00  1.55000000E+00  1.30000000E+00  1.70000000E+00
  1.55000000E+00  1.30000000E+00  1.30000000E+00  1.55000000E+00  1.70000000E+00
  1.70000000E+00  1.30000000E+00  1.70000000E+00  1.30000000E+00  1.50000000E+00
  8.00000000E-01  1.50000000E+00  1.85000000E+00  1.50000000E+00  1.50000000E+00
  1.50000000E+00  1.70000000E+00  1.30000000E+00  1.30000000E+00  1.70000000E+00
  1.30000000E+00  1.50000000E+00  1.70000000E+00  1.30000000E+00  1.55000000E+00
  1.70000000E+00  1.30000000E+00  1.70000000E+00  1.30000000E+00  1.70000000E+00
  1.50000000E+00  1.55000000E+00  1.30000000E+00  1.70000000E+00  1.50000000E+00
  1.70000000E+00  1.30000000E+00  1.70000000E+00  1.30000000E+00  1.50000000E+00
  8.00000000E-01  1.50000000E+00  1.85000000E+00  1.50000000E+00  1.50000000E+00
  1.50000000E+00  1.70000000E+00  1.30000000E+00  1.30000000E+00  1.70000000E+00
  1.30000000E+00  1.50000000E+00  1.70000000E+00  1.30000000E+00  1.55000000E+00
  1.70000000E+00  1.30000000E+00  1.55000000E+00  1.70000000E+00  1.70000000E+00
  1.50000000E+00  1.55000000E+00  1.30000000E+00  1.70000000E+00  1.55000000E+00
  1.30000000E+00  1.30000000E+00  1.55000000E+00  1.70000000E+00  1.70000000E+00
  1.30000000E+00  1.70000000E+00  1.30000000E+00  1.50000000E+00  8.00000000E-01
  1.50000000E+00  1.85000000E+00  1.50000000E+00  1.50000000E+00  1.50000000E+00
  1.70000000E+00  1.30000000E+00  1.30000000E+00  1.70000000E+00  1.30000000E+00
  1.50000000E+00  1.70000000E+00  1.30000000E+00  1.55000000E+00  1.70000000E+00
  1.30000000E+00  1.55000000E+00  1.70000000E+00  1.70000000E+00  1.50000000E+00
  1.55000000E+00  1.30000000E+00  1.70000000E+00  1.55000000E+00  1.30000000E+00
  1.30000000E+00  1.55000000E+00  1.70000000E+00  1.70000000E+00  1.30000000E+00
  1.70000000E+00  1.30000000E+00  1.50000000E+00  8.00000000E-01  1.50000000E+00
  1.85000000E+00  1.50000000E+00  1.50000000E+00  1.50000000E+00  1.70000000E+00
  1.30000000E+00  1.30000000E+00  1.70000000E+00  1.30000000E+00  1.50000000E+00
  1.70000000E+00  1.30000000E+00  1.55000000E+00  1.70000000E+00  1.30000000E+00
  1.55000000E+00  1.70000000E+00  1.70000000E+00  1.55000000E+00  1.30000000E+00
  1.30000000E+00  1.55000000E+00  1.70000000E+00  1.30000000E+00  1.55000000E+00
  1.70000000E+00  1.70000000E+00  1.30000000E+00  1.70000000E+00  1.30000000E+00
  1.50000000E+00  8.00000000E-01  1.50000000E+00  1.85000000E+00  1.50000000E+00
  1.50000000E+00  1.50000000E+00  1.70000000E+00  1.30000000E+00  1.30000000E+00
  1.70000000E+00  1.30000000E+00  1.50000000E+00  1.70000000E+00  1.30000000E+00
  1.55000000E+00  1.70000000E+00  1.30000000E+00  1.70000000E+00  1.30000000E+00
  1.70000000E+00  1.50000000E+00  1.55000000E+00  1.30000000E+00  1.70000000E+00
  1.50000000E+00  1.70000000E+00  1.30000000E+00  1.70000000E+00  1.30000000E+00
  1.50000000E+00  8.00000000E-01  1.50000000E+00  1.85000000E+00  1.50000000E+00
  1.50000000E+00  1.50000000E+00  1.70000000E+00  1.30000000E+00  1.30000000E+00
  1.70000000E+00  1.30000000E+00  1.50000000E+00  1.70000000E+00  1.30000000E+00
  1.55000000E+00  1.70000000E+00  1.30000000E+00  1.55000000E+00  1.70000000E+00
  1.70000000E+00  1.55000000E+00  1.30000000E+00  1.30000000E+00  1.55000000E+00
  1.70000000E+00  1.30000000E+00  1.55000000E+00  1.70000000E+00  1.70000000E+00
  1.30000000E+00  1.70000000E+00  1.30000000E+00  1.50000000E+00  8.00000000E-01
  1.50000000E+00  1.85000000E+00  1.50000000E+00  1.50000000E+00  1.50000000E+00
  1.70000000E+00  1.30000000E+00  1.30000000E+00  1.70000000E+00  1.30000000E+00
  1.50000000E+00  1.70000000E+00  1.30000000E+00  1.55000000E+00  1.70000000E+00
  1.30000000E+00  1.70000000E+00  1.30000000E+00  1.70000000E+00  1.50000000E+00
  1.55000000E+00  1.30000000E+00  1.70000000E+00  1.50000000E+00  1.70000000E+00
  1.30000000E+00  1.70000000E+00  1.30000000E+00  1.50000000E+00  8.00000000E-01
  1.50000000E+00  1.85000000E+00  1.50000000E+00  1.50000000E+00  1.50000000E+00
  1.70000000E+00  1.30000000E+00  1.30000000E+00  1.70000000E+00  1.30000000E+00
  1.50000000E+00  1.70000000E+00  1.30000000E+00  1.55000000E+00  1.70000000E+00
  1.30000000E+00  1.55000000E+00  1.70000000E+00  1.70000000E+00  1.50000000E+00
  1.55000000E+00  1.30000000E+00  1.70000000E+00  1.55000000E+00  1.30000000E+00
  1.30000000E+00  1.55000000E+00  1.70000000E+00  1.70000000E+00  1.30000000E+00
  1.70000000E+00  1.30000000E+00  1.50000000E+00  8.00000000E-01  1.50000000E+00
  1.85000000E+00  1.50000000E+00  1.50000000E+00  1.50000000E+00  1.70000000E+00
  1.30000000E+00  1.30000000E+00  1.70000000E+00  1.30000000E+00  1.50000000E+00
  1.70000000E+00  1.30000000E+00  1.55000000E+00  1.70000000E+00  1.30000000E+00
  1.55000000E+00  1.70000000E+00  1.70000000E+00  1.50000000E+00  1.55000000E+00
  1.30000000E+00  1.70000000E+00  1.55000000E+00  1.30000000E+00  1.30000000E+00
  1.55000000E+00  1.70000000E+00  1.70000000E+00  1.30000000E+00  1.70000000E+00
  1.30000000E+00  1.50000000E+00  8.00000000E-01  1.50000000E+00  1.85000000E+00
  1.50000000E+00  1.50000000E+00  1.50000000E+00  1.70000000E+00  1.30000000E+00
  1.30000000E+00  1.70000000E+00  1.30000000E+00  1.50000000E+00  1.70000000E+00
  1.30000000E+00  1.55000000E+00  1.70000000E+00  1.30000000E+00  1.70000000E+00
  1.30000000E+00  1.70000000E+00  1.55000000E+00  1.30000000E+00  1.30000000E+00
  1.55000000E+00  1.70000000E+00  1.50000000E+00  1.70000000E+00  1.30000000E+00
  1.70000000E+00  1.30000000E+00  1.50000000E+00  8.00000000E-01  1.50000000E+00
  1.85000000E+00  1.50000000E+00  1.50000000E+00  1.50000000E+00  1.70000000E+00
  1.30000000E+00  1.30000000E+00  1.70000000E+00  1.30000000E+00  1.50000000E+00
  1.70000000E+00  1.30000000E+00  1.55000000E+00  1.70000000E+00  1.30000000E+00
  1.55000000E+00  1.70000000E+00  1.70000000E+00  1.55000000E+00  1.30000000E+00
  1.30000000E+00  1.55000000E+00  1.70000000E+00  1.30000000E+00  1.55000000E+00
  1.70000000E+00  1.70000000E+00  1.30000000E+00  1.70000000E+00  1.30000000E+00
  1.50000000E+00  8.00000000E-01  1.50000000E+00  1.85000000E+00  1.50000000E+00
  1.50000000E+00  1.50000000E+00  1.70000000E+00  1.30000000E+00  1.30000000E+00
  1.70000000E+00  1.30000000E+00  1.50000000E+00  1.70000000E+00  1.30000000E+00
  1.55000000E+00  1.70000000E+00  1.30000000E+00  1.70000000E+00  1.30000000E+00
  1.70000000E+00  1.55000000E+00  1.30000000E+00  1.30000000E+00  1.55000000E+00
  1.70000000E+00  1.50000000E+00  1.70000000E+00  1.30000000E+00  1.70000000E+00
  1.30000000E+00  1.50000000E+00  8.00000000E-01  1.50000000E+00  1.85000000E+00
  1.50000000E+00  1.50000000E+00  1.50000000E+00  1.70000000E+00  1.30000000E+00
  1.30000000E+00  1.70000000E+00  1.30000000E+00  1.50000000E+00  1.70000000E+00
  1.30000000E+00  1.55000000E+00  1.70000000E+00  1.30000000E+00  1.55000000E+00
  1.70000000E+00  1.70000000E+00  1.50000000E+00  1.55000000E+00  1.30000000E+00
  1.70000000E+00  1.55000000E+00  1.30000000E+00  1.30000000E+00  1.55000000E+00
  1.70000000E+00  1.70000000E+00  1.30000000E+00  1.70000000E+00  1.30000000E+00
  1.50000000E+00  8.00000000E-01  1.50000000E+00  1.85000000E+00  1.50000000E+00
  1.50000000E+00  1.50000000E+00  1.70000000E+00  1.30000000E+00  1.30000000E+00
  1.70000000E+00  1.30000000E+00  1.50000000E+00  1.70000000E+00  1.30000000E+00
  1.55000000E+00  1.70000000E+00  1.30000000E+00  1.70000000E+00  1.30000000E+00
  1.70000000E+00  1.55000000E+00  1.30000000E+00  1.30000000E+00  1.55000000E+00
  1.70000000E+00  1.50000000E+00  1.70000000E+00  1.30000000E+00  1.70000000E+00
  1.30000000E+00  1.50000000E+00  8.00000000E-01  1.50000000E+00  1.85000000E+00
  1.50000000E+00  1.50000000E+00  1.50000000E+00  1.70000000E+00  1.30000000E+00
  1.30000000E+00  1.70000000E+00  1.30000000E+00  1.50000000E+00  1.70000000E+00
  1.30000000E+00  1.55000000E+00  1.70000000E+00  1.30000000E+00  1.55000000E+00
  1.70000000E+00  1.70000000E+00  1.55000000E+00  1.30000000E+00  1.30000000E+00
  1.55000000E+00  1.70000000E+00  1.30000000E+00  1.55000000E+00  1.70000000E+00
  1.70000000E+00  1.30000000E+00  1.70000000E+00  1.30000000E+00  1.50000000E+00
  8.00000000E-01  1.50000000E+00  1.85000000E+00  1.50000000E+00  1.50000000E+00
  1.50000000E+00  1.70000000E+00  1.30000000E+00  1.30000000E+00  1.70000000E+00
  1.30000000E+00  1.50000000E+00  1.70000000E+00  1.30000000E+00  1.55000000E+00
  1.70000000E+00  1.30000000E+00  1.55000000E+00  1.70000000E+00  1.70000000E+00
  1.55000000E+00  1.30000000E+00  1.30000000E+00  1.55000000E+00  1.70000000E+00
  1.30000000E+00  1.55000000E+00  1.70000000E+00  1.70000000E+00  1.30000000E+00
  1.70000000E+00  1.30000000E+00  1.50000000E+00  8.00000000E-01  1.50000000E+00
  1.85000000E+00  1.50000000E+00  1.50000000E+00  1.50000000E+00  1.70000000E+00
  1.30000000E+00  1.30000000E+00  1.70000000E+00  1.30000000E+00  1.50000000E+00
  1.70000000E+00  1.30000000E+00  1.55000000E+00  1.70000000E+00  1.30000000E+00
  1.55000000E+00  1.70000000E+00  1.70000000E+00  1.50000000E+00  1.55000000E+00
  1.30000000E+00  1.70000000E+00  1.55000000E+00  1.30000000E+00  1.30000000E+00
  1.55000000E+00  1.70000000E+00  1.70000000E+00  1.30000000E+00  1.70000000E+00
  1.30000000E+00  1.50000000E+00  8.00000000E-01  1.50000000E+00  1.85000000E+00
  1.50000000E+00  1.50000000E+00  1.50000000E+00  1.70000000E+00  1.30000000E+00
  1.30000000E+00  1.70000000E+00  1.30000000E+00  1.50000000E+00  1.70000000E+00
  1.30000000E+00  1.55000000E+00  1.70000000E+00  1.30000000E+00  1.70000000E+00
  1.30000000E+00  1.70000000E+00  1.50000000E+00  1.55000000E+00  1.30000000E+00
  1.70000000E+00  1.50000000E+00  1.70000000E+00  1.30000000E+00  1.70000000E+00
  1.30000000E+00  1.50000000E+00  8.00000000E-01  1.50000000E+00  1.85000000E+00
  1.50000000E+00  1.50000000E+00  1.50000000E+00  1.70000000E+00  1.30000000E+00
  1.30000000E+00  1.70000000E+00  1.30000000E+00  1.50000000E+00  1.70000000E+00
  1.30000000E+00  1.55000000E+00  1.70000000E+00  1.30000000E+00  1.70000000E+00
  1.30000000E+00  1.70000000E+00  1.50000000E+00  1.55000000E+00  1.30000000E+00
  1.70000000E+00  1.50000000E+00  1.70000000E+00  1.30000000E+00  1.70000000E+00
  1.30000000E+00  1.50000000E+00  8.00000000E-01  1.50000000E+00  1.85000000E+00
  1.50000000E+00  1.50000000E+00  1.50000000E+00  1.70000000E+00  1.30000000E+00
  1.30000000E+00  1.70000000E+00  1.30000000E+00  1.50000000E+00  1.70000000E+00
  1.30000000E+00  1.55000000E+00  1.70000000E+00  1.30000000E+00  1.70000000E+00
  1.30000000E+00  1.70000000E+00  1.50000000E+00  1.55000000E+00  1.30000000E+00
  1.70000000E+00  1.50000000E+00  1.70000000E+00  1.30000000E+00  1.70000000E+00
  1.30000000E+00  1.50000000E+00  8.00000000E-01  1.50000000E+00  1.85000000E+00
  1.50000000E+00  1.50000000E+00  1.50000000E+00  1.70000000E+00  1.30000000E+00
  1.30000000E+00  1.70000000E+00  1.30000000E+00  1.50000000E+00  1.70000000E+00
  1.30000000E+00  1.55000000E+00  1.70000000E+00  1.30000000E+00  1.70000000E+00
  1.30000000E+00  1.70000000E+00  1.55000000E+00  1.30000000E+00  1.30000000E+00
  1.55000000E+00  1.70000000E+00  1.50000000E+00  1.70000000E+00  1.30000000E+00
  1.70000000E+00  1.30000000E+00  1.50000000E+00  8.00000000E-01  1.50000000E+00
  1.85000000E+00  1.50000000E+00  1.50000000E+00  1.50000000E+00  1.70000000E+00
  1.30000000E+00  1.30000000E+00  1.70000000E+00  1.30000000E+00  1.50000000E+00
  1.70000000E+00  1.30000000E+00  1.55000000E+00  1.70000000E+00  1.30000000E+00
  1.70000000E+00  1.30000000E+00  1.70000000E+00  1.50000000E+00  1.55000000E+00
  1.30000000E+00  1.70000000E+00  1.50000000E+00  1.70000000E+00  1.30000000E+00
  1.70000000E+00  1.30000000E+00  1.50000000E+00  8.00000000E-01  1.50000000E+00
  1.85000000E+00  1.50000000E+00  1.50000000E+00  1.50000000E+00  1.70000000E+00
  1.30000000E+00  1.30000000E+00  1.70000000E+00  1.30000000E+00  1.50000000E+00
  1.70000000E+00  1.30000000E+00  1.55000000E+00  1.70000000E+00  1.30000000E+00
  1.55000000E+00  1.70000000E+00  1.70000000E+00  1.55000000E+00  1.30000000E+00
  1.30000000E+00  1.55000000E+00  1.70000000E+00  1.30000000E+00  1.55000000E+00
  1.70000000E+00  1.70000000E+00  1.30000000E+00  1.70000000E+00  1.30000000E+00
  1.50000000E+00  8.00000000E-01  1.50000000E+00  1.85000000E+00  1.50000000E+00
  1.50000000E+00  1.50000000E+00  1.70000000E+00  1.30000000E+00  1.30000000E+00
  1.70000000E+00  1.30000000E+00  1.50000000E+00  1.70000000E+00  1.30000000E+00
  1.55000000E+00  1.70000000E+00  1.30000000E+00  1.70000000E+00  1.30000000E+00
  1.70000000E+00  1.55000000E+00  1.30000000E+00  1.30000000E+00  1.55000000E+00
  1.70000000E+00  1.50000000E+00  1.70000000E+00  1.30000000E+00  1.70000000E+00
  1.30000000E+00  1.50000000E+00  8.00000000E-01  1.50000000E+00  1.85000000E+00
  1.50000000E+00  1.50000000E+00  1.50000000E+00  1.70000000E+00  1.30000000E+00
  1.30000000E+00  1.70000000E+00  1.30000000E+00  1.50000000E+00  1.70000000E+00
  1.30000000E+00  1.55000000E+00  1.70000000E+00  1.30000000E+00  1.70000000E+00
  1.30000000E+00  1.70000000E+00  1.55000000E+00  1.30000000E+00  1.30000000E+00
  1.55000000E+00  1.70000000E+00  1.50000000E+00  1.70000000E+00  1.30000000E+00
  1.70000000E+00  1.30000000E+00  1.50000000E+00  8.00000000E-01  1.50000000E+00
  1.85000000E+00  1.50000000E+00  1.50000000E+00  1.50000000E+00  1.70000000E+00
  1.30000000E+00  1.30000000E+00  1.70000000E+00  1.30000000E+00  1.50000000E+00
  1.70000000E+00  1.30000000E+00  1.55000000E+00  1.70000000E+00  1.30000000E+00
  1.55000000E+00  1.70000000E+00  1.70000000E+00  1.50000000E+00  1.55000000E+00
  1.30000000E+00  1.70000000E+00  1.55000000E+00  1.30000000E+00  1.30000000E+00
  1.55000000E+00  1.70000000E+00  1.70000000E+00  1.30000000E+00  1.70000000E+00
  1.30000000E+00  1.50000000E+00  8.00000000E-01  1.50000000E+00  1.85000000E+00
  1.50000000E+00  1.50000000E+00  1.50000000E+00  1.70000000E+00  1.30000000E+00
  1.30000000E+00  1.70000000E+00  1.30000000E+00  1.50000000E+00  1.70000000E+00
  1.30000000E+00  1.55000000E+00  1.70000000E+00  1.30000000E+00  1.55000000E+00
  1.70000000E+00  1.70000000E+00  1.50000000E+00  1.55000000E+00  1.30000000E+00
  1.70000000E+00  1.55000000E+00  1.30000000E+00  1.30000000E+00  1.55000000E+00
  1.70000000E+00  1.70000000E+00  1.30000000E+00  1.70000000E+00  1.30000000E+00
  1.50000000E+00  8.00000000E-01  1.50000000E+00  1.85000000E+00  1.50000000E+00
  1.50000000E+00  1.50000000E+00  1.70000000E+00  1.30000000E+00  1.30000000E+00
  1.70000000E+00  1.30000000E+00  1.50000000E+00  1.70000000E+00  1.30000000E+00
  1.55000000E+00  1.70000000E+00  1.30000000E+00  1.55000000E+00  1.70000000E+00
  1.70000000E+00  1.50000000E+00  1.55000000E+00  1.30000000E+00  1.70000000E+00
  1.55000000E+00  1.30000000E+00  1.30000000E+00  1.55000000E+00  1.70000000E+00
  1.70000000E+00  1.30000000E+00  1.70000000E+00  1.30000000E+00  1.50000000E+00
  8.00000000E-01  1.50000000E+00  1.85000000E+00  1.50000000E+00  1.50000000E+00
  1.50000000E+00  1.70000000E+00  1.30000000E+00  1.30000000E+00  1.70000000E+00
  1.30000000E+00  1.50000000E+00  1.70000000E+00  1.30000000E+00  1.55000000E+00
  1.70000000E+00  1.30000000E+00  1.70000000E+00  1.30000000E+00  1.70000000E+00
  1.55000000E+00  1.30000000E+00  1.30000000E+00  1.55000000E+00  1.70000000E+00
  1.50000000E+00  1.70000000E+00  1.30000000E+00  1.70000000E+00  1.30000000E+00
  1.50000000E+00  8.00000000E-01  1.50000000E+00  1.85000000E+00  1.50000000E+00
  1.50000000E+00  1.50000000E+00  1.70000000E+00  1.30000000E+00  1.30000000E+00
  1.70000000E+00  1.30000000E+00  1.50000000E+00  1.70000000E+00  1.30000000E+00
  1.55000000E+00  1.70000000E+00  1.30000000E+00  1.55000000E+00  1.70000000E+00
  1.70000000E+00  1.55000000E+00  1.30000000E+00  1.30000000E+00  1.55000000E+00
  1.70000000E+00  1.30000000E+00  1.55000000E+00  1.70000000E+00  1.70000000E+00
  1.30000000E+00  1.70000000E+00  1.30000000E+00  1.50000000E+00  8.00000000E-01
  1.50000000E+00  1.85000000E+00  1.50000000E+00  1.50000000E+00  1.50000000E+00
  1.70000000E+00  1.30000000E+00  1.30000000E+00  1.70000000E+00  1.30000000E+00
  1.50000000E+00  1.70000000E+00  1.30000000E+00  1.55000000E+00  1.70000000E+00
  1.30000000E+00  1.70000000E+00  1.30000000E+00  1.70000000E+00  1.55000000E+00
  1.30000000E+00  1.30000000E+00  1.55000000E+00  1.70000000E+00  1.50000000E+00
  1.70000000E+00  1.30000000E+00  1.70000000E+00  1.30000000E+00  1.50000000E+00
  8.00000000E-01  1.50000000E+00  1.85000000E+00  1.50000000E+00  1.50000000E+00
  1.50000000E+00  1.70000000E+00  1.30000000E+00  1.30000000E+00  1.70000000E+00
  1.30000000E+00  1.50000000E+00  1.70000000E+00  1.30000000E+00  1.55000000E+00
  1.70000000E+00  1.30000000E+00  1.70000000E+00  1.30000000E+00  1.70000000E+00
  1.55000000E+00  1.30000000E+00  1.30000000E+00  1.55000000E+00  1.70000000E+00
  1.50000000E+00  1.70000000E+00  1.30000000E+00  1.70000000E+00  1.30000000E+00
  1.50000000E+00  8.00000000E-01  1.50000000E+00  1.85000000E+00  1.50000000E+00
  1.50000000E+00  1.50000000E+00  1.70000000E+00  1.30000000E+00  1.30000000E+00
  1.70000000E+00  1.30000000E+00  1.50000000E+00  1.70000000E+00  1.30000000E+00
  1.55000000E+00  1.70000000E+00  1.30000000E+00  1.55000000E+00  1.70000000E+00
  1.70000000E+00  1.50000000E+00  1.55000000E+00  1.30000000E+00  1.70000000E+00
  1.55000000E+00  1.30000000E+00  1.30000000E+00  1.55000000E+00  1.70000000E+00
  1.70000000E+00  1.30000000E+00  1.70000000E+00  1.30000000E+00  1.50000000E+00
  8.00000000E-01  1.50000000E+00  1.85000000E+00  1.50000000E+00  1.50000000E+00
  1.50000000E+00  1.70000000E+00  1.30000000E+00  1.30000000E+00  1.70000000E+00
  1.30000000E+00  1.50000000E+00  1.70000000E+00  1.30000000E+00  1.55000000E+00
  1.70000000E+00  1.30000000E+00  1.70000000E+00  1.30000000E+00  1.70000000E+00
  1.50000000E+00  1.55000000E+00  1.30000000E+00  1.70000000E+00  1.50000000E+00
  1.70000000E+00  1.30000000E+00  1.70000000E+00  1.30000000E+00  1.50000000E+00
  8.00000000E-01  1.50000000E+00  1.85000000E+00  1.50000000E+00  1.50000000E+00
  1.50000000E+00  1.70000000E+00  1.30000000E+00  1.30000000E+00  1.70000000E+00
  1.30000000E+00  1.50000000E+00  1.70000000E+00  1.30000000E+00  1.55000000E+00
  1.70000000E+00  1.30000000E+00  1.55000000E+00  1.70000000E+00  1.70000000E+00
  1.55000000E+00  1.30000000E+00  1.30000000E+00  1.55000000E+00  1.70000000E+00
  1.30000000E+00  1.55000000E+00  1.70000000E+00  1.70000000E+00  1.30000000E+00
  1.70000000E+00  1.30000000E+00  1.50000000E+00  8.00000000E-01  1.50000000E+00
  1.85000000E+00  1.50000000E+00  1.50000000E+00  1.50000000E+00  1.70000000E+00
  1.30000000E+00  1.30000000E+00  1.70000000E+00  1.30000000E+00  1.50000000E+00
  1.70000000E+00  1.30000000E+00  1.55000000E+00  1.70000000E+00  1.30000000E+00
  1.55000000E+00  1.70000000E+00  1.70000000E+00  1.55000000E+00  1.30000000E+00
  1.30000000E+00  1.55000000E+00  1.70000000E+00  1.30000000E+00  1.55000000E+00
  1.70000000E+00  1.70000000E+00  1.30000000E+00  1.70000000E+00  1.30000000E+00
  1.50000000E+00  8.00000000E-01  1.50000000E+00  1.85000000E+00  1.50000000E+00
  1.50000000E+00  1.50000000E+00  1.70000000E+00  1.30000000E+00  1.30000000E+00
  1.70000000E+00  1.30000000E+00  1.50000000E+00  1.70000000E+00  1.30000000E+00
  1.55000000E+00  1.70000000E+00  1.30000000E+00  1.55000000E+00  1.70000000E+00
  1.70000000E+00  1.55000000E+00  1.30000000E+00  1.30000000E+00  1.55000000E+00
  1.70000000E+00  1.30000000E+00  1.55000000E+00  1.70000000E+00  1.70000000E+00
  1.30000000E+00  1.70000000E+00  1.30000000E+00  1.50000000E+00  8.00000000E-01
  1.50000000E+00  1.85000000E+00  1.50000000E+00  1.50000000E+00  1.50000000E+00
  1.70000000E+00  1.30000000E+00  1.30000000E+00  1.70000000E+00  1.30000000E+00
  1.50000000E+00  1.70000000E+00  1.30000000E+00  1.55000000E+00  1.70000000E+00
  1.30000000E+00  1.70000000E+00  1.30000000E+00  1.70000000E+00  1.50000000E+00
  1.55000000E+00  1.30000000E+00  1.70000000E+00  1.50000000E+00  1.70000000E+00
  1.30000000E+00  1.70000000E+00  1.30000000E+00  1.50000000E+00  8.00000000E-01
  1.50000000E+00  1.85000000E+00  1.50000000E+00  1.50000000E+00  1.50000000E+00
  1.70000000E+00  1.30000000E+00  1.30000000E+00  1.70000000E+00  1.30000000E+00
  1.50000000E+00  1.70000000E+00  1.30000000E+00  1.55000000E+00  1.70000000E+00
  1.30000000E+00  1.55000000E+00  1.70000000E+00  1.70000000E+00  1.50000000E+00
  1.55000000E+00  1.30000000E+00  1.70000000E+00  1.55000000E+00  1.30000000E+00
  1.30000000E+00  1.55000000E+00  1.70000000E+00  1.70000000E+00  1.30000000E+00
  1.70000000E+00  1.30000000E+00  1.50000000E+00  8.00000000E-01  1.50000000E+00
  1.85000000E+00  1.50000000E+00  1.50000000E+00  1.50000000E+00  1.70000000E+00
  1.30000000E+00  1.30000000E+00  1.70000000E+00  1.30000000E+00  1.50000000E+00
  1.70000000E+00  1.30000000E+00  1.55000000E+00  1.70000000E+00  1.30000000E+00
  1.70000000E+00  1.30000000E+00  1.70000000E+00  1.50000000E+00  1.55000000E+00
  1.30000000E+00  1.70000000E+00  1.50000000E+00  1.70000000E+00  1.30000000E+00
  1.70000000E+00  1.30000000E+00  1.50000000E+00  8.00000000E-01  1.50000000E+00
  1.85000000E+00  1.50000000E+00  1.50000000E+00  1.50000000E+00  1.70000000E+00
  1.30000000E+00  1.30000000E+00  1.70000000E+00  1.30000000E+00  1.50000000E+00
  1.70000000E+00  1.30000000E+00  1.55000000E+00  1.70000000E+00  1.30000000E+00
  1.70000000E+00  1.30000000E+00  1.70000000E+00  1.55000000E+00  1.30000000E+00
  1.30000000E+00  1.55000000E+00  1.70000000E+00  1.50000000E+00  1.70000000E+00
  1.30000000E+00  1.70000000E+00  1.30000000E+00  1.50000000E+00  8.00000000E-01
  1.50000000E+00  1.85000000E+00  1.50000000E+00  1.50000000E+00  1.50000000E+00
  1.70000000E+00  1.30000000E+00  1.30000000E+00  1.70000000E+00  1.30000000E+00
  1.50000000E+00  1.70000000E+00  1.30000000E+00  1.55000000E+00  1.70000000E+00
  1.30000000E+00  1.70000000E+00  1.30000000E+00  1.70000000E+00  1.55000000E+00
  1.30000000E+00  1.30000000E+00  1.55000000E+00  1.70000000E+00  1.50000000E+00
  1.70000000E+00  1.30000000E+00  1.70000000E+00  1.30000000E+00  1.50000000E+00
  8.00000000E-01  1.50000000E+00  1.85000000E+00  1.50000000E+00  1.50000000E+00
  1.50000000E+00  1.70000000E+00  1.30000000E+00  1.30000000E+00  1.70000000E+00
  1.30000000E+00  1.50000000E+00  1.70000000E+00  1.30000000E+00  1.55000000E+00
  1.70000000E+00  1.30000000E+00  1.55000000E+00  1.70000000E+00  1.70000000E+00
  1.50000000E+00  1.55000000E+00  1.30000000E+00  1.70000000E+00  1.55000000E+00
  1.30000000E+00  1.30000000E+00  1.55000000E+00  1.70000000E+00  1.70000000E+00
  1.30000000E+00  1.70000000E+00  1.30000000E+00  1.50000000E+00  8.00000000E-01
  1.50000000E+00  1.85000000E+00  1.50000000E+00  1.50000000E+00  1.50000000E+00
  1.70000000E+00  1.30000000E+00  1.30000000E+00  1.70000000E+00  1.30000000E+00
  1.50000000E+00  1.70000000E+00  1.30000000E+00  1.55000000E+00  1.70000000E+00
  1.30000000E+00  1.55000000E+00  1.70000000E+00  1.70000000E+00  1.55000000E+00
  1.30000000E+00  1.30000000E+00  1.55000000E+00  1.70000000E+00  1.30000000E+00
  1.55000000E+00  1.70000000E+00  1.70000000E+00  1.30000000E+00  1.70000000E+00
  1.30000000E+00  1.50000000E+00  8.00000000E-01  1.50000000E+00  1.85000000E+00
  1.50000000E+00  1.50000000E+00  1.50000000E+00  1.70000000E+00  1.30000000E+00
  1.30000000E+00  1.70000000E+00  1.30000000E+00  1.50000000E+00  1.70000000E+00
  1.30000000E+00  1.55000000E+00  1.70000000E+00  1.30000000E+00  1.70000000E+00
  1.30000000E+00  1.70000000E+00  1.55000000E+00  1.30000000E+00  1.30000000E+00
  1.55000000E+00  1.70000000E+00  1.50000000E+00  1.70000000E+00  1.30000000E+00
  1.70000000E+00  1.30000000E+00  1.50000000E+00  8.00000000E-01  1.50000000E+00
  1.85000000E+00  1.50000000E+00  1.50000000E+00  1.50000000E+00  1.70000000E+00
  1.30000000E+00  1.30000000E+00  1.70000000E+00  1.30000000E+00  1.50000000E+00
  1.70000000E+00  1.30000000E+00  1.55000000E+00  1.70000000E+00  1.30000000E+00
  1.70000000E+00  1.30000000E+00  1.70000000E+00  1.50000000E+00  1.55000000E+00
  1.30000000E+00  1.70000000E+00  1.50000000E+00  1.70000000E+00  1.30000000E+00
  1.70000000E+00  1.30000000E+00  1.50000000E+00  8.00000000E-01  1.50000000E+00
  1.85000000E+00  1.50000000E+00  1.50000000E+00  1.50000000E+00  1.70000000E+00
  1.30000000E+00  1.30000000E+00  1.70000000E+00  1.30000000E+00  1.50000000E+00
  1.70000000E+00  1.30000000E+00  1.55000000E+00  1.70000000E+00  1.30000000E+00
  1.55000000E+00  1.70000000E+00  1.70000000E+00  1.55000000E+00  1.30000000E+00
  1.30000000E+00  1.55000000E+00  1.70000000E+00  1.30000000E+00  1.55000000E+00
  1.70000000E+00  1.70000000E+00  1.30000000E+00  1.70000000E+00  1.30000000E+00
  1.50000000E+00  8.00000000E-01  1.50000000E+00  1.85000000E+00  1.50000000E+00
  1.50000000E+00  1.50000000E+00  1.70000000E+00  1.30000000E+00  1.30000000E+00
  1.70000000E+00  1.30000000E+00  1.50000000E+00  1.70000000E+00  1.30000000E+00
  1.55000000E+00  1.70000000E+00  1.30000000E+00  1.70000000E+00  1.30000000E+00
  1.70000000E+00  1.50000000E+00  1.55000000E+00  1.30000000E+00  1.70000000E+00
  1.50000000E+00  1.70000000E+00  1.30000000E+00  1.70000000E+00  1.30000000E+00
  1.50000000E+00  8.00000000E-01  1.50000000E+00  1.85000000E+00  1.50000000E+00
  1.50000000E+00  1.50000000E+00  1.70000000E+00  1.30000000E+00  1.30000000E+00
  1.70000000E+00  1.30000000E+00  1.50000000E+00  1.70000000E+00  1.30000000E+00
  1.55000000E+00  1.70000000E+00  1.30000000E+00  1.55000000E+00  1.70000000E+00
  1.70000000E+00  1.50000000E+00  1.55000000E+00  1.30000000E+00  1.70000000E+00
  1.55000000E+00  1.30000000E+00  1.30000000E+00  1.55000000E+00  1.70000000E+00
  1.70000000E+00  1.30000000E+00  1.70000000E+00  1.30000000E+00  1.50000000E+00
  8.00000000E-01  1.50000000E+00  1.85000000E+00  1.50000000E+00  1.50000000E+00
  1.50000000E+00  1.70000000E+00  1.30000000E+00  1.30000000E+00  1.70000000E+00
  1.30000000E+00  1.50000000E+00  1.70000000E+00  1.30000000E+00  1.55000000E+00
  1.70000000E+00  1.30000000E+00  1.55000000E+00  1.70000000E+00  1.70000000E+00
  1.50000000E+00  1.55000000E+00  1.30000000E+00  1.70000000E+00  1.55000000E+00
  1.30000000E+00  1.30000000E+00  1.55000000E+00  1.70000000E+00  1.70000000E+00
  1.30000000E+00  1.70000000E+00  1.30000000E+00  1.50000000E+00  8.00000000E-01
  1.50000000E+00  1.85000000E+00  1.50000000E+00  1.50000000E+00  1.50000000E+00
  1.70000000E+00  1.30000000E+00  1.30000000E+00  1.70000000E+00  1.30000000E+00
  1.50000000E+00  1.70000000E+00  1.30000000E+00  1.55000000E+00  1.70000000E+00
  1.30000000E+00  1.70000000E+00  1.30000000E+00  1.70000000E+00  1.50000000E+00
  1.55000000E+00  1.30000000E+00  1.70000000E+00  1.50000000E+00  1.70000000E+00
  1.30000000E+00  1.70000000E+00  1.30000000E+00  1.50000000E+00  8.00000000E-01
  1.50000000E+00  1.85000000E+00  1.50000000E+00  1.50000000E+00  1.50000000E+00
  1.70000000E+00  1.30000000E+00  1.30000000E+00  1.70000000E+00  1.30000000E+00
  1.50000000E+00  1.70000000E+00  1.30000000E+00  1.55000000E+00  1.70000000E+00
  1.30000000E+00  1.70000000E+00  1.30000000E+00  1.70000000E+00  1.55000000E+00
  1.30000000E+00  1.30000000E+00  1.55000000E+00  1.70000000E+00  1.50000000E+00
  1.70000000E+00  1.30000000E+00  1.70000000E+00  1.30000000E+00  1.50000000E+00
  8.00000000E-01  1.50000000E+00  8.00000000E-01  1.50000000E+00  1.50000000E+00
  1.50000000E+00  1.50000000E+00  1.50000000E+00  1.50000000E+00  1.50000000E+00
  1.50000000E+00  1.50000000E+00  1.50000000E+00  1.50000000E+00  1.50000000E+00
  1.50000000E+00  1.50000000E+00  1.50000000E+00  1.50000000E+00  1.50000000E+00
  1.50000000E+00  1.50000000E+00  1.50000000E+00  1.50000000E+00  1.50000000E+00
  1.50000000E+00  1.50000000E+00  1.50000000E+00  1.50000000E+00  1.50000000E+00
  1.50000000E+00  1.50000000E+00  1.50000000E+00  1.50000000E+00  1.50000000E+00
  1.50000000E+00  1.50000000E+00  1.50000000E+00  1.50000000E+00  1.50000000E+00
  1.50000000E+00  1.50000000E+00  1.50000000E+00  1.50000000E+00  1.50000000E+00
  1.50000000E+00  1.50000000E+00  1.50000000E+00  1.50000000E+00  1.50000000E+00
  1.50000000E+00  1.50000000E+00  1.50000000E+00  1.50000000E+00  1.50000000E+00
  1.50000000E+00  1.50000000E+00  1.50000000E+00  1.50000000E+00  1.50000000E+00
  1.50000000E+00  1.50000000E+00  1.50000000E+00  1.50000000E+00  1.50000000E+00
  1.50000000E+00  1.50000000E+00  1.50000000E+00  1.50000000E+00  1.50000000E+00
  1.50000000E+00  1.70000000E+00  1.50000000E+00  1.70000000E+00  1.50000000E+00
  1.70000000E+00  1.50000000E+00  1.70000000E+00  1.50000000E+00  1.70000000E+00
  1.50000000E+00  1.70000000E+00  1.50000000E+00  1.70000000E+00  1.50000000E+00
  1.70000000E+00  1.50000000E+00  1.70000000E+00  1.50000000E+00  1.70000000E+00
  1.50000000E+00  1.70000000E+00  1.50000000E+00  1.70000000E+00  1.50000000E+00
  1.70000000E+00  1.50000000E+00  1.70000000E+00  1.50000000E+00  1.70000000E+00
  1.50000000E+00  1.70000000E+00  1.50000000E+00  1.70000000E+00  1.50000000E+00
  1.70000000E+00  1.50000000E+00  1.70000000E+00  1.50000000E+00  1.70000000E+00
  1.50000000E+00  1.70000000E+00  1.50000000E+00  1.70000000E+00  1.50000000E+00
  1.70000000E+00  1.50000000E+00  1.70000000E+00  1.50000000E+00  1.70000000E+00
  1.50000000E+00  1.70000000E+00  1.50000000E+00  1.70000000E+00  1.50000000E+00
  1.70000000E+00  1.50000000E+00  1.70000000E+00  1.50000000E+00  1.70000000E+00
  1.50000000E+00  1.70000000E+00  1.50000000E+00  1.70000000E+00  1.50000000E+00
  1.70000000E+00  1.55000000E+00  1.70000000E+00  1.70000000E+00  1.50000000E+00
  1.50000000E+00  1.50000000E+00  1.55000000E+00  1.70000000E+00  1.70000000E+00
  1.55000000E+00  1.70000000E+00  1.55000000E+00  1.30000000E+00  1.30000000E+00
  1.30000000E+00  1.50000000E+00  8.00000000E-01  8.00000000E-01  1.50000000E+00
  1.50000000E+00  8.00000000E-01  8.00000000E-01  1.50000000E+00  1.50000000E+00
  8.00000000E-01  8.00000000E-01  1.50000000E+00  1.50000000E+00  8.00000000E-01
  8.00000000E-01  1.50000000E+00  1.50000000E+00  8.00000000E-01  8.00000000E-01
  1.50000000E+00  1.50000000E+00  8.00000000E-01  8.00000000E-01  1.50000000E+00
  1.50000000E+00  8.00000000E-01  8.00000000E-01  1.50000000E+00  1.50000000E+00
  8.00000000E-01  8.00000000E-01  1.50000000E+00  1.50000000E+00  8.00000000E-01
  8.00000000E-01  1.50000000E+00  1.50000000E+00  8.00000000E-01  8.00000000E-01
  1.50000000E+00  1.50000000E+00  8.00000000E-01  8.00000000E-01  1.50000000E+00
  1.50000000E+00  8.00000000E-01  8.00000000E-01  1.50000000E+00  1.50000000E+00
  8.00000000E-01  8.00000000E-01  1.50000000E+00  1.50000000E+00  8.00000000E-01
  8.00000000E-01  1.50000000E+00  1.50000000E+00  8.00000000E-01  8.00000000E-01
  1.50000000E+00  1.50000000E+00  8.00000000E-01  8.00000000E-01  1.50000000E+00
  1.50000000E+00  8.00000000E-01  8.00000000E-01  1.50000000E+00  1.50000000E+00
  8.00000000E-01  8.00000000E-01  1.50000000E+00  1.50000000E+00  8.00000000E-01
  8.00000000E-01  1.50000000E+00  1.50000000E+00  8.00000000E-01  8.00000000E-01
  1.50000000E+00  1.50000000E+00  8.00000000E-01  8.00000000E-01  1.50000000E+00
  1.50000000E+00  8.00000000E-01  8.00000000E-01  1.50000000E+00  1.50000000E+00
  8.00000000E-01  8.00000000E-01  1.50000000E+00  1.50000000E+00  8.00000000E-01
  8.00000000E-01  1.50000000E+00  1.50000000E+00  8.00000000E-01  8.00000000E-01
  1.50000000E+00  1.50000000E+00  8.00000000E-01  8.00000000E-01  1.50000000E+00
  1.50000000E+00  8.00000000E-01  8.00000000E-01  1.50000000E+00  1.50000000E+00
  8.00000000E-01  8.00000000E-01  1.50000000E+00  1.50000000E+00  8.00000000E-01
  8.00000000E-01  1.50000000E+00  1.50000000E+00  8.00000000E-01  8.00000000E-01
  1.50000000E+00  1.50000000E+00  8.00000000E-01  8.00000000E-01  1.50000000E+00
  1.50000000E+00  8.00000000E-01  8.00000000E-01  1.50000000E+00  1.50000000E+00
  8.00000000E-01  8.00000000E-01  1.50000000E+00  1.50000000E+00  8.00000000E-01
  8.00000000E-01  1.50000000E+00  1.50000000E+00  8.00000000E-01  8.00000000E-01
  1.50000000E+00  1.50000000E+00  8.00000000E-01  8.00000000E-01  1.50000000E+00
  1.50000000E+00  8.00000000E-01  8.00000000E-01  1.50000000E+00  1.50000000E+00
  8.00000000E-01  8.00000000E-01  1.50000000E+00  1.50000000E+00  8.00000000E-01
  8.00000000E-01  1.50000000E+00  1.50000000E+00  8.00000000E-01  8.00000000E-01
  1.50000000E+00  1.50000000E+00  8.00000000E-01  8.00000000E-01  1.50000000E+00
  1.50000000E+00  8.00000000E-01  8.00000000E-01  1.50000000E+00  1.50000000E+00
  8.00000000E-01  8.00000000E-01  1.50000000E+00  1.50000000E+00  8.00000000E-01
  8.00000000E-01  1.50000000E+00  1.50000000E+00  8.00000000E-01  8.00000000E-01
  1.50000000E+00  1.50000000E+00  8.00000000E-01  8.00000000E-01  1.50000000E+00
  1.50000000E+00  8.00000000E-01  8.00000000E-01  1.50000000E+00  1.50000000E+00
  8.00000000E-01  8.00000000E-01  1.50000000E+00  1.50000000E+00  8.00000000E-01
  8.00000000E-01  1.50000000E+00  1.50000000E+00  8.00000000E-01  8.00000000E-01
  1.50000000E+00  1.50000000E+00  8.00000000E-01  8.00000000E-01  1.50000000E+00
  1.50000000E+00  8.00000000E-01  8.00000000E-01  1.50000000E+00  1.50000000E+00
  8.00000000E-01  8.00000000E-01  1.50000000E+00  1.50000000E+00  8.00000000E-01
  8.00000000E-01  1.50000000E+00  1.50000000E+00  8.00000000E-01  8.00000000E-01
  1.50000000E+00  1.50000000E+00  8.00000000E-01  8.00000000E-01  1.50000000E+00
  1.50000000E+00  8.00000000E-01  8.00000000E-01  1.50000000E+00  1.50000000E+00
  8.00000000E-01  8.00000000E-01  1.50000000E+00  1.50000000E+00  8.00000000E-01
  8.00000000E-01  1.50000000E+00  1.50000000E+00  8.00000000E-01  8.00000000E-01
  1.50000000E+00  1.50000000E+00  8.00000000E-01  8.00000000E-01  1.50000000E+00
  1.50000000E+00  8.00000000E-01  8.00000000E-01  1.50000000E+00  1.50000000E+00
  8.00000000E-01  8.00000000E-01  1.50000000E+00  1.50000000E+00  8.00000000E-01
  8.00000000E-01  1.50000000E+00  1.50000000E+00  8.00000000E-01  8.00000000E-01
  1.50000000E+00  1.50000000E+00  8.00000000E-01  8.00000000E-01  1.50000000E+00
  1.50000000E+00  8.00000000E-01  8.00000000E-01  1.50000000E+00  1.50000000E+00
  8.00000000E-01  8.00000000E-01  1.50000000E+00  1.50000000E+00  8.00000000E-01
  8.00000000E-01  1.50000000E+00  1.50000000E+00  8.00000000E-01  8.00000000E-01
  1.50000000E+00  1.50000000E+00  8.00000000E-01  8.00000000E-01  1.50000000E+00
  1.50000000E+00  8.00000000E-01  8.00000000E-01  1.50000000E+00  1.50000000E+00
  8.00000000E-01  8.00000000E-01  1.50000000E+00  1.50000000E+00  8.00000000E-01
  8.00000000E-01  1.50000000E+00  1.50000000E+00  8.00000000E-01  8.00000000E-01
  1.50000000E+00  1.50000000E+00  8.00000000E-01  8.00000000E-01  1.50000000E+00
  1.50000000E+00  8.00000000E-01  8.00000000E-01  1.50000000E+00  1.50000000E+00
  8.00000000E-01  8.00000000E-01  1.50000000E+00  1.50000000E+00  8.00000000E-01
  8.00000000E-01  1.50000000E+00  1.50000000E+00  8.00000000E-01  8.00000000E-01
  1.50000000E+00  1.50000000E+00  8.00000000E-01  8.00000000E-01  1.50000000E+00
  1.50000000E+00  8.00000000E-01  8.00000000E-01  1.50000000E+00  1.50000000E+00
  8.00000000E-01  8.00000000E-01  1.50000000E+00  1.50000000E+00  8.00000000E-01
  8.00000000E-01  1.50000000E+00  1.50000000E+00  8.00000000E-01  8.00000000E-01
  1.50000000E+00  1.50000000E+00  8.00000000E-01  8.00000000E-01  1.50000000E+00
  1.50000000E+00  8.00000000E-01  8.00000000E-01  1.50000000E+00  1.50000000E+00
  8.00000000E-01  8.00000000E-01  1.50000000E+00  1.50000000E+00  8.00000000E-01
  8.00000000E-01  1.50000000E+00  1.50000000E+00  8.00000000E-01  8.00000000E-01
  1.50000000E+00  1.50000000E+00  8.00000000E-01  8.00000000E-01  1.50000000E+00
  1.50000000E+00  8.00000000E-01  8.00000000E-01  1.50000000E+00  1.50000000E+00
  8.00000000E-01  8.00000000E-01  1.50000000E+00  1.50000000E+00  8.00000000E-01
  8.00000000E-01  1.50000000E+00  1.50000000E+00  8.00000000E-01  8.00000000E-01
  1.50000000E+00  1.50000000E+00  8.00000000E-01  8.00000000E-01  1.50000000E+00
  1.50000000E+00  8.00000000E-01  8.00000000E-01  1.50000000E+00  1.50000000E+00
  8.00000000E-01  8.00000000E-01  1.50000000E+00  1.50000000E+00  8.00000000E-01
  8.00000000E-01  1.50000000E+00  1.50000000E+00  8.00000000E-01  8.00000000E-01
  1.50000000E+00  1.50000000E+00  8.00000000E-01  8.00000000E-01  1.50000000E+00
  1.50000000E+00  8.00000000E-01  8.00000000E-01  1.50000000E+00  1.50000000E+00
  8.00000000E-01  8.00000000E-01  1.50000000E+00  1.50000000E+00  8.00000000E-01
  8.00000000E-01  1.50000000E+00  1.50000000E+00  8.00000000E-01  8.00000000E-01
  1.50000000E+00  1.50000000E+00  8.00000000E-01  8.00000000E-01  1.50000000E+00
  1.50000000E+00  8.00000000E-01  8.00000000E-01  1.50000000E+00  1.50000000E+00
  8.00000000E-01  8.00000000E-01  1.50000000E+00  1.50000000E+00  8.00000000E-01
  8.00000000E-01  1.50000000E+00  1.50000000E+00  8.00000000E-01  8.00000000E-01
  1.50000000E+00  1.50000000E+00  8.00000000E-01  8.00000000E-01  1.50000000E+00
  1.50000000E+00  8.00000000E-01  8.00000000E-01  1.50000000E+00  1.50000000E+00
  8.00000000E-01  8.00000000E-01  1.50000000E+00  1.50000000E+00  8.00000000E-01
  8.00000000E-01  1.50000000E+00  1.50000000E+00  8.00000000E-01  8.00000000E-01
  1.50000000E+00  1.50000000E+00  8.00000000E-01  8.00000000E-01  1.50000000E+00
  1.50000000E+00  8.00000000E-01  8.00000000E-01  1.50000000E+00  1.50000000E+00
  8.00000000E-01  8.00000000E-01  1.50000000E+00  1.50000000E+00  8.00000000E-01
  8.00000000E-01  1.50000000E+00  1.50000000E+00  8.00000000E-01  8.00000000E-01
  1.50000000E+00  1.50000000E+00  8.00000000E-01  8.00000000E-01  1.50000000E+00
  1.50000000E+00  8.00000000E-01  8.00000000E-01  1.50000000E+00  1.50000000E+00
  8.00000000E-01  8.00000000E-01  1.50000000E+00  1.50000000E+00  8.00000000E-01
  8.00000000E-01  1.50000000E+00  1.50000000E+00  8.00000000E-01  8.00000000E-01
  1.50000000E+00  1.50000000E+00  8.00000000E-01  8.00000000E-01  1.50000000E+00
  1.50000000E+00  8.00000000E-01  8.00000000E-01  1.50000000E+00  1.50000000E+00
  8.00000000E-01  8.00000000E-01  1.50000000E+00  1.50000000E+00  8.00000000E-01
  8.00000000E-01  1.50000000E+00  1.50000000E+00  8.00000000E-01  8.00000000E-01
  1.50000000E+00  1.50000000E+00  8.00000000E-01  8.00000000E-01  1.50000000E+00
  1.50000000E+00  8.00000000E-01  8.00000000E-01  1.50000000E+00  1.50000000E+00
  8.00000000E-01  8.00000000E-01  1.50000000E+00  1.50000000E+00  8.00000000E-01
  8.00000000E-01  1.50000000E+00  1.50000000E+00  8.00000000E-01  8.00000000E-01
  1.50000000E+00  1.50000000E+00  8.00000000E-01  8.00000000E-01  1.50000000E+00
  1.50000000E+00  8.00000000E-01  8.00000000E-01  1.50000000E+00  1.50000000E+00
  8.00000000E-01  8.00000000E-01  1.50000000E+00  1.50000000E+00  8.00000000E-01
  8.00000000E-01  1.50000000E+00  1.50000000E+00  8.00000000E-01  8.00000000E-01
  1.50000000E+00  1.50000000E+00  8.00000000E-01  8.00000000E-01  1.50000000E+00
  1.50000000E+00  8.00000000E-01  8.00000000E-01  1.50000000E+00  1.50000000E+00
  8.00000000E-01  8.00000000E-01  1.50000000E+00  1.50000000E+00  8.00000000E-01
  8.00000000E-01  1.50000000E+00  1.50000000E+00  8.00000000E-01  8.00000000E-01
  1.50000000E+00  1.50000000E+00  8.00000000E-01  8.00000000E-01  1.50000000E+00
  1.50000000E+00  8.00000000E-01  8.00000000E-01  1.50000000E+00  1.50000000E+00
  8.00000000E-01  8.00000000E-01  1.50000000E+00  1.50000000E+00  8.00000000E-01
  8.00000000E-01  1.50000000E+00  1.50000000E+00  8.00000000E-01  8.00000000E-01
  1.50000000E+00  1.50000000E+00  8.00000000E-01  8.00000000E-01  1.50000000E+00
  1.50000000E+00  8.00000000E-01  8.00000000E-01  1.50000000E+00  1.50000000E+00
  8.00000000E-01  8.00000000E-01  1.50000000E+00  1.50000000E+00  8.00000000E-01
  8.00000000E-01  1.50000000E+00  1.50000000E+00  8.00000000E-01  8.00000000E-01
  1.50000000E+00  1.50000000E+00  8.00000000E-01  8.00000000E-01  1.50000000E+00
  1.50000000E+00  8.00000000E-01  8.00000000E-01  1.50000000E+00  1.50000000E+00
  8.00000000E-01  8.00000000E-01  1.50000000E+00  1.50000000E+00  8.00000000E-01
  8.00000000E-01  1.50000000E+00  1.50000000E+00  8.00000000E-01  8.00000000E-01
  1.50000000E+00  1.50000000E+00  8.00000000E-01  8.00000000E-01  1.50000000E+00
  1.50000000E+00  8.00000000E-01  8.00000000E-01  1.50000000E+00  1.50000000E+00
  8.00000000E-01  8.00000000E-01  1.50000000E+00  1.50000000E+00  8.00000000E-01
  8.00000000E-01  1.50000000E+00  1.50000000E+00  8.00000000E-01  8.00000000E-01
  1.50000000E+00  1.50000000E+00  8.00000000E-01  8.00000000E-01  1.50000000E+00
  1.50000000E+00  8.00000000E-01  8.00000000E-01  1.50000000E+00  1.50000000E+00
  8.00000000E-01  8.00000000E-01  1.50000000E+00  1.50000000E+00  8.00000000E-01
  8.00000000E-01  1.50000000E+00  1.50000000E+00  8.00000000E-01  8.00000000E-01
  1.50000000E+00  1.50000000E+00  8.00000000E-01  8.00000000E-01  1.50000000E+00
  1.50000000E+00  8.00000000E-01  8.00000000E-01  1.50000000E+00  1.50000000E+00
  8.00000000E-01  8.00000000E-01  1.50000000E+00  1.50000000E+00  8.00000000E-01
  8.00000000E-01  1.50000000E+00  1.50000000E+00  8.00000000E-01  8.00000000E-01
  1.50000000E+00  1.50000000E+00  8.00000000E-01  8.00000000E-01  1.50000000E+00
  1.50000000E+00  8.00000000E-01  8.00000000E-01  1.50000000E+00  1.50000000E+00
  8.00000000E-01  8.00000000E-01  1.50000000E+00  1.50000000E+00  8.00000000E-01
  8.00000000E-01  1.50000000E+00  1.50000000E+00  8.00000000E-01  8.00000000E-01
  1.50000000E+00  1.50000000E+00  8.00000000E-01  8.00000000E-01  1.50000000E+00
  1.50000000E+00  8.00000000E-01  8.00000000E-01  1.50000000E+00  1.50000000E+00
  8.00000000E-01  8.00000000E-01  1.50000000E+00  1.50000000E+00  8.00000000E-01
  8.00000000E-01  1.50000000E+00  1.50000000E+00  8.00000000E-01  8.00000000E-01
  1.50000000E+00  1.50000000E+00  8.00000000E-01  8.00000000E-01  1.50000000E+00
  1.50000000E+00  8.00000000E-01  8.00000000E-01  1.50000000E+00  1.50000000E+00
  8.00000000E-01  8.00000000E-01  1.50000000E+00  1.50000000E+00  8.00000000E-01
  8.00000000E-01  1.50000000E+00  1.50000000E+00  8.00000000E-01  8.00000000E-01
  1.50000000E+00  1.50000000E+00  8.00000000E-01  8.00000000E-01  1.50000000E+00
  1.50000000E+00  8.00000000E-01  8.00000000E-01  1.50000000E+00  1.50000000E+00
  8.00000000E-01  8.00000000E-01  1.50000000E+00  1.50000000E+00  8.00000000E-01
  8.00000000E-01  1.50000000E+00  1.50000000E+00  8.00000000E-01  8.00000000E-01
  1.50000000E+00  1.50000000E+00  8.00000000E-01  8.00000000E-01  1.50000000E+00
  1.50000000E+00  8.00000000E-01  8.00000000E-01  1.50000000E+00  1.50000000E+00
  8.00000000E-01  8.00000000E-01  1.50000000E+00  1.50000000E+00  8.00000000E-01
  8.00000000E-01  1.50000000E+00  1.50000000E+00  8.00000000E-01  8.00000000E-01
  1.50000000E+00  1.50000000E+00  8.00000000E-01  8.00000000E-01  1.50000000E+00
  1.50000000E+00  8.00000000E-01  8.00000000E-01  1.50000000E+00  1.50000000E+00
  8.00000000E-01  8.00000000E-01  1.50000000E+00  1.50000000E+00  8.00000000E-01
  8.00000000E-01  1.50000000E+00  1.50000000E+00  8.00000000E-01  8.00000000E-01
  1.50000000E+00  1.50000000E+00  8.00000000E-01  8.00000000E-01  1.50000000E+00
  1.50000000E+00  8.00000000E-01  8.00000000E-01  1.50000000E+00  1.50000000E+00
  8.00000000E-01  8.00000000E-01  1.50000000E+00  1.50000000E+00  8.00000000E-01
  8.00000000E-01  1.50000000E+00  1.50000000E+00  8.00000000E-01  8.00000000E-01
  1.50000000E+00  1.50000000E+00  8.00000000E-01  8.00000000E-01  1.50000000E+00
  1.50000000E+00  8.00000000E-01  8.00000000E-01  1.50000000E+00  1.50000000E+00
  8.00000000E-01  8.00000000E-01  1.50000000E+00  1.50000000E+00  8.00000000E-01
  8.00000000E-01  1.50000000E+00  1.50000000E+00  8.00000000E-01  8.00000000E-01
  1.50000000E+00  1.50000000E+00  8.00000000E-01  8.00000000E-01  1.50000000E+00
  1.50000000E+00  8.00000000E-01  8.00000000E-01  1.50000000E+00  1.50000000E+00
  8.00000000E-01  8.00000000E-01  1.50000000E+00  1.50000000E+00  8.00000000E-01
  8.00000000E-01  1.50000000E+00  1.50000000E+00  8.00000000E-01  8.00000000E-01
  1.50000000E+00  1.50000000E+00  8.00000000E-01  8.00000000E-01  1.50000000E+00
  1.50000000E+00  8.00000000E-01  8.00000000E-01  1.50000000E+00  1.50000000E+00
  8.00000000E-01  8.00000000E-01  1.50000000E+00  1.50000000E+00  8.00000000E-01
  8.00000000E-01  1.50000000E+00  1.50000000E+00  8.00000000E-01  8.00000000E-01
  1.50000000E+00  1.50000000E+00  8.00000000E-01  8.00000000E-01  1.50000000E+00
  1.50000000E+00  8.00000000E-01  8.00000000E-01  1.50000000E+00  1.50000000E+00
  8.00000000E-01  8.00000000E-01  1.50000000E+00  1.50000000E+00  8.00000000E-01
  8.00000000E-01  1.50000000E+00  1.50000000E+00  8.00000000E-01  8.00000000E-01
  1.50000000E+00  1.50000000E+00  8.00000000E-01  8.00000000E-01  1.50000000E+00
  1.50000000E+00  8.00000000E-01  8.00000000E-01  1.50000000E+00  1.50000000E+00
  8.00000000E-01  8.00000000E-01  1.50000000E+00  1.50000000E+00  8.00000000E-01
  8.00000000E-01  1.50000000E+00  1.50000000E+00  8.00000000E-01  8.00000000E-01
  1.50000000E+00  1.50000000E+00  8.00000000E-01  8.00000000E-01  1.50000000E+00
  1.50000000E+00  8.00000000E-01  8.00000000E-01  1.50000000E+00  1.50000000E+00
  8.00000000E-01  8.00000000E-01  1.50000000E+00  1.50000000E+00  8.00000000E-01
  8.00000000E-01  1.50000000E+00  1.50000000E+00  8.00000000E-01  8.00000000E-01
  1.50000000E+00  1.50000000E+00  8.00000000E-01  8.00000000E-01  1.50000000E+00
  1.50000000E+00  8.00000000E-01  8.00000000E-01  1.50000000E+00  1.50000000E+00
  8.00000000E-01  8.00000000E-01  1.50000000E+00  1.50000000E+00  8.00000000E-01
  8.00000000E-01  1.50000000E+00  1.50000000E+00  8.00000000E-01  8.00000000E-01
  1.50000000E+00  1.50000000E+00  8.00000000E-01  8.00000000E-01  1.50000000E+00
  1.50000000E+00  8.00000000E-01  8.00000000E-01  1.50000000E+00  1.50000000E+00
  8.00000000E-01  8.00000000E-01  1.50000000E+00  1.50000000E+00  8.00000000E-01
  8.00000000E-01  1.50000000E+00  1.50000000E+00  8.00000000E-01  8.00000000E-01
  1.50000000E+00  1.50000000E+00  8.00000000E-01  8.00000000E-01  1.50000000E+00
  1.50000000E+00  8.00000000E-01  8.00000000E-01  1.50000000E+00  1.50000000E+00
  8.00000000E-01  8.00000000E-01  1.50000000E+00  1.50000000E+00  8.00000000E-01
  8.00000000E-01  1.50000000E+00  1.50000000E+00  8.00000000E-01  8.00000000E-01
  1.50000000E+00  1.50000000E+00  8.00000000E-01  8.00000000E-01  1.50000000E+00
  1.50000000E+00  8.00000000E-01  8.00000000E-01  1.50000000E+00  1.50000000E+00
  8.00000000E-01  8.00000000E-01  1.50000000E+00  1.50000000E+00  8.00000000E-01
  8.00000000E-01  1.50000000E+00  1.50000000E+00  8.00000000E-01  8.00000000E-01
  1.50000000E+00  1.50000000E+00  8.00000000E-01  8.00000000E-01  1.50000000E+00
  1.50000000E+00  8.00000000E-01  8.00000000E-01  1.50000000E+00  1.50000000E+00
  8.00000000E-01  8.00000000E-01  1.50000000E+00  1.50000000E+00  8.00000000E-01
  8.00000000E-01  1.50000000E+00  1.50000000E+00  8.00000000E-01  8.00000000E-01
  1.50000000E+00  1.50000000E+00  8.00000000E-01  8.00000000E-01  1.50000000E+00
  1.50000000E+00  8.00000000E-01  8.00000000E-01  1.50000000E+00  1.50000000E+00
  8.00000000E-01  8.00000000E-01  1.50000000E+00  1.50000000E+00  8.00000000E-01
  8.00000000E-01  1.50000000E+00  1.50000000E+00  8.00000000E-01  8.00000000E-01
  1.50000000E+00  1.50000000E+00  8.00000000E-01  8.00000000E-01  1.50000000E+00
  1.50000000E+00  8.00000000E-01  8.00000000E-01  1.50000000E+00  1.50000000E+00
  8.00000000E-01  8.00000000E-01  1.50000000E+00  1.50000000E+00  8.00000000E-01
  8.00000000E-01  1.50000000E+00  1.50000000E+00  8.00000000E-01  8.00000000E-01
  1.50000000E+00  1.50000000E+00  8.00000000E-01  8.00000000E-01  1.50000000E+00
  1.50000000E+00  8.00000000E-01  8.00000000E-01  1.50000000E+00  1.50000000E+00
  8.00000000E-01  8.00000000E-01  1.50000000E+00  1.50000000E+00  8.00000000E-01
  8.00000000E-01  1.50000000E+00  1.50000000E+00  8.00000000E-01  8.00000000E-01
  1.50000000E+00  1.50000000E+00  8.00000000E-01  8.00000000E-01  1.50000000E+00
  1.50000000E+00  8.00000000E-01  8.00000000E-01  1.50000000E+00  1.50000000E+00
  8.00000000E-01  8.00000000E-01  1.50000000E+00  1.50000000E+00  8.00000000E-01
  8.00000000E-01  1.50000000E+00  1.50000000E+00  8.00000000E-01  8.00000000E-01
  1.50000000E+00  1.50000000E+00  8.00000000E-01  8.00000000E-01  1.50000000E+00
  1.50000000E+00  8.00000000E-01  8.00000000E-01  1.50000000E+00  1.50000000E+00
  8.00000000E-01  8.00000000E-01  1.50000000E+00  1.50000000E+00  8.00000000E-01
  8.00000000E-01  1.50000000E+00  1.50000000E+00  8.00000000E-01  8.00000000E-01
  1.50000000E+00  1.50000000E+00  8.00000000E-01  8.00000000E-01  1.50000000E+00
  1.50000000E+00  8.00000000E-01  8.00000000E-01  1.50000000E+00  1.50000000E+00
  8.00000000E-01  8.00000000E-01  1.50000000E+00  1.50000000E+00  8.00000000E-01
  8.00000000E-01  1.50000000E+00  1.50000000E+00  8.00000000E-01  8.00000000E-01
  1.50000000E+00  1.50000000E+00  8.00000000E-01  8.00000000E-01  1.50000000E+00
  1.50000000E+00  8.00000000E-01  8.00000000E-01  1.50000000E+00  1.50000000E+00
  8.00000000E-01  8.00000000E-01  1.50000000E+00  1.50000000E+00  8.00000000E-01
  8.00000000E-01  1.50000000E+00  1.50000000E+00  8.00000000E-01  8.00000000E-01
  1.50000000E+00  1.50000000E+00  8.00000000E-01  8.00000000E-01  1.50000000E+00
  1.50000000E+00  8.00000000E-01  8.00000000E-01  1.50000000E+00  1.50000000E+00
  8.00000000E-01  8.00000000E-01  1.50000000E+00  1.50000000E+00  8.00000000E-01
  8.00000000E-01  1.50000000E+00  1.50000000E+00  8.00000000E-01  8.00000000E-01
  1.50000000E+00  1.50000000E+00  8.00000000E-01  8.00000000E-01  1.50000000E+00
  1.50000000E+00  8.00000000E-01  8.00000000E-01  1.50000000E+00  1.50000000E+00
  8.00000000E-01  8.00000000E-01  1.50000000E+00  1.50000000E+00  8.00000000E-01
  8.00000000E-01  1.50000000E+00  1.50000000E+00  8.00000000E-01  8.00000000E-01
  1.50000000E+00  1.50000000E+00  8.00000000E-01  8.00000000E-01  1.50000000E+00
  1.50000000E+00  8.00000000E-01  8.00000000E-01  1.50000000E+00  1.50000000E+00
  8.00000000E-01  8.00000000E-01  1.50000000E+00  1.50000000E+00  8.00000000E-01
  8.00000000E-01  1.50000000E+00  1.50000000E+00  8.00000000E-01  8.00000000E-01
  1.50000000E+00  1.50000000E+00  8.00000000E-01  8.00000000E-01  1.50000000E+00
  1.50000000E+00  8.00000000E-01  8.00000000E-01  1.50000000E+00  1.50000000E+00
  8.00000000E-01  8.00000000E-01  1.50000000E+00  1.50000000E+00  8.00000000E-01
  8.00000000E-01  1.50000000E+00  1.50000000E+00  8.00000000E-01  8.00000000E-01
  1.50000000E+00  1.50000000E+00  8.00000000E-01  8.00000000E-01  1.50000000E+00
  1.50000000E+00  8.00000000E-01  8.00000000E-01  1.50000000E+00  1.50000000E+00
  8.00000000E-01  8.00000000E-01  1.50000000E+00  1.50000000E+00  8.00000000E-01
  8.00000000E-01  1.50000000E+00  1.50000000E+00  8.00000000E-01  8.00000000E-01
  1.50000000E+00  1.50000000E+00  8.00000000E-01  8.00000000E-01  1.50000000E+00
  1.50000000E+00  8.00000000E-01  8.00000000E-01  1.50000000E+00  1.50000000E+00
  8.00000000E-01  8.00000000E-01  1.50000000E+00  1.50000000E+00  8.00000000E-01
  8.00000000E-01  1.50000000E+00  1.50000000E+00  8.00000000E-01  8.00000000E-01
  1.50000000E+00  1.50000000E+00  8.00000000E-01  8.00000000E-01  1.50000000E+00
  1.50000000E+00  8.00000000E-01  8.00000000E-01  1.50000000E+00  1.50000000E+00
  8.00000000E-01  8.00000000E-01  1.50000000E+00  1.50000000E+00  8.00000000E-01
  8.00000000E-01  1.50000000E+00  1.50000000E+00  8.00000000E-01  8.00000000E-01
  1.50000000E+00  1.50000000E+00  8.00000000E-01  8.00000000E-01  1.50000000E+00
  1.50000000E+00  8.00000000E-01  8.00000000E-01  1.50000000E+00  1.50000000E+00
  8.00000000E-01  8.00000000E-01  1.50000000E+00  1.50000000E+00  8.00000000E-01
  8.00000000E-01  1.50000000E+00  1.50000000E+00  8.00000000E-01  8.00000000E-01
  1.50000000E+00  1.50000000E+00  8.00000000E-01  8.00000000E-01  1.50000000E+00
  1.50000000E+00  8.00000000E-01  8.00000000E-01  1.50000000E+00  1.50000000E+00
  8.00000000E-01  8.00000000E-01  1.50000000E+00  1.50000000E+00  8.00000000E-01
  8.00000000E-01  1.50000000E+00  1.50000000E+00  8.00000000E-01  8.00000000E-01
  1.50000000E+00  1.50000000E+00  8.00000000E-01  8.00000000E-01  1.50000000E+00
  1.50000000E+00  8.00000000E-01  8.00000000E-01  1.50000000E+00  1.50000000E+00
  8.00000000E-01  8.00000000E-01  1.50000000E+00  1.50000000E+00  8.00000000E-01
  8.00000000E-01  1.50000000E+00  1.50000000E+00  8.00000000E-01  8.00000000E-01
  1.50000000E+00  1.50000000E+00  8.00000000E-01  8.00000000E-01  1.50000000E+00
  1.50000000E+00  8.00000000E-01  8.00000000E-01  1.50000000E+00  1.50000000E+00
  8.00000000E-01  8.00000000E-01  1.50000000E+00  1.50000000E+00  8.00000000E-01
  8.00000000E-01  1.50000000E+00  1.50000000E+00  8.00000000E-01  8.00000000E-01
  1.50000000E+00  1.50000000E+00  8.00000000E-01  8.00000000E-01  1.50000000E+00
  1.50000000E+00  8.00000000E-01  8.00000000E-01  1.50000000E+00  1.50000000E+00
  8.00000000E-01  8.00000000E-01  1.50000000E+00  1.50000000E+00  8.00000000E-01
  8.00000000E-01  1.50000000E+00  1.50000000E+00  8.00000000E-01  8.00000000E-01
  1.50000000E+00  1.50000000E+00  8.00000000E-01  8.00000000E-01  1.50000000E+00
  1.50000000E+00  8.00000000E-01  8.00000000E-01  1.50000000E+00  1.50000000E+00
  8.00000000E-01  8.00000000E-01  1.50000000E+00  1.50000000E+00  8.00000000E-01
  8.00000000E-01  1.50000000E+00  1.50000000E+00  8.00000000E-01  8.00000000E-01
  1.50000000E+00  1.50000000E+00  8.00000000E-01  8.00000000E-01  1.50000000E+00
  1.50000000E+00  8.00000000E-01  8.00000000E-01  1.50000000E+00  1.50000000E+00
  8.00000000E-01  8.00000000E-01  1.50000000E+00  1.50000000E+00  8.00000000E-01
  8.00000000E-01  1.50000000E+00  1.50000000E+00  8.00000000E-01  8.00000000E-01
  1.50000000E+00  1.50000000E+00  8.00000000E-01  8.00000000E-01  1.50000000E+00
  1.50000000E+00  8.00000000E-01  8.00000000E-01  1.50000000E+00  1.50000000E+00
  8.00000000E-01  8.00000000E-01  1.50000000E+00  1.50000000E+00  8.00000000E-01
  8.00000000E-01  1.50000000E+00  1.50000000E+00  8.00000000E-01  8.00000000E-01
  1.50000000E+00  1.50000000E+00  8.00000000E-01  8.00000000E-01  1.50000000E+00
  1.50000000E+00  8.00000000E-01  8.00000000E-01  1.50000000E+00  1.50000000E+00
  8.00000000E-01  8.00000000E-01  1.50000000E+00  1.50000000E+00  8.00000000E-01
  8.00000000E-01  1.50000000E+00  1.50000000E+00  8.00000000E-01  8.00000000E-01
  1.50000000E+00  1.50000000E+00  8.00000000E-01  8.00000000E-01  1.50000000E+00
  1.50000000E+00  8.00000000E-01  8.00000000E-01  1.50000000E+00  1.50000000E+00
  8.00000000E-01  8.00000000E-01  1.50000000E+00  1.50000000E+00  8.00000000E-01
  8.00000000E-01  1.50000000E+00  1.50000000E+00  8.00000000E-01  8.00000000E-01
  1.50000000E+00  1.50000000E+00  8.00000000E-01  8.00000000E-01  1.50000000E+00
  1.50000000E+00  8.00000000E-01  8.00000000E-01  1.50000000E+00  1.50000000E+00
  8.00000000E-01  8.00000000E-01  1.50000000E+00  1.50000000E+00  8.00000000E-01
  8.00000000E-01  1.50000000E+00  1.50000000E+00  8.00000000E-01  8.00000000E-01
  1.50000000E+00  1.50000000E+00  8.00000000E-01  8.00000000E-01  1.50000000E+00
  1.50000000E+00  8.00000000E-01  8.00000000E-01  1.50000000E+00  1.50000000E+00
  8.00000000E-01  8.00000000E-01  1.50000000E+00  1.50000000E+00  8.00000000E-01
  8.00000000E-01  1.50000000E+00  1.50000000E+00  8.00000000E-01  8.00000000E-01
  1.50000000E+00  1.50000000E+00  8.00000000E-01  8.00000000E-01  1.50000000E+00
  1.50000000E+00  8.00000000E-01  8.00000000E-01  1.50000000E+00  1.50000000E+00
  8.00000000E-01  8.00000000E-01  1.50000000E+00  1.50000000E+00  8.00000000E-01
  8.00000000E-01  1.50000000E+00  1.50000000E+00  8.00000000E-01  8.00000000E-01
  1.50000000E+00  1.50000000E+00  8.00000000E-01  8.00000000E-01  1.50000000E+00
  1.50000000E+00  8.00000000E-01  8.00000000E-01  1.50000000E+00  1.50000000E+00
  8.00000000E-01  8.00000000E-01  1.50000000E+00  1.50000000E+00  8.00000000E-01
  8.00000000E-01  1.50000000E+00  1.50000000E+00  8.00000000E-01  8.00000000E-01
  1.50000000E+00  1.50000000E+00  8.00000000E-01  8.00000000E-01  1.50000000E+00
  1.50000000E+00  8.00000000E-01  8.00000000E-01  1.50000000E+00  1.50000000E+00
  8.00000000E-01  8.00000000E-01  1.50000000E+00  1.50000000E+00  8.00000000E-01
  8.00000000E-01  1.50000000E+00  1.50000000E+00  8.00000000E-01  8.00000000E-01
  1.50000000E+00  1.50000000E+00  8.00000000E-01  8.00000000E-01  1.50000000E+00
  1.50000000E+00  8.00000000E-01  8.00000000E-01  1.50000000E+00  1.50000000E+00
  8.00000000E-01  8.00000000E-01  1.50000000E+00  1.50000000E+00  8.00000000E-01
  8.00000000E-01  1.50000000E+00  1.50000000E+00  8.00000000E-01  8.00000000E-01
  1.50000000E+00  1.50000000E+00  8.00000000E-01  8.00000000E-01  1.50000000E+00
  1.50000000E+00  8.00000000E-01  8.00000000E-01  1.50000000E+00  1.50000000E+00
  8.00000000E-01  8.00000000E-01  1.50000000E+00  1.50000000E+00  8.00000000E-01
  8.00000000E-01  1.50000000E+00  1.50000000E+00  8.00000000E-01  8.00000000E-01
  1.50000000E+00  1.50000000E+00  8.00000000E-01  8.00000000E-01  1.50000000E+00
  1.50000000E+00  8.00000000E-01  8.00000000E-01  1.50000000E+00  1.50000000E+00
  8.00000000E-01  8.00000000E-01  1.50000000E+00  1.50000000E+00  8.00000000E-01
  8.00000000E-01  1.50000000E+00  1.50000000E+00  8.00000000E-01  8.00000000E-01
  1.50000000E+00  1.50000000E+00  8.00000000E-01  8.00000000E-01  1.50000000E+00
  1.50000000E+00  8.00000000E-01  8.00000000E-01  1.50000000E+00  1.50000000E+00
  8.00000000E-01  8.00000000E-01  1.50000000E+00  1.50000000E+00  8.00000000E-01
  8.00000000E-01  1.50000000E+00  1.50000000E+00  8.00000000E-01  8.00000000E-01
  1.50000000E+00  1.50000000E+00  8.00000000E-01  8.00000000E-01  1.50000000E+00
  1.50000000E+00  8.00000000E-01  8.00000000E-01  1.50000000E+00  1.50000000E+00
  8.00000000E-01  8.00000000E-01  1.50000000E+00  1.50000000E+00  8.00000000E-01
  8.00000000E-01  1.50000000E+00  1.50000000E+00  8.00000000E-01  8.00000000E-01
  1.50000000E+00  1.50000000E+00  8.00000000E-01  8.00000000E-01  1.50000000E+00
  1.50000000E+00  8.00000000E-01  8.00000000E-01  1.50000000E+00  1.50000000E+00
  8.00000000E-01  8.00000000E-01  1.50000000E+00  1.50000000E+00  8.00000000E-01
  8.00000000E-01  1.50000000E+00  1.50000000E+00  8.00000000E-01  8.00000000E-01
  1.50000000E+00  1.50000000E+00  8.00000000E-01  8.00000000E-01  1.50000000E+00
  1.50000000E+00  8.00000000E-01  8.00000000E-01  1.50000000E+00  1.50000000E+00
  8.00000000E-01  8.00000000E-01  1.50000000E+00  1.50000000E+00  8.00000000E-01
  8.00000000E-01  1.50000000E+00  1.50000000E+00  8.00000000E-01  8.00000000E-01
  1.50000000E+00  1.50000000E+00  8.00000000E-01  8.00000000E-01  1.50000000E+00
  1.50000000E+00  8.00000000E-01  8.00000000E-01  1.50000000E+00  1.50000000E+00
  8.00000000E-01  8.00000000E-01  1.50000000E+00  1.50000000E+00  8.00000000E-01
  8.00000000E-01  1.50000000E+00  1.50000000E+00  8.00000000E-01  8.00000000E-01
  1.50000000E+00  1.50000000E+00  8.00000000E-01  8.00000000E-01  1.50000000E+00
  1.50000000E+00  8.00000000E-01  8.00000000E-01  1.50000000E+00  1.50000000E+00
  8.00000000E-01  8.00000000E-01  1.50000000E+00  1.50000000E+00  8.00000000E-01
  8.00000000E-01  1.50000000E+00  1.50000000E+00  8.00000000E-01  8.00000000E-01
  1.50000000E+00  1.50000000E+00  8.00000000E-01  8.00000000E-01  1.50000000E+00
  1.50000000E+00  8.00000000E-01  8.00000000E-01  1.50000000E+00  1.50000000E+00
  8.00000000E-01  8.00000000E-01  1.50000000E+00  1.50000000E+00  8.00000000E-01
  8.00000000E-01  1.50000000E+00  1.50000000E+00  8.00000000E-01  8.00000000E-01
  1.50000000E+00  1.50000000E+00  8.00000000E-01  8.00000000E-01  1.50000000E+00
  1.50000000E+00  8.00000000E-01  8.00000000E-01  1.50000000E+00  1.50000000E+00
  8.00000000E-01  8.00000000E-01  1.50000000E+00  1.50000000E+00  8.00000000E-01
  8.00000000E-01  1.50000000E+00  1.50000000E+00  8.00000000E-01  8.00000000E-01
  1.50000000E+00  1.50000000E+00  8.00000000E-01  8.00000000E-01  1.50000000E+00
  1.50000000E+00  8.00000000E-01  8.00000000E-01  1.50000000E+00  1.50000000E+00
  8.00000000E-01  8.00000000E-01  1.50000000E+00  1.50000000E+00  8.00000000E-01
  8.00000000E-01  1.50000000E+00  1.50000000E+00  8.00000000E-01  8.00000000E-01
  1.50000000E+00  1.50000000E+00  8.00000000E-01  8.00000000E-01  1.50000000E+00
  1.50000000E+00  8.00000000E-01  8.00000000E-01  1.50000000E+00  1.50000000E+00
  8.00000000E-01  8.00000000E-01  1.50000000E+00  1.50000000E+00  8.00000000E-01
  8.00000000E-01  1.50000000E+00  1.50000000E+00  8.00000000E-01  8.00000000E-01
  1.50000000E+00  1.50000000E+00  8.00000000E-01  8.00000000E-01  1.50000000E+00
  1.50000000E+00  8.00000000E-01  8.00000000E-01  1.50000000E+00  1.50000000E+00
  8.00000000E-01  8.00000000E-01  1.50000000E+00  1.50000000E+00  8.00000000E-01
  8.00000000E-01  1.50000000E+00  1.50000000E+00  8.00000000E-01  8.00000000E-01
  1.50000000E+00  1.50000000E+00  8.00000000E-01  8.00000000E-01  1.50000000E+00
  1.50000000E+00  8.00000000E-01  8.00000000E-01  1.50000000E+00  1.50000000E+00
  8.00000000E-01  8.00000000E-01  1.50000000E+00  1.50000000E+00  8.00000000E-01
  8.00000000E-01  1.50000000E+00  1.50000000E+00  8.00000000E-01  8.00000000E-01
  1.50000000E+00  1.50000000E+00  8.00000000E-01  8.00000000E-01  1.50000000E+00
  1.50000000E+00  8.00000000E-01  8.00000000E-01  1.50000000E+00  1.50000000E+00
  8.00000000E-01  8.00000000E-01  1.50000000E+00  1.50000000E+00  8.00000000E-01
  8.00000000E-01  1.50000000E+00  1.50000000E+00  8.00000000E-01  8.00000000E-01
  1.50000000E+00  1.50000000E+00  8.00000000E-01  8.00000000E-01  1.50000000E+00
  1.50000000E+00  8.00000000E-01  8.00000000E-01  1.50000000E+00  1.50000000E+00
  8.00000000E-01  8.00000000E-01  1.50000000E+00  1.50000000E+00  8.00000000E-01
  8.00000000E-01  1.50000000E+00  1.50000000E+00  8.00000000E-01  8.00000000E-01
  1.50000000E+00  1.50000000E+00  8.00000000E-01  8.00000000E-01  1.50000000E+00
  1.50000000E+00  8.00000000E-01  8.00000000E-01  1.50000000E+00  1.50000000E+00
  8.00000000E-01  8.00000000E-01  1.50000000E+00  1.50000000E+00  8.00000000E-01
  8.00000000E-01  1.50000000E+00  1.50000000E+00  8.00000000E-01  8.00000000E-01
  1.50000000E+00  1.50000000E+00  8.00000000E-01  8.00000000E-01  1.50000000E+00
  1.50000000E+00  8.00000000E-01  8.00000000E-01  1.50000000E+00  1.50000000E+00
  8.00000000E-01  8.00000000E-01  1.50000000E+00  1.50000000E+00  8.00000000E-01
  8.00000000E-01  1.50000000E+00  1.50000000E+00  8.00000000E-01  8.00000000E-01
  1.50000000E+00  1.50000000E+00  8.00000000E-01  8.00000000E-01  1.50000000E+00
  1.50000000E+00  8.00000000E-01  8.00000000E-01  1.50000000E+00  1.50000000E+00
  8.00000000E-01  8.00000000E-01  1.50000000E+00  1.50000000E+00  8.00000000E-01
  8.00000000E-01  1.50000000E+00  1.50000000E+00  8.00000000E-01  8.00000000E-01
  1.50000000E+00  1.50000000E+00  8.00000000E-01  8.00000000E-01  1.50000000E+00
  1.50000000E+00  8.00000000E-01  8.00000000E-01  1.50000000E+00  1.50000000E+00
  8.00000000E-01  8.00000000E-01  1.50000000E+00  1.50000000E+00  8.00000000E-01
  8.00000000E-01  1.50000000E+00  1.50000000E+00  8.00000000E-01  8.00000000E-01
  1.50000000E+00  1.50000000E+00  8.00000000E-01  8.00000000E-01  1.50000000E+00
  1.50000000E+00  8.00000000E-01  8.00000000E-01  1.50000000E+00  1.50000000E+00
  8.00000000E-01  8.00000000E-01  1.50000000E+00  1.50000000E+00  8.00000000E-01
  8.00000000E-01  1.50000000E+00  1.50000000E+00  8.00000000E-01  8.00000000E-01
  1.50000000E+00  1.50000000E+00  8.00000000E-01  8.00000000E-01  1.50000000E+00
  1.50000000E+00  8.00000000E-01  8.00000000E-01  1.50000000E+00  1.50000000E+00
  8.00000000E-01  8.00000000E-01  1.50000000E+00  1.50000000E+00  8.00000000E-01
  8.00000000E-01  1.50000000E+00  1.50000000E+00  8.00000000E-01  8.00000000E-01
  1.50000000E+00  1.50000000E+00  8.00000000E-01  8.00000000E-01  1.50000000E+00
  1.50000000E+00  8.00000000E-01  8.00000000E-01  1.50000000E+00  1.50000000E+00
  8.00000000E-01  8.00000000E-01  1.50000000E+00  1.50000000E+00  8.00000000E-01
  8.00000000E-01  1.50000000E+00  1.50000000E+00  8.00000000E-01  8.00000000E-01
  1.50000000E+00  1.50000000E+00  8.00000000E-01  8.00000000E-01  1.50000000E+00
  1.50000000E+00  8.00000000E-01  8.00000000E-01  1.50000000E+00  1.50000000E+00
  8.00000000E-01  8.00000000E-01  1.50000000E+00  1.50000000E+00  8.00000000E-01
  8.00000000E-01  1.50000000E+00  1.50000000E+00  8.00000000E-01  8.00000000E-01
  1.50000000E+00  1.50000000E+00  8.00000000E-01  8.00000000E-01  1.50000000E+00
  1.50000000E+00  8.00000000E-01  8.00000000E-01  1.50000000E+00  1.50000000E+00
  8.00000000E-01  8.00000000E-01  1.50000000E+00  1.50000000E+00  8.00000000E-01
  8.00000000E-01  1.50000000E+00  1.50000000E+00  8.00000000E-01  8.00000000E-01
  1.50000000E+00  1.50000000E+00  8.00000000E-01  8.00000000E-01  1.50000000E+00
  1.50000000E+00  8.00000000E-01  8.00000000E-01  1.50000000E+00  1.50000000E+00
  8.00000000E-01  8.00000000E-01  1.50000000E+00  1.50000000E+00  8.00000000E-01
  8.00000000E-01  1.50000000E+00  1.50000000E+00  8.00000000E-01  8.00000000E-01
  1.50000000E+00  1.50000000E+00  8.00000000E-01  8.00000000E-01  1.50000000E+00
  1.50000000E+00  8.00000000E-01  8.00000000E-01  1.50000000E+00  1.50000000E+00
  8.00000000E-01  8.00000000E-01  1.50000000E+00  1.50000000E+00  8.00000000E-01
  8.00000000E-01  1.50000000E+00  1.50000000E+00  8.00000000E-01  8.00000000E-01
  1.50000000E+00  1.50000000E+00  8.00000000E-01  8.00000000E-01  1.50000000E+00
  1.50000000E+00  8.00000000E-01  8.00000000E-01  1.50000000E+00  1.50000000E+00
  8.00000000E-01  8.00000000E-01  1.50000000E+00  1.50000000E+00  8.00000000E-01
  8.00000000E-01  1.50000000E+00  1.50000000E+00  8.00000000E-01  8.00000000E-01
  1.50000000E+00  1.50000000E+00  8.00000000E-01  8.00000000E-01  1.50000000E+00
  1.50000000E+00  8.00000000E-01  8.00000000E-01  1.50000000E+00  1.50000000E+00
  8.00000000E-01  8.00000000E-01  1.50000000E+00  1.50000000E+00  8.00000000E-01
  8.00000000E-01  1.50000000E+00  1.50000000E+00  8.00000000E-01  8.00000000E-01
  1.50000000E+00  1.50000000E+00  8.00000000E-01  8.00000000E-01  1.50000000E+00
  1.50000000E+00  8.00000000E-01  8.00000000E-01  1.50000000E+00  1.50000000E+00
  8.00000000E-01  8.00000000E-01  1.50000000E+00  1.50000000E+00  8.00000000E-01
  8.00000000E-01  1.50000000E+00  1.50000000E+00  8.00000000E-01  8.00000000E-01
  1.50000000E+00  1.50000000E+00  8.00000000E-01  8.00000000E-01  1.50000000E+00
  1.50000000E+00  8.00000000E-01  8.00000000E-01  1.50000000E+00  1.50000000E+00
  8.00000000E-01  8.00000000E-01  1.50000000E+00  1.50000000E+00  8.00000000E-01
  8.00000000E-01  1.50000000E+00  1.50000000E+00  8.00000000E-01  8.00000000E-01
  1.50000000E+00  1.50000000E+00  8.00000000E-01  8.00000000E-01  1.50000000E+00
  1.50000000E+00  8.00000000E-01  8.00000000E-01  1.50000000E+00  1.50000000E+00
  8.00000000E-01  8.00000000E-01  1.50000000E+00  1.50000000E+00  8.00000000E-01
  8.00000000E-01  1.50000000E+00  1.50000000E+00  8.00000000E-01  8.00000000E-01
  1.50000000E+00  1.50000000E+00  8.00000000E-01  8.00000000E-01  1.50000000E+00
  1.50000000E+00  8.00000000E-01  8.00000000E-01  1.50000000E+00  1.50000000E+00
  8.00000000E-01  8.00000000E-01  1.50000000E+00  1.50000000E+00  8.00000000E-01
  8.00000000E-01  1.50000000E+00  1.50000000E+00  8.00000000E-01  8.00000000E-01
  1.50000000E+00  1.50000000E+00  8.00000000E-01  8.00000000E-01  1.50000000E+00
  1.50000000E+00  8.00000000E-01  8.00000000E-01  1.50000000E+00  1.50000000E+00
  8.00000000E-01  8.00000000E-01  1.50000000E+00  1.50000000E+00  8.00000000E-01
  8.00000000E-01  1.50000000E+00  1.50000000E+00  8.00000000E-01  8.00000000E-01
  1.50000000E+00  1.50000000E+00  8.00000000E-01  8.00000000E-01  1.50000000E+00
  1.50000000E+00  8.00000000E-01  8.00000000E-01  1.50000000E+00  1.50000000E+00
  8.00000000E-01  8.00000000E-01  1.50000000E+00  1.50000000E+00  8.00000000E-01
  8.00000000E-01  1.50000000E+00  1.50000000E+00  8.00000000E-01  8.00000000E-01
  1.50000000E+00  1.50000000E+00  8.00000000E-01  8.00000000E-01  1.50000000E+00
  1.50000000E+00  8.00000000E-01  8.00000000E-01  1.50000000E+00  1.50000000E+00
  8.00000000E-01  8.00000000E-01  1.50000000E+00  1.50000000E+00  8.00000000E-01
  8.00000000E-01  1.50000000E+00  1.50000000E+00  8.00000000E-01  8.00000000E-01
  1.50000000E+00  1.50000000E+00  8.00000000E-01  8.00000000E-01  1.50000000E+00
  1.50000000E+00  8.00000000E-01  8.00000000E-01  1.50000000E+00  1.50000000E+00
  8.00000000E-01  8.00000000E-01  1.50000000E+00  1.50000000E+00  8.00000000E-01
  8.00000000E-01  1.50000000E+00  1.50000000E+00  8.00000000E-01  8.00000000E-01
  1.50000000E+00  1.50000000E+00  8.00000000E-01  8.00000000E-01  1.50000000E+00
  1.50000000E+00  8.00000000E-01  8.00000000E-01  1.50000000E+00  1.50000000E+00
  8.00000000E-01  8.00000000E-01  1.50000000E+00  1.50000000E+00  8.00000000E-01
  8.00000000E-01  1.50000000E+00  1.50000000E+00  8.00000000E-01  8.00000000E-01
  1.50000000E+00  1.50000000E+00  8.00000000E-01  8.00000000E-01  1.50000000E+00
  1.50000000E+00  8.00000000E-01  8.00000000E-01  1.50000000E+00  1.50000000E+00
  8.00000000E-01  8.00000000E-01  1.50000000E+00  1.50000000E+00  8.00000000E-01
  8.00000000E-01  1.50000000E+00  1.50000000E+00  8.00000000E-01  8.00000000E-01
  1.50000000E+00  1.50000000E+00  8.00000000E-01  8.00000000E-01  1.50000000E+00
  1.50000000E+00  8.00000000E-01  8.00000000E-01  1.50000000E+00  1.50000000E+00
  8.00000000E-01  8.00000000E-01  1.50000000E+00  1.50000000E+00  8.00000000E-01
  8.00000000E-01  1.50000000E+00  1.50000000E+00  8.00000000E-01  8.00000000E-01
  1.50000000E+00  1.50000000E+00  8.00000000E-01  8.00000000E-01  1.50000000E+00
  1.50000000E+00  8.00000000E-01  8.00000000E-01  1.50000000E+00  1.50000000E+00
  8.00000000E-01  8.00000000E-01  1.50000000E+00  1.50000000E+00  8.00000000E-01
  8.00000000E-01  1.50000000E+00  1.50000000E+00  8.00000000E-01  8.00000000E-01
  1.50000000E+00  1.50000000E+00  8.00000000E-01  8.00000000E-01  1.50000000E+00
  1.50000000E+00  8.00000000E-01  8.00000000E-01  1.50000000E+00  1.50000000E+00
  8.00000000E-01  8.00000000E-01  1.50000000E+00  1.50000000E+00  8.00000000E-01
  8.00000000E-01  1.50000000E+00  1.50000000E+00  8.00000000E-01  8.00000000E-01
  1.50000000E+00  1.50000000E+00  8.00000000E-01  8.00000000E-01  1.50000000E+00
  1.50000000E+00  8.00000000E-01  8.00000000E-01  1.50000000E+00  1.50000000E+00
  8.00000000E-01  8.00000000E-01  1.50000000E+00  1.50000000E+00  8.00000000E-01
  8.00000000E-01  1.50000000E+00  1.50000000E+00  8.00000000E-01  8.00000000E-01
  1.50000000E+00  1.50000000E+00  8.00000000E-01  8.00000000E-01  1.50000000E+00
  1.50000000E+00  8.00000000E-01  8.00000000E-01  1.50000000E+00  1.50000000E+00
  8.00000000E-01  8.00000000E-01  1.50000000E+00  1.50000000E+00  8.00000000E-01
  8.00000000E-01  1.50000000E+00  1.50000000E+00  8.00000000E-01  8.00000000E-01
  1.50000000E+00  1.50000000E+00  8.00000000E-01  8.00000000E-01  1.50000000E+00
  1.50000000E+00  8.00000000E-01  8.00000000E-01  1.50000000E+00  1.50000000E+00
  8.00000000E-01  8.00000000E-01  1.50000000E+00  1.50000000E+00  8.00000000E-01
  8.00000000E-01  1.50000000E+00  1.50000000E+00  8.00000000E-01  8.00000000E-01
  1.50000000E+00  1.50000000E+00  8.00000000E-01  8.00000000E-01  1.50000000E+00
  1.50000000E+00  8.00000000E-01  8.00000000E-01  1.50000000E+00  1.50000000E+00
  8.00000000E-01  8.00000000E-01  1.50000000E+00  1.50000000E+00  8.00000000E-01
  8.00000000E-01  1.50000000E+00  1.50000000E+00  8.00000000E-01  8.00000000E-01
  1.50000000E+00  1.50000000E+00  8.00000000E-01  8.00000000E-01  1.50000000E+00
  1.50000000E+00  8.00000000E-01  8.00000000E-01  1.50000000E+00  1.50000000E+00
  8.00000000E-01  8.00000000E-01  1.50000000E+00  1.50000000E+00  8.00000000E-01
  8.00000000E-01  1.50000000E+00  1.50000000E+00  8.00000000E-01  8.00000000E-01
  1.50000000E+00  1.50000000E+00  8.00000000E-01  8.00000000E-01  1.50000000E+00
  1.50000000E+00  8.00000000E-01  8.00000000E-01  1.50000000E+00  1.50000000E+00
  8.00000000E-01  8.00000000E-01  1.50000000E+00  1.50000000E+00  8.00000000E-01
  8.00000000E-01  1.50000000E+00  1.50000000E+00  8.00000000E-01  8.00000000E-01
  1.50000000E+00  1.50000000E+00  8.00000000E-01  8.00000000E-01  1.50000000E+00
  1.50000000E+00  8.00000000E-01  8.00000000E-01  1.50000000E+00  1.50000000E+00
  8.00000000E-01  8.00000000E-01  1.50000000E+00  1.50000000E+00  8.00000000E-01
  8.00000000E-01  1.50000000E+00  1.50000000E+00  8.00000000E-01  8.00000000E-01
  1.50000000E+00  1.50000000E+00  8.00000000E-01  8.00000000E-01  1.50000000E+00
  1.50000000E+00  8.00000000E-01  8.00000000E-01  1.50000000E+00  1.50000000E+00
  8.00000000E-01  8.00000000E-01  1.50000000E+00  1.50000000E+00  8.00000000E-01
  8.00000000E-01  1.50000000E+00  1.50000000E+00  8.00000000E-01  8.00000000E-01
  1.50000000E+00  1.50000000E+00  8.00000000E-01  8.00000000E-01  1.50000000E+00
  1.50000000E+00  8.00000000E-01  8.00000000E-01  1.50000000E+00  1.50000000E+00
  8.00000000E-01  8.00000000E-01  1.50000000E+00  1.50000000E+00  8.00000000E-01
  8.00000000E-01  1.50000000E+00  1.50000000E+00  8.00000000E-01  8.00000000E-01
  1.50000000E+00  1.50000000E+00  8.00000000E-01  8.00000000E-01  1.50000000E+00
  1.50000000E+00  8.00000000E-01  8.00000000E-01  1.50000000E+00  1.50000000E+00
  8.00000000E-01  8.00000000E-01  1.50000000E+00  1.50000000E+00  8.00000000E-01
  8.00000000E-01  1.50000000E+00  1.50000000E+00  8.00000000E-01  8.00000000E-01
  1.50000000E+00  1.50000000E+00  8.00000000E-01  8.00000000E-01  1.50000000E+00
  1.50000000E+00  8.00000000E-01  8.00000000E-01  1.50000000E+00  1.50000000E+00
  8.00000000E-01  8.00000000E-01  1.50000000E+00  1.50000000E+00  8.00000000E-01
  8.00000000E-01  1.50000000E+00  1.50000000E+00  8.00000000E-01  8.00000000E-01
  1.50000000E+00  1.50000000E+00  8.00000000E-01  8.00000000E-01  1.50000000E+00
  1.50000000E+00  8.00000000E-01  8.00000000E-01  1.50000000E+00  1.50000000E+00
  8.00000000E-01  8.00000000E-01  1.50000000E+00  1.50000000E+00  8.00000000E-01
  8.00000000E-01  1.50000000E+00  1.50000000E+00  8.00000000E-01  8.00000000E-01
  1.50000000E+00  1.50000000E+00  8.00000000E-01  8.00000000E-01  1.50000000E+00
  1.50000000E+00  8.00000000E-01  8.00000000E-01  1.50000000E+00  1.50000000E+00
  8.00000000E-01  8.00000000E-01  1.50000000E+00  1.50000000E+00  8.00000000E-01
  8.00000000E-01  1.50000000E+00  1.50000000E+00  8.00000000E-01  8.00000000E-01
  1.50000000E+00  1.50000000E+00  8.00000000E-01  8.00000000E-01  1.50000000E+00
  1.50000000E+00  8.00000000E-01  8.00000000E-01  1.50000000E+00  1.50000000E+00
  8.00000000E-01  8.00000000E-01  1.50000000E+00  1.50000000E+00  8.00000000E-01
  8.00000000E-01  1.50000000E+00  1.50000000E+00  8.00000000E-01  8.00000000E-01
  1.50000000E+00  1.50000000E+00  8.00000000E-01  8.00000000E-01  1.50000000E+00
  1.50000000E+00  8.00000000E-01  8.00000000E-01  1.50000000E+00  1.50000000E+00
  8.00000000E-01  8.00000000E-01  1.50000000E+00  1.50000000E+00  8.00000000E-01
  8.00000000E-01  1.50000000E+00  1.50000000E+00  8.00000000E-01  8.00000000E-01
  1.50000000E+00  1.50000000E+00  8.00000000E-01  8.00000000E-01  1.50000000E+00
  1.50000000E+00  8.00000000E-01  8.00000000E-01  1.50000000E+00  1.50000000E+00
  8.00000000E-01  8.00000000E-01  1.50000000E+00  1.50000000E+00  8.00000000E-01
  8.00000000E-01  1.50000000E+00  1.50000000E+00  8.00000000E-01  8.00000000E-01
  1.50000000E+00  1.50000000E+00  8.00000000E-01  8.00000000E-01  1.50000000E+00
  1.50000000E+00  8.00000000E-01  8.00000000E-01  1.50000000E+00  1.50000000E+00
  8.00000000E-01  8.00000000E-01  1.50000000E+00  1.50000000E+00  8.00000000E-01
  8.00000000E-01  1.50000000E+00  1.50000000E+00  8.00000000E-01  8.00000000E-01
  1.50000000E+00  1.50000000E+00  8.00000000E-01  8.00000000E-01  1.50000000E+00
  1.50000000E+00  8.00000000E-01  8.00000000E-01  1.50000000E+00  1.50000000E+00
  8.00000000E-01  8.00000000E-01  1.50000000E+00  1.50000000E+00  8.00000000E-01
  8.00000000E-01  1.50000000E+00  1.50000000E+00  8.00000000E-01  8.00000000E-01
  1.50000000E+00  1.50000000E+00  8.00000000E-01  8.00000000E-01  1.50000000E+00
  1.50000000E+00  8.00000000E-01  8.00000000E-01  1.50000000E+00  1.50000000E+00
  8.00000000E-01  8.00000000E-01  1.50000000E+00  1.50000000E+00  8.00000000E-01
  8.00000000E-01  1.50000000E+00  1.50000000E+00  8.00000000E-01  8.00000000E-01
  1.50000000E+00  1.50000000E+00  8.00000000E-01  8.00000000E-01  1.50000000E+00
  1.50000000E+00  8.00000000E-01  8.00000000E-01  1.50000000E+00  1.50000000E+00
  8.00000000E-01  8.00000000E-01  1.50000000E+00  1.50000000E+00  8.00000000E-01
  8.00000000E-01  1.50000000E+00  1.50000000E+00  8.00000000E-01  8.00000000E-01
  1.50000000E+00  1.50000000E+00  8.00000000E-01  8.00000000E-01  1.50000000E+00
  1.50000000E+00  8.00000000E-01  8.00000000E-01  1.50000000E+00  1.50000000E+00
  8.00000000E-01  8.00000000E-01  1.50000000E+00  1.50000000E+00  8.00000000E-01
  8.00000000E-01  1.50000000E+00  1.50000000E+00  8.00000000E-01  8.00000000E-01
  1.50000000E+00  1.50000000E+00  8.00000000E-01  8.00000000E-01  1.50000000E+00
  1.50000000E+00  8.00000000E-01  8.00000000E-01  1.50000000E+00  1.50000000E+00
  8.00000000E-01  8.00000000E-01  1.50000000E+00  1.50000000E+00  8.00000000E-01
  8.00000000E-01  1.50000000E+00  1.50000000E+00  8.00000000E-01  8.00000000E-01
  1.50000000E+00  1.50000000E+00  8.00000000E-01  8.00000000E-01  1.50000000E+00
  1.50000000E+00  8.00000000E-01  8.00000000E-01  1.50000000E+00  1.50000000E+00
  8.00000000E-01  8.00000000E-01  1.50000000E+00  1.50000000E+00  8.00000000E-01
  8.00000000E-01  1.50000000E+00  1.50000000E+00  8.00000000E-01  8.00000000E-01
  1.50000000E+00  1.50000000E+00  8.00000000E-01  8.00000000E-01  1.50000000E+00
  1.50000000E+00  8.00000000E-01  8.00000000E-01  1.50000000E+00  1.50000000E+00
  8.00000000E-01  8.00000000E-01  1.50000000E+00  1.50000000E+00  8.00000000E-01
  8.00000000E-01  1.50000000E+00  1.50000000E+00  8.00000000E-01  8.00000000E-01
  1.50000000E+00  1.50000000E+00  8.00000000E-01  8.00000000E-01  1.50000000E+00
  1.50000000E+00  8.00000000E-01  8.00000000E-01  1.50000000E+00  1.50000000E+00
  8.00000000E-01  8.00000000E-01  1.50000000E+00  1.50000000E+00  8.00000000E-01
  8.00000000E-01  1.50000000E+00  1.50000000E+00  8.00000000E-01  8.00000000E-01
  1.50000000E+00  1.50000000E+00  8.00000000E-01  8.00000000E-01  1.50000000E+00
  1.50000000E+00  8.00000000E-01  8.00000000E-01  1.50000000E+00  1.50000000E+00
  8.00000000E-01  8.00000000E-01  1.50000000E+00  1.50000000E+00  8.00000000E-01
  8.00000000E-01  1.50000000E+00  1.50000000E+00  8.00000000E-01  8.00000000E-01
  1.50000000E+00  1.50000000E+00  8.00000000E-01  8.00000000E-01  1.50000000E+00
  1.50000000E+00  8.00000000E-01  8.00000000E-01  1.50000000E+00  1.50000000E+00
  8.00000000E-01  8.00000000E-01  1.50000000E+00  1.50000000E+00  8.00000000E-01
  8.00000000E-01  1.50000000E+00  1.50000000E+00  8.00000000E-01  8.00000000E-01
  1.50000000E+00  1.50000000E+00  8.00000000E-01  8.00000000E-01  1.50000000E+00
  1.50000000E+00  8.00000000E-01  8.00000000E-01  1.50000000E+00  1.50000000E+00
  8.00000000E-01  8.00000000E-01  1.50000000E+00  1.50000000E+00  8.00000000E-01
  8.00000000E-01  1.50000000E+00  1.50000000E+00  8.00000000E-01  8.00000000E-01
  1.50000000E+00  1.50000000E+00  8.00000000E-01  8.00000000E-01  1.50000000E+00
  1.50000000E+00  8.00000000E-01  8.00000000E-01  1.50000000E+00  1.50000000E+00
  8.00000000E-01  8.00000000E-01  1.50000000E+00  1.50000000E+00  8.00000000E-01
  8.00000000E-01  1.50000000E+00  1.50000000E+00  8.00000000E-01  8.00000000E-01
  1.50000000E+00  1.50000000E+00  8.00000000E-01  8.00000000E-01  1.50000000E+00
  1.50000000E+00  8.00000000E-01  8.00000000E-01  1.50000000E+00  1.50000000E+00
  8.00000000E-01  8.00000000E-01  1.50000000E+00  1.50000000E+00  8.00000000E-01
  8.00000000E-01  1.50000000E+00  1.50000000E+00  8.00000000E-01  8.00000000E-01
  1.50000000E+00  1.50000000E+00  8.00000000E-01  8.00000000E-01  1.50000000E+00
  1.50000000E+00  8.00000000E-01  8.00000000E-01  1.50000000E+00  1.50000000E+00
  8.00000000E-01  8.00000000E-01  1.50000000E+00  1.50000000E+00  8.00000000E-01
  8.00000000E-01  1.50000000E+00  1.50000000E+00  8.00000000E-01  8.00000000E-01
  1.50000000E+00  1.50000000E+00  8.00000000E-01  8.00000000E-01  1.50000000E+00
  1.50000000E+00  8.00000000E-01  8.00000000E-01  1.50000000E+00  1.50000000E+00
  8.00000000E-01  8.00000000E-01  1.50000000E+00  1.50000000E+00  8.00000000E-01
  8.00000000E-01  1.50000000E+00  1.50000000E+00  8.00000000E-01  8.00000000E-01
  1.50000000E+00  1.50000000E+00  8.00000000E-01  8.00000000E-01  1.50000000E+00
  1.50000000E+00  8.00000000E-01  8.00000000E-01  1.50000000E+00  1.50000000E+00
  8.00000000E-01  8.00000000E-01  1.50000000E+00  1.50000000E+00  8.00000000E-01
  8.00000000E-01  1.50000000E+00  1.50000000E+00  8.00000000E-01  8.00000000E-01
  1.50000000E+00  1.50000000E+00  8.00000000E-01  8.00000000E-01  1.50000000E+00
  1.50000000E+00  8.00000000E-01  8.00000000E-01  1.50000000E+00  1.50000000E+00
  8.00000000E-01  8.00000000E-01  1.50000000E+00  1.50000000E+00  8.00000000E-01
  8.00000000E-01  1.50000000E+00  1.50000000E+00  8.00000000E-01  8.00000000E-01
  1.50000000E+00  1.50000000E+00  8.00000000E-01  8.00000000E-01  1.50000000E+00
  1.50000000E+00  8.00000000E-01  8.00000000E-01  1.50000000E+00  1.50000000E+00
  8.00000000E-01  8.00000000E-01  1.50000000E+00  1.50000000E+00  8.00000000E-01
  8.00000000E-01  1.50000000E+00  1.50000000E+00  8.00000000E-01  8.00000000E-01
  1.50000000E+00  1.50000000E+00  8.00000000E-01  8.00000000E-01  1.50000000E+00
  1.50000000E+00  8.00000000E-01  8.00000000E-01  1.50000000E+00  1.50000000E+00
  8.00000000E-01  8.00000000E-01  1.50000000E+00  1.50000000E+00  8.00000000E-01
  8.00000000E-01  1.50000000E+00  1.50000000E+00  8.00000000E-01  8.00000000E-01
  1.50000000E+00  1.50000000E+00  8.00000000E-01  8.00000000E-01  1.50000000E+00
  1.50000000E+00  8.00000000E-01  8.00000000E-01  1.50000000E+00  1.50000000E+00
  8.00000000E-01  8.00000000E-01  1.50000000E+00  1.50000000E+00  8.00000000E-01
  8.00000000E-01  1.50000000E+00  1.50000000E+00  8.00000000E-01  8.00000000E-01
  1.50000000E+00  1.50000000E+00  8.00000000E-01  8.00000000E-01  1.50000000E+00
  1.50000000E+00  8.00000000E-01  8.00000000E-01  1.50000000E+00  1.50000000E+00
  8.00000000E-01  8.00000000E-01  1.50000000E+00  1.50000000E+00  8.00000000E-01
  8.00000000E-01  1.50000000E+00  1.50000000E+00  8.00000000E-01  8.00000000E-01
  1.50000000E+00  1.50000000E+00  8.00000000E-01  8.00000000E-01  1.50000000E+00
  1.50000000E+00  8.00000000E-01  8.00000000E-01  1.50000000E+00  1.50000000E+00
  8.00000000E-01  8.00000000E-01  1.50000000E+00  1.50000000E+00  8.00000000E-01
  8.00000000E-01  1.50000000E+00  1.50000000E+00  8.00000000E-01  8.00000000E-01
  1.50000000E+00  1.50000000E+00  8.00000000E-01  8.00000000E-01  1.50000000E+00
  1.50000000E+00  8.00000000E-01  8.00000000E-01  1.50000000E+00  1.50000000E+00
  8.00000000E-01  8.00000000E-01  1.50000000E+00  1.50000000E+00  8.00000000E-01
  8.00000000E-01  1.50000000E+00  1.50000000E+00  8.00000000E-01  8.00000000E-01
  1.50000000E+00  1.50000000E+00  8.00000000E-01  8.00000000E-01  1.50000000E+00
  1.50000000E+00  8.00000000E-01  8.00000000E-01  1.50000000E+00  1.50000000E+00
  8.00000000E-01  8.00000000E-01  1.50000000E+00  1.50000000E+00  8.00000000E-01
  8.00000000E-01  1.50000000E+00  1.50000000E+00  8.00000000E-01  8.00000000E-01
  1.50000000E+00  1.50000000E+00  8.00000000E-01  8.00000000E-01  1.50000000E+00
  1.50000000E+00  8.00000000E-01  8.00000000E-01  1.50000000E+00  1.50000000E+00
  8.00000000E-01  8.00000000E-01  1.50000000E+00  1.50000000E+00  8.00000000E-01
  8.00000000E-01  1.50000000E+00  1.50000000E+00  8.00000000E-01  8.00000000E-01
  1.50000000E+00  1.50000000E+00  8.00000000E-01  8.00000000E-01  1.50000000E+00
  1.50000000E+00  8.00000000E-01  8.00000000E-01  1.50000000E+00  1.50000000E+00
  8.00000000E-01  8.00000000E-01  1.50000000E+00  1.50000000E+00  8.00000000E-01
  8.00000000E-01  1.50000000E+00  1.50000000E+00  8.00000000E-01  8.00000000E-01
  1.50000000E+00  1.50000000E+00  8.00000000E-01  8.00000000E-01  1.50000000E+00
  1.50000000E+00  8.00000000E-01  8.00000000E-01  1.50000000E+00  1.50000000E+00
  8.00000000E-01  8.00000000E-01  1.50000000E+00  1.50000000E+00  8.00000000E-01
  8.00000000E-01  1.50000000E+00  1.50000000E+00  8.00000000E-01  8.00000000E-01
  1.50000000E+00  1.50000000E+00  8.00000000E-01  8.00000000E-01  1.50000000E+00
  1.50000000E+00  8.00000000E-01  8.00000000E-01  1.50000000E+00  1.50000000E+00
  8.00000000E-01  8.00000000E-01  1.50000000E+00  1.50000000E+00  8.00000000E-01
  8.00000000E-01  1.50000000E+00  1.50000000E+00  8.00000000E-01  8.00000000E-01
  1.50000000E+00  1.50000000E+00  8.00000000E-01  8.00000000E-01  1.50000000E+00
  1.50000000E+00  8.00000000E-01  8.00000000E-01  1.50000000E+00  1.50000000E+00
  8.00000000E-01  8.00000000E-01  1.50000000E+00  1.50000000E+00  8.00000000E-01
  8.00000000E-01  1.50000000E+00  1.50000000E+00  8.00000000E-01  8.00000000E-01
  1.50000000E+00  1.50000000E+00  8.00000000E-01  8.00000000E-01  1.50000000E+00
  1.50000000E+00  8.00000000E-01  8.00000000E-01  1.50000000E+00  1.50000000E+00
  8.00000000E-01  8.00000000E-01  1.50000000E+00  1.50000000E+00  8.00000000E-01
  8.00000000E-01  1.50000000E+00  1.50000000E+00  8.00000000E-01  8.00000000E-01
  1.50000000E+00  1.50000000E+00  8.00000000E-01  8.00000000E-01  1.50000000E+00
  1.50000000E+00  8.00000000E-01  8.00000000E-01  1.50000000E+00  1.50000000E+00
  8.00000000E-01  8.00000000E-01  1.50000000E+00  1.50000000E+00  8.00000000E-01
  8.00000000E-01  1.50000000E+00  1.50000000E+00  8.00000000E-01  8.00000000E-01
  1.50000000E+00  1.50000000E+00  8.00000000E-01  8.00000000E-01  1.50000000E+00
  1.50000000E+00  8.00000000E-01  8.00000000E-01  1.50000000E+00  1.50000000E+00
  8.00000000E-01  8.00000000E-01  1.50000000E+00  1.50000000E+00  8.00000000E-01
  8.00000000E-01  1.50000000E+00  1.50000000E+00  8.00000000E-01  8.00000000E-01
  1.50000000E+00  1.50000000E+00  8.00000000E-01  8.00000000E-01  1.50000000E+00
  1.50000000E+00  8.00000000E-01  8.00000000E-01  1.50000000E+00  1.50000000E+00
  8.00000000E-01  8.00000000E-01  1.50000000E+00  1.50000000E+00  8.00000000E-01
  8.00000000E-01  1.50000000E+00  1.50000000E+00  8.00000000E-01  8.00000000E-01
  1.50000000E+00  1.50000000E+00  8.00000000E-01  8.00000000E-01  1.50000000E+00
  1.50000000E+00  8.00000000E-01  8.00000000E-01  1.50000000E+00  1.50000000E+00
  8.00000000E-01  8.00000000E-01  1.50000000E+00  1.50000000E+00  8.00000000E-01
  8.00000000E-01  1.50000000E+00  1.50000000E+00  8.00000000E-01  8.00000000E-01
  1.50000000E+00  1.50000000E+00  8.00000000E-01  8.00000000E-01  1.50000000E+00
  1.50000000E+00  8.00000000E-01  8.00000000E-01  1.50000000E+00  1.50000000E+00
  8.00000000E-01  8.00000000E-01  1.50000000E+00  1.50000000E+00  8.00000000E-01
  8.00000000E-01  1.50000000E+00  1.50000000E+00  8.00000000E-01  8.00000000E-01
  1.50000000E+00  1.50000000E+00  8.00000000E-01  8.00000000E-01  1.50000000E+00
  1.50000000E+00  8.00000000E-01  8.00000000E-01  1.50000000E+00  1.50000000E+00
  8.00000000E-01  8.00000000E-01  1.50000000E+00  1.50000000E+00  8.00000000E-01
  8.00000000E-01  1.50000000E+00  1.50000000E+00  8.00000000E-01  8.00000000E-01
  1.50000000E+00  1.50000000E+00  8.00000000E-01  8.00000000E-01  1.50000000E+00
  1.50000000E+00  8.00000000E-01  8.00000000E-01  1.50000000E+00  1.50000000E+00
  8.00000000E-01  8.00000000E-01  1.50000000E+00  1.50000000E+00  8.00000000E-01
  8.00000000E-01  1.50000000E+00  1.50000000E+00  8.00000000E-01  8.00000000E-01
  1.50000000E+00  1.50000000E+00  8.00000000E-01  8.00000000E-01  1.50000000E+00
  1.50000000E+00  8.00000000E-01  8.00000000E-01  1.50000000E+00  1.50000000E+00
  8.00000000E-01  8.00000000E-01  1.50000000E+00  1.50000000E+00  8.00000000E-01
  8.00000000E-01  1.50000000E+00  1.50000000E+00  8.00000000E-01  8.00000000E-01
  1.50000000E+00  1.50000000E+00  8.00000000E-01  8.00000000E-01  1.50000000E+00
  1.50000000E+00  8.00000000E-01  8.00000000E-01  1.50000000E+00  1.50000000E+00
  8.00000000E-01  8.00000000E-01  1.50000000E+00  1.50000000E+00  8.00000000E-01
  8.00000000E-01  1.50000000E+00  1.50000000E+00  8.00000000E-01  8.00000000E-01
  1.50000000E+00  1.50000000E+00  8.00000000E-01  8.00000000E-01  1.50000000E+00
  1.50000000E+00  8.00000000E-01  8.00000000E-01  1.50000000E+00  1.50000000E+00
  8.00000000E-01  8.00000000E-01  1.50000000E+00  1.50000000E+00  8.00000000E-01
  8.00000000E-01  1.50000000E+00  1.50000000E+00  8.00000000E-01  8.00000000E-01
  1.50000000E+00  1.50000000E+00  8.00000000E-01  8.00000000E-01  1.50000000E+00
  1.50000000E+00  8.00000000E-01  8.00000000E-01  1.50000000E+00  1.50000000E+00
  8.00000000E-01  8.00000000E-01  1.50000000E+00  1.50000000E+00  8.00000000E-01
  8.00000000E-01  1.50000000E+00  1.50000000E+00  8.00000000E-01  8.00000000E-01
  1.50000000E+00  1.50000000E+00  8.00000000E-01  8.00000000E-01  1.50000000E+00
  1.50000000E+00  8.00000000E-01  8.00000000E-01  1.50000000E+00  1.50000000E+00
  8.00000000E-01  8.00000000E-01  1.50000000E+00  1.50000000E+00  8.00000000E-01
  8.00000000E-01  1.50000000E+00  1.50000000E+00  8.00000000E-01  8.00000000E-01
  1.50000000E+00  1.50000000E+00  8.00000000E-01  8.00000000E-01  1.50000000E+00
  1.50000000E+00  8.00000000E-01  8.00000000E-01  1.50000000E+00  1.50000000E+00
  8.00000000E-01  8.00000000E-01  1.50000000E+00  1.50000000E+00  8.00000000E-01
  8.00000000E-01  1.50000000E+00  1.50000000E+00  8.00000000E-01  8.00000000E-01
  1.50000000E+00  1.50000000E+00  8.00000000E-01  8.00000000E-01  1.50000000E+00
  1.50000000E+00  8.00000000E-01  8.00000000E-01  1.50000000E+00  1.50000000E+00
  8.00000000E-01  8.00000000E-01  1.50000000E+00  1.50000000E+00  8.00000000E-01
  8.00000000E-01  1.50000000E+00  1.50000000E+00  8.00000000E-01  8.00000000E-01
  1.50000000E+00  1.50000000E+00  8.00000000E-01  8.00000000E-01  1.50000000E+00
  1.50000000E+00  8.00000000E-01  8.00000000E-01  1.50000000E+00  1.50000000E+00
  8.00000000E-01  8.00000000E-01  1.50000000E+00  1.50000000E+00  8.00000000E-01
  8.00000000E-01  1.50000000E+00  1.50000000E+00  8.00000000E-01  8.00000000E-01
  1.50000000E+00  1.50000000E+00  8.00000000E-01  8.00000000E-01  1.50000000E+00
  1.50000000E+00  8.00000000E-01  8.00000000E-01  1.50000000E+00  1.50000000E+00
  8.00000000E-01  8.00000000E-01  1.50000000E+00  1.50000000E+00  8.00000000E-01
  8.00000000E-01  1.50000000E+00  1.50000000E+00  8.00000000E-01  8.00000000E-01
  1.50000000E+00  1.50000000E+00  8.00000000E-01  8.00000000E-01  1.50000000E+00
  1.50000000E+00  8.00000000E-01  8.00000000E-01  1.50000000E+00  1.50000000E+00
  8.00000000E-01  8.00000000E-01  1.50000000E+00  1.50000000E+00  8.00000000E-01
  8.00000000E-01  1.50000000E+00  1.50000000E+00  8.00000000E-01  8.00000000E-01
  1.50000000E+00  1.50000000E+00  8.00000000E-01  8.00000000E-01  1.50000000E+00
  1.50000000E+00  8.00000000E-01  8.00000000E-01  1.50000000E+00  1.50000000E+00
  8.00000000E-01  8.00000000E-01  1.50000000E+00  1.50000000E+00  8.00000000E-01
  8.00000000E-01  1.50000000E+00  1.50000000E+00  8.00000000E-01  8.00000000E-01
  1.50000000E+00  1.50000000E+00  8.00000000E-01  8.00000000E-01  1.50000000E+00
  1.50000000E+00  8.00000000E-01  8.00000000E-01  1.50000000E+00  1.50000000E+00
  8.00000000E-01  8.00000000E-01  1.50000000E+00  1.50000000E+00  8.00000000E-01
  8.00000000E-01  1.50000000E+00  1.50000000E+00  8.00000000E-01  8.00000000E-01
  1.50000000E+00  1.50000000E+00  8.00000000E-01  8.00000000E-01  1.50000000E+00
  1.50000000E+00  8.00000000E-01  8.00000000E-01  1.50000000E+00  1.50000000E+00
  8.00000000E-01  8.00000000E-01  1.50000000E+00  1.50000000E+00  8.00000000E-01
  8.00000000E-01  1.50000000E+00  1.50000000E+00  8.00000000E-01  8.00000000E-01
  1.50000000E+00  1.50000000E+00  8.00000000E-01  8.00000000E-01  1.50000000E+00
  1.50000000E+00  8.00000000E-01  8.00000000E-01  1.50000000E+00  1.50000000E+00
  8.00000000E-01  8.00000000E-01  1.50000000E+00  1.50000000E+00  8.00000000E-01
  8.00000000E-01  1.50000000E+00  1.50000000E+00  8.00000000E-01  8.00000000E-01
  1.50000000E+00  1.50000000E+00  8.00000000E-01  8.00000000E-01  1.50000000E+00
  1.50000000E+00  8.00000000E-01  8.00000000E-01  1.50000000E+00  1.50000000E+00
  8.00000000E-01  8.00000000E-01  1.50000000E+00  1.50000000E+00  8.00000000E-01
  8.00000000E-01  1.50000000E+00  1.50000000E+00  8.00000000E-01  8.00000000E-01
  1.50000000E+00  1.50000000E+00  8.00000000E-01  8.00000000E-01  1.50000000E+00
  1.50000000E+00  8.00000000E-01  8.00000000E-01  1.50000000E+00  1.50000000E+00
  8.00000000E-01  8.00000000E-01  1.50000000E+00  1.50000000E+00  8.00000000E-01
  8.00000000E-01  1.50000000E+00  1.50000000E+00  8.00000000E-01  8.00000000E-01
  1.50000000E+00  1.50000000E+00  8.00000000E-01  8.00000000E-01  1.50000000E+00
  1.50000000E+00  8.00000000E-01  8.00000000E-01  1.50000000E+00  1.50000000E+00
  8.00000000E-01  8.00000000E-01  1.50000000E+00  1.50000000E+00  8.00000000E-01
  8.00000000E-01  1.50000000E+00  1.50000000E+00  8.00000000E-01  8.00000000E-01
  1.50000000E+00  1.50000000E+00  8.00000000E-01  8.00000000E-01  1.50000000E+00
  1.50000000E+00  8.00000000E-01  8.00000000E-01  1.50000000E+00  1.50000000E+00
  8.00000000E-01  8.00000000E-01  1.50000000E+00  1.50000000E+00  8.00000000E-01
  8.00000000E-01  1.50000000E+00  1.50000000E+00  8.00000000E-01  8.00000000E-01
  1.50000000E+00  1.50000000E+00  8.00000000E-01  8.00000000E-01  1.50000000E+00
  1.50000000E+00  8.00000000E-01  8.00000000E-01  1.50000000E+00  1.50000000E+00
  8.00000000E-01  8.00000000E-01  1.50000000E+00  1.50000000E+00  8.00000000E-01
  8.00000000E-01  1.50000000E+00  1.50000000E+00  8.00000000E-01  8.00000000E-01
  1.50000000E+00  1.50000000E+00  8.00000000E-01  8.00000000E-01  1.50000000E+00
  1.50000000E+00  8.00000000E-01  8.00000000E-01  1.50000000E+00  1.50000000E+00
  8.00000000E-01  8.00000000E-01  1.50000000E+00  1.50000000E+00  8.00000000E-01
  8.00000000E-01  1.50000000E+00  1.50000000E+00  8.00000000E-01  8.00000000E-01
  1.50000000E+00  1.50000000E+00  8.00000000E-01  8.00000000E-01  1.50000000E+00
  1.50000000E+00  8.00000000E-01  8.00000000E-01  1.50000000E+00  1.50000000E+00
  8.00000000E-01  8.00000000E-01  1.50000000E+00  1.50000000E+00  8.00000000E-01
  8.00000000E-01  1.50000000E+00  1.50000000E+00  8.00000000E-01  8.00000000E-01
  1.50000000E+00  1.50000000E+00  8.00000000E-01  8.00000000E-01  1.50000000E+00
  1.50000000E+00  8.00000000E-01  8.00000000E-01  1.50000000E+00  1.50000000E+00
  8.00000000E-01  8.00000000E-01  1.50000000E+00  1.50000000E+00  8.00000000E-01
  8.00000000E-01  1.50000000E+00  1.50000000E+00  8.00000000E-01  8.00000000E-01
  1.50000000E+00  1.50000000E+00  8.00000000E-01  8.00000000E-01  1.50000000E+00
  1.50000000E+00  8.00000000E-01  8.00000000E-01  1.50000000E+00  1.50000000E+00
  8.00000000E-01  8.00000000E-01  1.50000000E+00  1.50000000E+00  8.00000000E-01
  8.00000000E-01  1.50000000E+00  1.50000000E+00  8.00000000E-01  8.00000000E-01
  1.50000000E+00  1.50000000E+00  8.00000000E-01  8.00000000E-01  1.50000000E+00
  1.50000000E+00  8.00000000E-01  8.00000000E-01  1.50000000E+00  1.50000000E+00
  8.00000000E-01  8.00000000E-01  1.50000000E+00  1.50000000E+00  8.00000000E-01
  8.00000000E-01  1.50000000E+00  1.50000000E+00  8.00000000E-01  8.00000000E-01
  1.50000000E+00  1.50000000E+00  8.00000000E-01  8.00000000E-01  1.50000000E+00
  1.50000000E+00  8.00000000E-01  8.00000000E-01  1.50000000E+00  1.50000000E+00
  8.00000000E-01  8.00000000E-01  1.50000000E+00  1.50000000E+00  8.00000000E-01
  8.00000000E-01  1.50000000E+00  1.50000000E+00  8.00000000E-01  8.00000000E-01
  1.50000000E+00  1.50000000E+00  8.00000000E-01  8.00000000E-01  1.50000000E+00
  1.50000000E+00  8.00000000E-01  8.00000000E-01  1.50000000E+00  1.50000000E+00
  8.00000000E-01  8.00000000E-01  1.50000000E+00  1.50000000E+00  8.00000000E-01
  8.00000000E-01  1.50000000E+00  1.50000000E+00  8.00000000E-01  8.00000000E-01
  1.50000000E+00  1.50000000E+00  8.00000000E-01  8.00000000E-01  1.50000000E+00
  1.50000000E+00  8.00000000E-01  8.00000000E-01  1.50000000E+00  1.50000000E+00
  8.00000000E-01  8.00000000E-01  1.50000000E+00  1.50000000E+00  8.00000000E-01
  8.00000000E-01  1.50000000E+00  1.50000000E+00  8.00000000E-01  8.00000000E-01
  1.50000000E+00  1.50000000E+00  8.00000000E-01  8.00000000E-01  1.50000000E+00
  1.50000000E+00  8.00000000E-01  8.00000000E-01  1.50000000E+00  1.50000000E+00
  8.00000000E-01  8.00000000E-01  1.50000000E+00  1.50000000E+00  8.00000000E-01
  8.00000000E-01  1.50000000E+00  1.50000000E+00  8.00000000E-01  8.00000000E-01
  1.50000000E+00  1.50000000E+00  8.00000000E-01  8.00000000E-01  1.50000000E+00
  1.50000000E+00  8.00000000E-01  8.00000000E-01  1.50000000E+00  1.50000000E+00
  8.00000000E-01  8.00000000E-01  1.50000000E+00  1.50000000E+00  8.00000000E-01
  8.00000000E-01  1.50000000E+00  1.50000000E+00  8.00000000E-01  8.00000000E-01
  1.50000000E+00  1.50000000E+00  8.00000000E-01  8.00000000E-01  1.50000000E+00
  1.50000000E+00  8.00000000E-01  8.00000000E-01  1.50000000E+00  1.50000000E+00
  8.00000000E-01  8.00000000E-01  1.50000000E+00  1.50000000E+00  8.00000000E-01
  8.00000000E-01  1.50000000E+00  1.50000000E+00  8.00000000E-01  8.00000000E-01
  1.50000000E+00  1.50000000E+00  8.00000000E-01  8.00000000E-01  1.50000000E+00
  1.50000000E+00  8.00000000E-01  8.00000000E-01  1.50000000E+00  1.50000000E+00
  8.00000000E-01  8.00000000E-01  1.50000000E+00  1.50000000E+00  8.00000000E-01
  8.00000000E-01  1.50000000E+00  1.50000000E+00  8.00000000E-01  8.00000000E-01
  1.50000000E+00  1.50000000E+00  8.00000000E-01  8.00000000E-01  1.50000000E+00
  1.50000000E+00  8.00000000E-01  8.00000000E-01  1.50000000E+00  1.50000000E+00
  8.00000000E-01  8.00000000E-01  1.50000000E+00  1.50000000E+00  8.00000000E-01
  8.00000000E-01  1.50000000E+00  1.50000000E+00  8.00000000E-01  8.00000000E-01
  1.50000000E+00  1.50000000E+00  8.00000000E-01  8.00000000E-01  1.50000000E+00
  1.50000000E+00  8.00000000E-01  8.00000000E-01  1.50000000E+00  1.50000000E+00
  8.00000000E-01  8.00000000E-01  1.50000000E+00  1.50000000E+00  8.00000000E-01
  8.00000000E-01  1.50000000E+00  1.50000000E+00  8.00000000E-01  8.00000000E-01
  1.50000000E+00  1.50000000E+00  8.00000000E-01  8.00000000E-01  1.50000000E+00
  1.50000000E+00  8.00000000E-01  8.00000000E-01  1.50000000E+00  1.50000000E+00
  8.00000000E-01  8.00000000E-01  1.50000000E+00  1.50000000E+00  8.00000000E-01
  8.00000000E-01  1.50000000E+00  1.50000000E+00  8.00000000E-01  8.00000000E-01
  1.50000000E+00  1.50000000E+00  8.00000000E-01  8.00000000E-01  1.50000000E+00
  1.50000000E+00  8.00000000E-01  8.00000000E-01  1.50000000E+00  1.50000000E+00
  8.00000000E-01  8.00000000E-01  1.50000000E+00  1.50000000E+00  8.00000000E-01
  8.00000000E-01  1.50000000E+00  1.50000000E+00  8.00000000E-01  8.00000000E-01
  1.50000000E+00  1.50000000E+00  8.00000000E-01  8.00000000E-01  1.50000000E+00
  1.50000000E+00  8.00000000E-01  8.00000000E-01  1.50000000E+00  1.50000000E+00
  8.00000000E-01  8.00000000E-01  1.50000000E+00  1.50000000E+00  8.00000000E-01
  8.00000000E-01  1.50000000E+00  1.50000000E+00  8.00000000E-01  8.00000000E-01
  1.50000000E+00  1.50000000E+00  8.00000000E-01  8.00000000E-01  1.50000000E+00
  1.50000000E+00  8.00000000E-01  8.00000000E-01  1.50000000E+00  1.50000000E+00
  8.00000000E-01  8.00000000E-01  1.50000000E+00  1.50000000E+00  8.00000000E-01
  8.00000000E-01  1.50000000E+00  1.50000000E+00  8.00000000E-01  8.00000000E-01
  1.50000000E+00  1.50000000E+00  8.00000000E-01  8.00000000E-01  1.50000000E+00
  1.50000000E+00  8.00000000E-01  8.00000000E-01  1.50000000E+00  1.50000000E+00
  8.00000000E-01  8.00000000E-01  1.50000000E+00  1.50000000E+00  8.00000000E-01
  8.00000000E-01  1.50000000E+00  1.50000000E+00  8.00000000E-01  8.00000000E-01
  1.50000000E+00  1.50000000E+00  8.00000000E-01  8.00000000E-01  1.50000000E+00
  1.50000000E+00  8.00000000E-01  8.00000000E-01  1.50000000E+00  1.50000000E+00
  8.00000000E-01  8.00000000E-01  1.50000000E+00  1.50000000E+00  8.00000000E-01
  8.00000000E-01  1.50000000E+00  1.50000000E+00  8.00000000E-01  8.00000000E-01
  1.50000000E+00  1.50000000E+00  8.00000000E-01  8.00000000E-01  1.50000000E+00
  1.50000000E+00  8.00000000E-01  8.00000000E-01  1.50000000E+00  1.50000000E+00
  8.00000000E-01  8.00000000E-01  1.50000000E+00  1.50000000E+00  8.00000000E-01
  8.00000000E-01  1.50000000E+00  1.50000000E+00  8.00000000E-01  8.00000000E-01
  1.50000000E+00  1.50000000E+00  8.00000000E-01  8.00000000E-01  1.50000000E+00
  1.50000000E+00  8.00000000E-01  8.00000000E-01  1.50000000E+00  1.50000000E+00
  8.00000000E-01  8.00000000E-01  1.50000000E+00  1.50000000E+00  8.00000000E-01
  8.00000000E-01  1.50000000E+00  1.50000000E+00  8.00000000E-01  8.00000000E-01
  1.50000000E+00  1.50000000E+00  8.00000000E-01  8.00000000E-01  1.50000000E+00
  1.50000000E+00  8.00000000E-01  8.00000000E-01  1.50000000E+00  1.50000000E+00
  8.00000000E-01  8.00000000E-01  1.50000000E+00  1.50000000E+00  8.00000000E-01
  8.00000000E-01  1.50000000E+00  1.50000000E+00  8.00000000E-01  8.00000000E-01
  1.50000000E+00  1.50000000E+00  8.00000000E-01  8.00000000E-01  1.50000000E+00
  1.50000000E+00  8.00000000E-01  8.00000000E-01  1.50000000E+00  1.50000000E+00
  8.00000000E-01  8.00000000E-01  1.50000000E+00  1.50000000E+00  8.00000000E-01
  8.00000000E-01  1.50000000E+00  1.50000000E+00  8.00000000E-01  8.00000000E-01
  1.50000000E+00  1.50000000E+00  8.00000000E-01  8.00000000E-01  1.50000000E+00
  1.50000000E+00  8.00000000E-01  8.00000000E-01  1.50000000E+00  1.50000000E+00
  8.00000000E-01  8.00000000E-01  1.50000000E+00  1.50000000E+00  8.00000000E-01
  8.00000000E-01  1.50000000E+00  1.50000000E+00  8.00000000E-01  8.00000000E-01
  1.50000000E+00  1.50000000E+00  8.00000000E-01  8.00000000E-01  1.50000000E+00
  1.50000000E+00  8.00000000E-01  8.00000000E-01  1.50000000E+00  1.50000000E+00
  8.00000000E-01  8.00000000E-01  1.50000000E+00  1.50000000E+00  8.00000000E-01
  8.00000000E-01  1.50000000E+00  1.50000000E+00  8.00000000E-01  8.00000000E-01
  1.50000000E+00  1.50000000E+00  8.00000000E-01  8.00000000E-01  1.50000000E+00
  1.50000000E+00  8.00000000E-01  8.00000000E-01  1.50000000E+00  1.50000000E+00
  8.00000000E-01  8.00000000E-01  1.50000000E+00  1.50000000E+00  8.00000000E-01
  8.00000000E-01  1.50000000E+00  1.50000000E+00  8.00000000E-01  8.00000000E-01
  1.50000000E+00  1.50000000E+00  8.00000000E-01  8.00000000E-01  1.50000000E+00
  1.50000000E+00  8.00000000E-01  8.00000000E-01  1.50000000E+00  1.50000000E+00
  8.00000000E-01  8.00000000E-01  1.50000000E+00  1.50000000E+00  8.00000000E-01
  8.00000000E-01  1.50000000E+00  1.50000000E+00  8.00000000E-01  8.00000000E-01
  1.50000000E+00  1.50000000E+00  8.00000000E-01  8.00000000E-01  1.50000000E+00
  1.50000000E+00  8.00000000E-01  8.00000000E-01  1.50000000E+00  1.50000000E+00
  8.00000000E-01  8.00000000E-01  1.50000000E+00  1.50000000E+00  8.00000000E-01
  8.00000000E-01  1.50000000E+00  1.50000000E+00  8.00000000E-01  8.00000000E-01
  1.50000000E+00  1.50000000E+00  8.00000000E-01  8.00000000E-01  1.50000000E+00
  1.50000000E+00  8.00000000E-01  8.00000000E-01  1.50000000E+00  1.50000000E+00
  8.00000000E-01  8.00000000E-01  1.50000000E+00  1.50000000E+00  8.00000000E-01
  8.00000000E-01  1.50000000E+00  1.50000000E+00  8.00000000E-01  8.00000000E-01
  1.50000000E+00  1.50000000E+00  8.00000000E-01  8.00000000E-01  1.50000000E+00
  1.50000000E+00  8.00000000E-01  8.00000000E-01  1.50000000E+00  1.50000000E+00
  8.00000000E-01  8.00000000E-01  1.50000000E+00  1.50000000E+00  8.00000000E-01
  8.00000000E-01  1.50000000E+00  1.50000000E+00  8.00000000E-01  8.00000000E-01
  1.50000000E+00  1.50000000E+00  8.00000000E-01  8.00000000E-01  1.50000000E+00
  1.50000000E+00  8.00000000E-01  8.00000000E-01  1.50000000E+00  1.50000000E+00
  8.00000000E-01  8.00000000E-01  1.50000000E+00  1.50000000E+00  8.00000000E-01
  8.00000000E-01  1.50000000E+00  1.50000000E+00  8.00000000E-01  8.00000000E-01
  1.50000000E+00  1.50000000E+00  8.00000000E-01  8.00000000E-01  1.50000000E+00
  1.50000000E+00  8.00000000E-01  8.00000000E-01  1.50000000E+00  1.50000000E+00
  8.00000000E-01  8.00000000E-01  1.50000000E+00  1.50000000E+00  8.00000000E-01
  8.00000000E-01  1.50000000E+00  1.50000000E+00  8.00000000E-01  8.00000000E-01
  1.50000000E+00  1.50000000E+00  8.00000000E-01  8.00000000E-01  1.50000000E+00
  1.50000000E+00  8.00000000E-01  8.00000000E-01  1.50000000E+00  1.50000000E+00
  8.00000000E-01  8.00000000E-01  1.50000000E+00  1.50000000E+00  8.00000000E-01
  8.00000000E-01  1.50000000E+00  1.50000000E+00  8.00000000E-01  8.00000000E-01
  1.50000000E+00  1.50000000E+00  8.00000000E-01  8.00000000E-01  1.50000000E+00
  1.50000000E+00  8.00000000E-01  8.00000000E-01  1.50000000E+00  1.50000000E+00
  8.00000000E-01  8.00000000E-01  1.50000000E+00  1.50000000E+00  8.00000000E-01
  8.00000000E-01  1.50000000E+00  1.50000000E+00  8.00000000E-01  8.00000000E-01
  1.50000000E+00  1.50000000E+00  8.00000000E-01  8.00000000E-01  1.50000000E+00
  1.50000000E+00  8.00000000E-01  8.00000000E-01  1.50000000E+00  1.50000000E+00
  8.00000000E-01  8.00000000E-01  1.50000000E+00  1.50000000E+00  8.00000000E-01
  8.00000000E-01  1.50000000E+00  1.50000000E+00  8.00000000E-01  8.00000000E-01
  1.50000000E+00  1.50000000E+00  8.00000000E-01  8.00000000E-01  1.50000000E+00
  1.50000000E+00  8.00000000E-01  8.00000000E-01  1.50000000E+00  1.50000000E+00
  8.00000000E-01  8.00000000E-01  1.50000000E+00  1.50000000E+00  8.00000000E-01
  8.00000000E-01  1.50000000E+00  1.50000000E+00  8.00000000E-01  8.00000000E-01
  1.50000000E+00  1.50000000E+00  8.00000000E-01  8.00000000E-01  1.50000000E+00
  1.50000000E+00  8.00000000E-01  8.00000000E-01  1.50000000E+00  1.50000000E+00
  8.00000000E-01  8.00000000E-01  1.50000000E+00  1.50000000E+00  8.00000000E-01
  8.00000000E-01  1.50000000E+00  1.50000000E+00  8.00000000E-01  8.00000000E-01
  1.50000000E+00  1.50000000E+00  8.00000000E-01  8.00000000E-01  1.50000000E+00
  1.50000000E+00  8.00000000E-01  8.00000000E-01  1.50000000E+00  1.50000000E+00
  8.00000000E-01  8.00000000E-01  1.50000000E+00  1.50000000E+00  8.00000000E-01
  8.00000000E-01  1.50000000E+00  1.50000000E+00  8.00000000E-01  8.00000000E-01
  1.50000000E+00  1.50000000E+00  8.00000000E-01  8.00000000E-01  1.50000000E+00
  1.50000000E+00  8.00000000E-01  8.00000000E-01  1.50000000E+00  1.50000000E+00
  8.00000000E-01  8.00000000E-01  1.50000000E+00  1.50000000E+00  8.00000000E-01
  8.00000000E-01  1.50000000E+00  1.50000000E+00  8.00000000E-01  8.00000000E-01
  1.50000000E+00  1.50000000E+00  8.00000000E-01  8.00000000E-01  1.50000000E+00
  1.50000000E+00  8.00000000E-01  8.00000000E-01  1.50000000E+00  1.50000000E+00
  8.00000000E-01  8.00000000E-01  1.50000000E+00  1.50000000E+00  8.00000000E-01
  8.00000000E-01  1.50000000E+00  1.50000000E+00  8.00000000E-01  8.00000000E-01
  1.50000000E+00  1.50000000E+00  8.00000000E-01  8.00000000E-01  1.50000000E+00
  1.50000000E+00  8.00000000E-01  8.00000000E-01  1.50000000E+00  1.50000000E+00
  8.00000000E-01  8.00000000E-01  1.50000000E+00  1.50000000E+00  8.00000000E-01
  8.00000000E-01  1.50000000E+00  1.50000000E+00  8.00000000E-01  8.00000000E-01
  1.50000000E+00  1.50000000E+00  8.00000000E-01  8.00000000E-01  1.50000000E+00
  1.50000000E+00  8.00000000E-01  8.00000000E-01  1.50000000E+00  1.50000000E+00
  8.00000000E-01  8.00000000E-01  1.50000000E+00  1.50000000E+00  8.00000000E-01
  8.00000000E-01  1.50000000E+00  1.50000000E+00  8.00000000E-01  8.00000000E-01
  1.50000000E+00  1.50000000E+00  8.00000000E-01  8.00000000E-01  1.50000000E+00
  1.50000000E+00  8.00000000E-01  8.00000000E-01  1.50000000E+00  1.50000000E+00
  8.00000000E-01  8.00000000E-01  1.50000000E+00  1.50000000E+00  8.00000000E-01
  8.00000000E-01  1.50000000E+00  1.50000000E+00  8.00000000E-01  8.00000000E-01
  1.50000000E+00  1.50000000E+00  8.00000000E-01  8.00000000E-01  1.50000000E+00
  1.50000000E+00  8.00000000E-01  8.00000000E-01  1.50000000E+00  1.50000000E+00
  8.00000000E-01  8.00000000E-01  1.50000000E+00  1.50000000E+00  8.00000000E-01
  8.00000000E-01  1.50000000E+00  1.50000000E+00  8.00000000E-01  8.00000000E-01
  1.50000000E+00  1.50000000E+00  8.00000000E-01  8.00000000E-01  1.50000000E+00
  1.50000000E+00  8.00000000E-01  8.00000000E-01  1.50000000E+00  1.50000000E+00
  8.00000000E-01  8.00000000E-01  1.50000000E+00  1.50000000E+00  8.00000000E-01
  8.00000000E-01  1.50000000E+00  1.50000000E+00  8.00000000E-01  8.00000000E-01
  1.50000000E+00  1.50000000E+00  8.00000000E-01  8.00000000E-01  1.50000000E+00
  1.50000000E+00  8.00000000E-01  8.00000000E-01  1.50000000E+00  1.50000000E+00
  8.00000000E-01  8.00000000E-01  1.50000000E+00  1.50000000E+00  8.00000000E-01
  8.00000000E-01  1.50000000E+00  1.50000000E+00  8.00000000E-01  8.00000000E-01
  1.50000000E+00  1.50000000E+00  8.00000000E-01  8.00000000E-01  1.50000000E+00
  1.50000000E+00  8.00000000E-01  8.00000000E-01  1.50000000E+00  1.50000000E+00
  8.00000000E-01  8.00000000E-01  1.50000000E+00  1.50000000E+00  8.00000000E-01
  8.00000000E-01  1.50000000E+00  1.50000000E+00  8.00000000E-01  8.00000000E-01
  1.50000000E+00  1.50000000E+00  8.00000000E-01  8.00000000E-01  1.50000000E+00
  1.50000000E+00  8.00000000E-01  8.00000000E-01  1.50000000E+00  1.50000000E+00
  8.00000000E-01  8.00000000E-01  1.50000000E+00  1.50000000E+00  8.00000000E-01
  8.00000000E-01  1.50000000E+00  1.50000000E+00  8.00000000E-01  8.00000000E-01
  1.50000000E+00  1.50000000E+00  8.00000000E-01  8.00000000E-01  1.50000000E+00
  1.50000000E+00  8.00000000E-01  8.00000000E-01  1.50000000E+00  1.50000000E+00
  8.00000000E-01  8.00000000E-01  1.50000000E+00  1.50000000E+00  8.00000000E-01
  8.00000000E-01  1.50000000E+00  1.50000000E+00  8.00000000E-01  8.00000000E-01
  1.50000000E+00  1.50000000E+00  8.00000000E-01  8.00000000E-01  1.50000000E+00
  1.50000000E+00  8.00000000E-01  8.00000000E-01  1.50000000E+00  1.50000000E+00
  8.00000000E-01  8.00000000E-01  1.50000000E+00  1.50000000E+00  8.00000000E-01
  8.00000000E-01  1.50000000E+00  1.50000000E+00  8.00000000E-01  8.00000000E-01
  1.50000000E+00  1.50000000E+00  8.00000000E-01  8.00000000E-01  1.50000000E+00
  1.50000000E+00  8.00000000E-01  8.00000000E-01  1.50000000E+00  1.50000000E+00
  8.00000000E-01  8.00000000E-01  1.50000000E+00  1.50000000E+00  8.00000000E-01
  8.00000000E-01  1.50000000E+00  1.50000000E+00  8.00000000E-01  8.00000000E-01
  1.50000000E+00  1.50000000E+00  8.00000000E-01  8.00000000E-01  1.50000000E+00
  1.50000000E+00  8.00000000E-01  8.00000000E-01  1.50000000E+00  1.50000000E+00
  8.00000000E-01  8.00000000E-01  1.50000000E+00  1.50000000E+00  8.00000000E-01
  8.00000000E-01  1.50000000E+00  1.50000000E+00  8.00000000E-01  8.00000000E-01
  1.50000000E+00  1.50000000E+00  8.00000000E-01  8.00000000E-01  1.50000000E+00
  1.50000000E+00  8.00000000E-01  8.00000000E-01  1.50000000E+00  1.50000000E+00
  8.00000000E-01  8.00000000E-01  1.50000000E+00  1.50000000E+00  8.00000000E-01
  8.00000000E-01  1.50000000E+00  1.50000000E+00  8.00000000E-01  8.00000000E-01
  1.50000000E+00  1.50000000E+00  8.00000000E-01  8.00000000E-01  1.50000000E+00
  1.50000000E+00  8.00000000E-01  8.00000000E-01  1.50000000E+00  1.50000000E+00
  8.00000000E-01  8.00000000E-01  1.50000000E+00  1.50000000E+00  8.00000000E-01
  8.00000000E-01  1.50000000E+00  1.50000000E+00  8.00000000E-01  8.00000000E-01
  1.50000000E+00  1.50000000E+00  8.00000000E-01  8.00000000E-01  1.50000000E+00
  1.50000000E+00  8.00000000E-01  8.00000000E-01  1.50000000E+00  1.50000000E+00
  8.00000000E-01  8.00000000E-01  1.50000000E+00  1.50000000E+00  8.00000000E-01
  8.00000000E-01  1.50000000E+00  1.50000000E+00  8.00000000E-01  8.00000000E-01
  1.50000000E+00  1.50000000E+00  8.00000000E-01  8.00000000E-01  1.50000000E+00
  1.50000000E+00  8.00000000E-01  8.00000000E-01  1.50000000E+00  1.50000000E+00
  8.00000000E-01  8.00000000E-01  1.50000000E+00  1.50000000E+00  8.00000000E-01
  8.00000000E-01  1.50000000E+00  1.50000000E+00  8.00000000E-01  8.00000000E-01
  1.50000000E+00  1.50000000E+00  8.00000000E-01  8.00000000E-01  1.50000000E+00
  1.50000000E+00  8.00000000E-01  8.00000000E-01  1.50000000E+00  1.50000000E+00
  8.00000000E-01  8.00000000E-01  1.50000000E+00  1.50000000E+00  8.00000000E-01
  8.00000000E-01  1.50000000E+00  1.50000000E+00  8.00000000E-01  8.00000000E-01
  1.50000000E+00  1.50000000E+00  8.00000000E-01  8.00000000E-01  1.50000000E+00
  1.50000000E+00  8.00000000E-01  8.00000000E-01  1.50000000E+00  1.50000000E+00
  8.00000000E-01  8.00000000E-01  1.50000000E+00  1.50000000E+00  8.00000000E-01
  8.00000000E-01  1.50000000E+00  1.50000000E+00  8.00000000E-01  8.00000000E-01
  1.50000000E+00  1.50000000E+00  8.00000000E-01  8.00000000E-01  1.50000000E+00
  1.50000000E+00  8.00000000E-01  8.00000000E-01  1.50000000E+00  1.50000000E+00
  8.00000000E-01  8.00000000E-01  1.50000000E+00  1.50000000E+00  8.00000000E-01
  8.00000000E-01  1.50000000E+00  1.50000000E+00  8.00000000E-01  8.00000000E-01
  1.50000000E+00  1.50000000E+00  8.00000000E-01  8.00000000E-01  1.50000000E+00
  1.50000000E+00  8.00000000E-01  8.00000000E-01  1.50000000E+00  1.50000000E+00
  8.00000000E-01  8.00000000E-01  1.50000000E+00  1.50000000E+00  8.00000000E-01
  8.00000000E-01  1.50000000E+00  1.50000000E+00  8.00000000E-01  8.00000000E-01
  1.50000000E+00  1.50000000E+00  8.00000000E-01  8.00000000E-01  1.50000000E+00
  1.50000000E+00  8.00000000E-01  8.00000000E-01  1.50000000E+00  1.50000000E+00
  8.00000000E-01  8.00000000E-01  1.50000000E+00  1.50000000E+00  8.00000000E-01
  8.00000000E-01  1.50000000E+00  1.50000000E+00  8.00000000E-01  8.00000000E-01
  1.50000000E+00  1.50000000E+00  8.00000000E-01  8.00000000E-01  1.50000000E+00
  1.50000000E+00  8.00000000E-01  8.00000000E-01  1.50000000E+00  1.50000000E+00
  8.00000000E-01  8.00000000E-01  1.50000000E+00  1.50000000E+00  8.00000000E-01
  8.00000000E-01  1.50000000E+00  1.50000000E+00  8.00000000E-01  8.00000000E-01
  1.50000000E+00  1.50000000E+00  8.00000000E-01  8.00000000E-01  1.50000000E+00
  1.50000000E+00  8.00000000E-01  8.00000000E-01  1.50000000E+00  1.50000000E+00
  8.00000000E-01  8.00000000E-01  1.50000000E+00  1.50000000E+00  8.00000000E-01
  8.00000000E-01  1.50000000E+00  1.50000000E+00  8.00000000E-01  8.00000000E-01
  1.50000000E+00  1.50000000E+00  8.00000000E-01  8.00000000E-01  1.50000000E+00
  1.50000000E+00  8.00000000E-01  8.00000000E-01  1.50000000E+00  1.50000000E+00
  8.00000000E-01  8.00000000E-01  1.50000000E+00  1.50000000E+00  8.00000000E-01
  8.00000000E-01  1.50000000E+00  1.50000000E+00  8.00000000E-01  8.00000000E-01
  1.50000000E+00  1.50000000E+00  8.00000000E-01  8.00000000E-01  1.50000000E+00
  1.50000000E+00  8.00000000E-01  8.00000000E-01  1.50000000E+00  1.50000000E+00
  8.00000000E-01  8.00000000E-01  1.50000000E+00  1.50000000E+00  8.00000000E-01
  8.00000000E-01  1.50000000E+00  1.50000000E+00  8.00000000E-01  8.00000000E-01
  1.50000000E+00  1.50000000E+00  8.00000000E-01  8.00000000E-01  1.50000000E+00
  1.50000000E+00  8.00000000E-01  8.00000000E-01  1.50000000E+00  1.50000000E+00
  8.00000000E-01  8.00000000E-01  1.50000000E+00  1.50000000E+00  8.00000000E-01
  8.00000000E-01  1.50000000E+00  1.50000000E+00  8.00000000E-01  8.00000000E-01
  1.50000000E+00  1.50000000E+00  8.00000000E-01  8.00000000E-01  1.50000000E+00
  1.50000000E+00  8.00000000E-01  8.00000000E-01  1.50000000E+00  1.50000000E+00
  8.00000000E-01  8.00000000E-01  1.50000000E+00  1.50000000E+00  8.00000000E-01
  8.00000000E-01  1.50000000E+00  1.50000000E+00  8.00000000E-01  8.00000000E-01
  1.50000000E+00  1.50000000E+00  8.00000000E-01  8.00000000E-01  1.50000000E+00
  1.50000000E+00  8.00000000E-01  8.00000000E-01  1.50000000E+00  1.50000000E+00
  8.00000000E-01  8.00000000E-01  1.50000000E+00  1.50000000E+00  8.00000000E-01
  8.00000000E-01  1.50000000E+00  1.50000000E+00  8.00000000E-01  8.00000000E-01
  1.50000000E+00  1.50000000E+00  8.00000000E-01  8.00000000E-01  1.50000000E+00
  1.50000000E+00  8.00000000E-01  8.00000000E-01  1.50000000E+00  1.50000000E+00
  8.00000000E-01  8.00000000E-01  1.50000000E+00  1.50000000E+00  8.00000000E-01
  8.00000000E-01  1.50000000E+00  1.50000000E+00  8.00000000E-01  8.00000000E-01
  1.50000000E+00  1.50000000E+00  8.00000000E-01  8.00000000E-01  1.50000000E+00
  1.50000000E+00  8.00000000E-01  8.00000000E-01  1.50000000E+00  1.50000000E+00
  8.00000000E-01  8.00000000E-01  1.50000000E+00  1.50000000E+00  8.00000000E-01
  8.00000000E-01  1.50000000E+00  1.50000000E+00  8.00000000E-01  8.00000000E-01
  1.50000000E+00  1.50000000E+00  8.00000000E-01  8.00000000E-01  1.50000000E+00
  1.50000000E+00  8.00000000E-01  8.00000000E-01  1.50000000E+00  1.50000000E+00
  8.00000000E-01  8.00000000E-01  1.50000000E+00  1.50000000E+00  8.00000000E-01
  8.00000000E-01  1.50000000E+00  1.50000000E+00  8.00000000E-01  8.00000000E-01
  1.50000000E+00  1.50000000E+00  8.00000000E-01  8.00000000E-01  1.50000000E+00
  1.50000000E+00  8.00000000E-01  8.00000000E-01  1.50000000E+00  1.50000000E+00
  8.00000000E-01  8.00000000E-01  1.50000000E+00  1.50000000E+00  8.00000000E-01
  8.00000000E-01  1.50000000E+00  1.50000000E+00  8.00000000E-01  8.00000000E-01
  1.50000000E+00  1.50000000E+00  8.00000000E-01  8.00000000E-01  1.50000000E+00
  1.50000000E+00  8.00000000E-01  8.00000000E-01  1.50000000E+00  1.50000000E+00
  8.00000000E-01  8.00000000E-01  1.50000000E+00  1.50000000E+00  8.00000000E-01
  8.00000000E-01  1.50000000E+00  1.50000000E+00  8.00000000E-01  8.00000000E-01
  1.50000000E+00  1.50000000E+00  8.00000000E-01  8.00000000E-01  1.50000000E+00
  1.50000000E+00  8.00000000E-01  8.00000000E-01  1.50000000E+00  1.50000000E+00
  8.00000000E-01  8.00000000E-01  1.50000000E+00  1.50000000E+00  8.00000000E-01
  8.00000000E-01  1.50000000E+00  1.50000000E+00  8.00000000E-01  8.00000000E-01
  1.50000000E+00  1.50000000E+00  8.00000000E-01  8.00000000E-01  1.50000000E+00
  1.50000000E+00  8.00000000E-01  8.00000000E-01  1.50000000E+00  1.50000000E+00
  8.00000000E-01  8.00000000E-01  1.50000000E+00  1.50000000E+00  8.00000000E-01
  8.00000000E-01  1.50000000E+00  1.50000000E+00  8.00000000E-01  8.00000000E-01
  1.50000000E+00  1.50000000E+00  8.00000000E-01  8.00000000E-01  1.50000000E+00
  1.50000000E+00  8.00000000E-01  8.00000000E-01  1.50000000E+00  1.50000000E+00
  8.00000000E-01  8.00000000E-01  1.50000000E+00  1.50000000E+00  8.00000000E-01
  8.00000000E-01  1.50000000E+00  1.50000000E+00  8.00000000E-01  8.00000000E-01
  1.50000000E+00  1.50000000E+00  8.00000000E-01  8.00000000E-01  1.50000000E+00
  1.50000000E+00  8.00000000E-01  8.00000000E-01  1.50000000E+00  1.50000000E+00
  8.00000000E-01  8.00000000E-01  1.50000000E+00  1.50000000E+00  8.00000000E-01
  8.00000000E-01  1.50000000E+00  1.50000000E+00  8.00000000E-01  8.00000000E-01
  1.50000000E+00  1.50000000E+00  8.00000000E-01  8.00000000E-01  1.50000000E+00
  1.50000000E+00  8.00000000E-01  8.00000000E-01  1.50000000E+00  1.50000000E+00
  8.00000000E-01  8.00000000E-01  1.50000000E+00  1.50000000E+00  8.00000000E-01
  8.00000000E-01  1.50000000E+00  1.50000000E+00  8.00000000E-01  8.00000000E-01
  1.50000000E+00  1.50000000E+00  8.00000000E-01  8.00000000E-01  1.50000000E+00
  1.50000000E+00  8.00000000E-01  8.00000000E-01  1.50000000E+00  1.50000000E+00
  8.00000000E-01  8.00000000E-01  1.50000000E+00  1.50000000E+00  8.00000000E-01
  8.00000000E-01  1.50000000E+00  1.50000000E+00  8.00000000E-01  8.00000000E-01
  1.50000000E+00  1.50000000E+00  8.00000000E-01  8.00000000E-01  1.50000000E+00
  1.50000000E+00  8.00000000E-01  8.00000000E-01  1.50000000E+00  1.50000000E+00
  8.00000000E-01  8.00000000E-01  1.50000000E+00  1.50000000E+00  8.00000000E-01
  8.00000000E-01  1.50000000E+00  1.50000000E+00  8.00000000E-01  8.00000000E-01
  1.50000000E+00  1.50000000E+00  8.00000000E-01  8.00000000E-01  1.50000000E+00
  1.50000000E+00  8.00000000E-01  8.00000000E-01  1.50000000E+00  1.50000000E+00
  8.00000000E-01  8.00000000E-01  1.50000000E+00  1.50000000E+00  8.00000000E-01
  8.00000000E-01  1.50000000E+00  1.50000000E+00  8.00000000E-01  8.00000000E-01
  1.50000000E+00  1.50000000E+00  8.00000000E-01  8.00000000E-01  1.50000000E+00
  1.50000000E+00  8.00000000E-01  8.00000000E-01  1.50000000E+00  1.50000000E+00
  8.00000000E-01  8.00000000E-01  1.50000000E+00  1.50000000E+00  8.00000000E-01
  8.00000000E-01  1.50000000E+00  1.50000000E+00  8.00000000E-01  8.00000000E-01
  1.50000000E+00  1.50000000E+00  8.00000000E-01  8.00000000E-01  1.50000000E+00
  1.50000000E+00  8.00000000E-01  8.00000000E-01  1.50000000E+00  1.50000000E+00
  8.00000000E-01  8.00000000E-01  1.50000000E+00  1.50000000E+00  8.00000000E-01
  8.00000000E-01  1.50000000E+00  1.50000000E+00  8.00000000E-01  8.00000000E-01
  1.50000000E+00  1.50000000E+00  8.00000000E-01  8.00000000E-01  1.50000000E+00
  1.50000000E+00  8.00000000E-01  8.00000000E-01  1.50000000E+00  1.50000000E+00
  8.00000000E-01  8.00000000E-01  1.50000000E+00  1.50000000E+00  8.00000000E-01
  8.00000000E-01  1.50000000E+00  1.50000000E+00  8.00000000E-01  8.00000000E-01
  1.50000000E+00  1.50000000E+00  8.00000000E-01  8.00000000E-01  1.50000000E+00
  1.50000000E+00  8.00000000E-01  8.00000000E-01  1.50000000E+00  1.50000000E+00
  8.00000000E-01  8.00000000E-01  1.50000000E+00  1.50000000E+00  8.00000000E-01
  8.00000000E-01  1.50000000E+00  1.50000000E+00  8.00000000E-01  8.00000000E-01
  1.50000000E+00  1.50000000E+00  8.00000000E-01  8.00000000E-01  1.50000000E+00
  1.50000000E+00  8.00000000E-01  8.00000000E-01  1.50000000E+00  1.50000000E+00
  8.00000000E-01  8.00000000E-01  1.50000000E+00  1.50000000E+00  8.00000000E-01
  8.00000000E-01  1.50000000E+00  1.50000000E+00  8.00000000E-01  8.00000000E-01
  1.50000000E+00  1.50000000E+00  8.00000000E-01  8.00000000E-01  1.50000000E+00
  1.50000000E+00  8.00000000E-01  8.00000000E-01  1.50000000E+00  1.50000000E+00
  8.00000000E-01  8.00000000E-01  1.50000000E+00  1.50000000E+00  8.00000000E-01
  8.00000000E-01  1.50000000E+00  1.50000000E+00  8.00000000E-01  8.00000000E-01
  1.50000000E+00  1.50000000E+00  8.00000000E-01  8.00000000E-01  1.50000000E+00
  1.50000000E+00  8.00000000E-01  8.00000000E-01  1.50000000E+00  1.50000000E+00
  8.00000000E-01  8.00000000E-01  1.50000000E+00  1.50000000E+00  8.00000000E-01
  8.00000000E-01  1.50000000E+00  1.50000000E+00  8.00000000E-01  8.00000000E-01
  1.50000000E+00  1.50000000E+00  8.00000000E-01  8.00000000E-01  1.50000000E+00
  1.50000000E+00  8.00000000E-01  8.00000000E-01  1.50000000E+00  1.50000000E+00
  8.00000000E-01  8.00000000E-01  1.50000000E+00  1.50000000E+00  8.00000000E-01
  8.00000000E-01  1.50000000E+00  1.50000000E+00  8.00000000E-01  8.00000000E-01
  1.50000000E+00  1.50000000E+00  8.00000000E-01  8.00000000E-01  1.50000000E+00
  1.50000000E+00  8.00000000E-01  8.00000000E-01  1.50000000E+00  1.50000000E+00
  8.00000000E-01  8.00000000E-01  1.50000000E+00  1.50000000E+00  8.00000000E-01
  8.00000000E-01  1.50000000E+00  1.50000000E+00  8.00000000E-01  8.00000000E-01
  1.50000000E+00  1.50000000E+00  8.00000000E-01  8.00000000E-01  1.50000000E+00
  1.50000000E+00  8.00000000E-01  8.00000000E-01  1.50000000E+00  1.50000000E+00
  8.00000000E-01  8.00000000E-01  1.50000000E+00  1.50000000E+00  8.00000000E-01
  8.00000000E-01  1.50000000E+00  1.50000000E+00  8.00000000E-01  8.00000000E-01
  1.50000000E+00  1.50000000E+00  8.00000000E-01  8.00000000E-01  1.50000000E+00
  1.50000000E+00  8.00000000E-01  8.00000000E-01  1.50000000E+00  1.50000000E+00
  8.00000000E-01  8.00000000E-01  1.50000000E+00  1.50000000E+00  8.00000000E-01
  8.00000000E-01  1.50000000E+00  1.50000000E+00  8.00000000E-01  8.00000000E-01
  1.50000000E+00  1.50000000E+00  8.00000000E-01  8.00000000E-01  1.50000000E+00
  1.50000000E+00  8.00000000E-01  8.00000000E-01  1.50000000E+00  1.50000000E+00
  8.00000000E-01  8.00000000E-01  1.50000000E+00  1.50000000E+00  8.00000000E-01
  8.00000000E-01  1.50000000E+00  1.50000000E+00  8.00000000E-01  8.00000000E-01
  1.50000000E+00  1.50000000E+00  8.00000000E-01  8.00000000E-01  1.50000000E+00
  1.50000000E+00  8.00000000E-01  8.00000000E-01  1.50000000E+00  1.50000000E+00
  8.00000000E-01  8.00000000E-01  1.50000000E+00  1.50000000E+00  8.00000000E-01
  8.00000000E-01  1.50000000E+00  1.50000000E+00  8.00000000E-01  8.00000000E-01
  1.50000000E+00  1.50000000E+00  8.00000000E-01  8.00000000E-01  1.50000000E+00
  1.50000000E+00  8.00000000E-01  8.00000000E-01  1.50000000E+00  1.50000000E+00
  8.00000000E-01  8.00000000E-01  1.50000000E+00  1.50000000E+00  8.00000000E-01
  8.00000000E-01  1.50000000E+00  1.50000000E+00  8.00000000E-01  8.00000000E-01
  1.50000000E+00  1.50000000E+00  8.00000000E-01  8.00000000E-01  1.50000000E+00
  1.50000000E+00  8.00000000E-01  8.00000000E-01  1.50000000E+00  1.50000000E+00
  8.00000000E-01  8.00000000E-01  1.50000000E+00  1.50000000E+00  8.00000000E-01
  8.00000000E-01  1.50000000E+00  1.50000000E+00  8.00000000E-01  8.00000000E-01
  1.50000000E+00  1.50000000E+00  8.00000000E-01  8.00000000E-01  1.50000000E+00
  1.50000000E+00  8.00000000E-01  8.00000000E-01  1.50000000E+00  1.50000000E+00
  8.00000000E-01  8.00000000E-01  1.50000000E+00  1.50000000E+00  8.00000000E-01
  8.00000000E-01  1.50000000E+00  1.50000000E+00  8.00000000E-01  8.00000000E-01
  1.50000000E+00  1.50000000E+00  8.00000000E-01  8.00000000E-01  1.50000000E+00
  1.50000000E+00  8.00000000E-01  8.00000000E-01  1.50000000E+00  1.50000000E+00
  8.00000000E-01  8.00000000E-01  1.50000000E+00  1.50000000E+00  8.00000000E-01
  8.00000000E-01  1.50000000E+00  1.50000000E+00  8.00000000E-01  8.00000000E-01
  1.50000000E+00  1.50000000E+00  8.00000000E-01  8.00000000E-01  1.50000000E+00
  1.50000000E+00  8.00000000E-01  8.00000000E-01  1.50000000E+00  1.50000000E+00
  8.00000000E-01  8.00000000E-01  1.50000000E+00  1.50000000E+00  8.00000000E-01
  8.00000000E-01  1.50000000E+00  1.50000000E+00  8.00000000E-01  8.00000000E-01
  1.50000000E+00  1.50000000E+00  8.00000000E-01  8.00000000E-01  1.50000000E+00
  1.50000000E+00  8.00000000E-01  8.00000000E-01  1.50000000E+00  1.50000000E+00
  8.00000000E-01  8.00000000E-01  1.50000000E+00  1.50000000E+00  8.00000000E-01
  8.00000000E-01  1.50000000E+00  1.50000000E+00  8.00000000E-01  8.00000000E-01
  1.50000000E+00  1.50000000E+00  8.00000000E-01  8.00000000E-01  1.50000000E+00
  1.50000000E+00  8.00000000E-01  8.00000000E-01  1.50000000E+00  1.50000000E+00
  8.00000000E-01  8.00000000E-01  1.50000000E+00  1.50000000E+00  8.00000000E-01
  8.00000000E-01  1.50000000E+00  1.50000000E+00  8.00000000E-01  8.00000000E-01
  1.50000000E+00  1.50000000E+00  8.00000000E-01  8.00000000E-01  1.50000000E+00
  1.50000000E+00  8.00000000E-01  8.00000000E-01  1.50000000E+00  1.50000000E+00
  8.00000000E-01  8.00000000E-01  1.50000000E+00  1.50000000E+00  8.00000000E-01
  8.00000000E-01  1.50000000E+00  1.50000000E+00  8.00000000E-01  8.00000000E-01
  1.50000000E+00  1.50000000E+00  8.00000000E-01  8.00000000E-01  1.50000000E+00
  1.50000000E+00  8.00000000E-01  8.00000000E-01  1.50000000E+00  1.50000000E+00
  8.00000000E-01  8.00000000E-01  1.50000000E+00  1.50000000E+00  8.00000000E-01
  8.00000000E-01  1.50000000E+00  1.50000000E+00  8.00000000E-01  8.00000000E-01
  1.50000000E+00  1.50000000E+00  8.00000000E-01  8.00000000E-01  1.50000000E+00
  1.50000000E+00  8.00000000E-01  8.00000000E-01  1.50000000E+00  1.50000000E+00
  8.00000000E-01  8.00000000E-01  1.50000000E+00  1.50000000E+00  8.00000000E-01
  8.00000000E-01  1.50000000E+00  1.50000000E+00  8.00000000E-01  8.00000000E-01
  1.50000000E+00  1.50000000E+00  8.00000000E-01  8.00000000E-01  1.50000000E+00
  1.50000000E+00  8.00000000E-01  8.00000000E-01  1.50000000E+00  1.50000000E+00
  8.00000000E-01  8.00000000E-01  1.50000000E+00  1.50000000E+00  8.00000000E-01
  8.00000000E-01  1.50000000E+00  1.50000000E+00  8.00000000E-01  8.00000000E-01
  1.50000000E+00  1.50000000E+00  8.00000000E-01  8.00000000E-01  1.50000000E+00
  1.50000000E+00  8.00000000E-01  8.00000000E-01  1.50000000E+00  1.50000000E+00
  8.00000000E-01  8.00000000E-01  1.50000000E+00  1.50000000E+00  8.00000000E-01
  8.00000000E-01  1.50000000E+00  1.50000000E+00  8.00000000E-01  8.00000000E-01
  1.50000000E+00  1.50000000E+00  8.00000000E-01  8.00000000E-01  1.50000000E+00
  1.50000000E+00  8.00000000E-01  8.00000000E-01  1.50000000E+00  1.50000000E+00
  8.00000000E-01  8.00000000E-01  1.50000000E+00  1.50000000E+00  8.00000000E-01
  8.00000000E-01  1.50000000E+00  1.50000000E+00  8.00000000E-01  8.00000000E-01
  1.50000000E+00  1.50000000E+00  8.00000000E-01  8.00000000E-01  1.50000000E+00
  1.50000000E+00  8.00000000E-01  8.00000000E-01  1.50000000E+00  1.50000000E+00
  8.00000000E-01  8.00000000E-01  1.50000000E+00  1.50000000E+00  8.00000000E-01
  8.00000000E-01  1.50000000E+00  1.50000000E+00  8.00000000E-01  8.00000000E-01
  1.50000000E+00  1.50000000E+00  8.00000000E-01  8.00000000E-01  1.50000000E+00
  1.50000000E+00  8.00000000E-01  8.00000000E-01  1.50000000E+00  1.50000000E+00
  8.00000000E-01  8.00000000E-01  1.50000000E+00  1.50000000E+00  8.00000000E-01
  8.00000000E-01  1.50000000E+00  1.50000000E+00  8.00000000E-01  8.00000000E-01
  1.50000000E+00  1.50000000E+00  8.00000000E-01  8.00000000E-01  1.50000000E+00
  1.50000000E+00  8.00000000E-01  8.00000000E-01  1.50000000E+00  1.50000000E+00
  8.00000000E-01  8.00000000E-01  1.50000000E+00  1.50000000E+00  8.00000000E-01
  8.00000000E-01  1.50000000E+00  1.50000000E+00  8.00000000E-01  8.00000000E-01
  1.50000000E+00  1.50000000E+00  8.00000000E-01  8.00000000E-01  1.50000000E+00
  1.50000000E+00  8.00000000E-01  8.00000000E-01  1.50000000E+00  1.50000000E+00
  8.00000000E-01  8.00000000E-01  1.50000000E+00  1.50000000E+00  8.00000000E-01
  8.00000000E-01  1.50000000E+00  1.50000000E+00  8.00000000E-01  8.00000000E-01
  1.50000000E+00  1.50000000E+00  8.00000000E-01  8.00000000E-01  1.50000000E+00
  1.50000000E+00  8.00000000E-01  8.00000000E-01  1.50000000E+00  1.50000000E+00
  8.00000000E-01  8.00000000E-01  1.50000000E+00  1.50000000E+00  8.00000000E-01
  8.00000000E-01  1.50000000E+00  1.50000000E+00  8.00000000E-01  8.00000000E-01
  1.50000000E+00  1.50000000E+00  8.00000000E-01  8.00000000E-01  1.50000000E+00
  1.50000000E+00  8.00000000E-01  8.00000000E-01  1.50000000E+00  1.50000000E+00
  8.00000000E-01  8.00000000E-01  1.50000000E+00  1.50000000E+00  8.00000000E-01
  8.00000000E-01  1.50000000E+00  1.50000000E+00  8.00000000E-01  8.00000000E-01
  1.50000000E+00  1.50000000E+00  8.00000000E-01  8.00000000E-01  1.50000000E+00
  1.50000000E+00  8.00000000E-01  8.00000000E-01  1.50000000E+00  1.50000000E+00
  8.00000000E-01  8.00000000E-01  1.50000000E+00  1.50000000E+00  8.00000000E-01
  8.00000000E-01  1.50000000E+00  1.50000000E+00  8.00000000E-01  8.00000000E-01
  1.50000000E+00  1.50000000E+00  8.00000000E-01  8.00000000E-01  1.50000000E+00
  1.50000000E+00  8.00000000E-01  8.00000000E-01  1.50000000E+00  1.50000000E+00
  8.00000000E-01  8.00000000E-01  1.50000000E+00  1.50000000E+00  8.00000000E-01
  8.00000000E-01  1.50000000E+00  1.50000000E+00  8.00000000E-01  8.00000000E-01
  1.50000000E+00  1.50000000E+00  8.00000000E-01  8.00000000E-01  1.50000000E+00
  1.50000000E+00  8.00000000E-01  8.00000000E-01  1.50000000E+00  1.50000000E+00
  8.00000000E-01  8.00000000E-01  1.50000000E+00  1.50000000E+00  8.00000000E-01
  8.00000000E-01  1.50000000E+00  1.50000000E+00  8.00000000E-01  8.00000000E-01
  1.50000000E+00  1.50000000E+00  8.00000000E-01  8.00000000E-01  1.50000000E+00
  1.50000000E+00  8.00000000E-01  8.00000000E-01  1.50000000E+00  1.50000000E+00
  8.00000000E-01  8.00000000E-01  1.50000000E+00  1.50000000E+00  8.00000000E-01
  8.00000000E-01  1.50000000E+00  1.50000000E+00  8.00000000E-01  8.00000000E-01
  1.50000000E+00  1.50000000E+00  8.00000000E-01  8.00000000E-01  1.50000000E+00
  1.50000000E+00  8.00000000E-01  8.00000000E-01  1.50000000E+00  1.50000000E+00
  8.00000000E-01  8.00000000E-01  1.50000000E+00  1.50000000E+00  8.00000000E-01
  8.00000000E-01  1.50000000E+00  1.50000000E+00  8.00000000E-01  8.00000000E-01
  1.50000000E+00  1.50000000E+00  8.00000000E-01  8.00000000E-01  1.50000000E+00
  1.50000000E+00  8.00000000E-01  8.00000000E-01  1.50000000E+00  1.50000000E+00
  8.00000000E-01  8.00000000E-01  1.50000000E+00  1.50000000E+00  8.00000000E-01
  8.00000000E-01  1.50000000E+00  1.50000000E+00  8.00000000E-01  8.00000000E-01
  1.50000000E+00  1.50000000E+00  8.00000000E-01  8.00000000E-01  1.50000000E+00
  1.50000000E+00  8.00000000E-01  8.00000000E-01  1.50000000E+00  1.50000000E+00
  8.00000000E-01  8.00000000E-01  1.50000000E+00  1.50000000E+00  8.00000000E-01
  8.00000000E-01  1.50000000E+00  1.50000000E+00  8.00000000E-01  8.00000000E-01
  1.50000000E+00  1.50000000E+00  8.00000000E-01  8.00000000E-01  1.50000000E+00
  1.50000000E+00  8.00000000E-01  8.00000000E-01  1.50000000E+00  1.50000000E+00
  8.00000000E-01  8.00000000E-01  1.50000000E+00  1.50000000E+00  8.00000000E-01
  8.00000000E-01  1.50000000E+00  1.50000000E+00  8.00000000E-01  8.00000000E-01
  1.50000000E+00  1.50000000E+00  8.00000000E-01  8.00000000E-01  1.50000000E+00
  1.50000000E+00  8.00000000E-01  8.00000000E-01  1.50000000E+00  1.50000000E+00
  8.00000000E-01  8.00000000E-01  1.50000000E+00  1.50000000E+00  8.00000000E-01
  8.00000000E-01  1.50000000E+00  1.50000000E+00  8.00000000E-01  8.00000000E-01
  1.50000000E+00  1.50000000E+00  8.00000000E-01  8.00000000E-01  1.50000000E+00
  1.50000000E+00  8.00000000E-01  8.00000000E-01  1.50000000E+00  1.50000000E+00
  8.00000000E-01  8.00000000E-01  1.50000000E+00  1.50000000E+00  8.00000000E-01
  8.00000000E-01  1.50000000E+00  1.50000000E+00  8.00000000E-01  8.00000000E-01
  1.50000000E+00  1.50000000E+00  8.00000000E-01  8.00000000E-01  1.50000000E+00
  1.50000000E+00  8.00000000E-01  8.00000000E-01  1.50000000E+00  1.50000000E+00
  8.00000000E-01  8.00000000E-01  1.50000000E+00  1.50000000E+00  8.00000000E-01
  8.00000000E-01  1.50000000E+00  1.50000000E+00  8.00000000E-01  8.00000000E-01
  1.50000000E+00  1.50000000E+00  8.00000000E-01  8.00000000E-01  1.50000000E+00
  1.50000000E+00  8.00000000E-01  8.00000000E-01  1.50000000E+00  1.50000000E+00
  8.00000000E-01  8.00000000E-01  1.50000000E+00  1.50000000E+00  8.00000000E-01
  8.00000000E-01  1.50000000E+00  1.50000000E+00  8.00000000E-01  8.00000000E-01
  1.50000000E+00  1.50000000E+00  8.00000000E-01  8.00000000E-01  1.50000000E+00
  1.50000000E+00  8.00000000E-01  8.00000000E-01  1.50000000E+00  1.50000000E+00
  8.00000000E-01  8.00000000E-01  1.50000000E+00  1.50000000E+00  8.00000000E-01
  8.00000000E-01  1.50000000E+00  1.50000000E+00  8.00000000E-01  8.00000000E-01
  1.50000000E+00  1.50000000E+00  8.00000000E-01  8.00000000E-01  1.50000000E+00
  1.50000000E+00  8.00000000E-01  8.00000000E-01  1.50000000E+00  1.50000000E+00
  8.00000000E-01  8.00000000E-01  1.50000000E+00  1.50000000E+00  8.00000000E-01
  8.00000000E-01  1.50000000E+00  1.50000000E+00  8.00000000E-01  8.00000000E-01
  1.50000000E+00  1.50000000E+00  8.00000000E-01  8.00000000E-01  1.50000000E+00
  1.50000000E+00  8.00000000E-01  8.00000000E-01  1.50000000E+00  1.50000000E+00
  8.00000000E-01  8.00000000E-01  1.50000000E+00  1.50000000E+00  8.00000000E-01
  8.00000000E-01  1.50000000E+00  1.50000000E+00  8.00000000E-01  8.00000000E-01
  1.50000000E+00  1.50000000E+00  8.00000000E-01  8.00000000E-01  1.50000000E+00
  1.50000000E+00  8.00000000E-01  8.00000000E-01  1.50000000E+00  1.50000000E+00
  8.00000000E-01  8.00000000E-01  1.50000000E+00  1.50000000E+00  8.00000000E-01
  8.00000000E-01  1.50000000E+00  1.50000000E+00  8.00000000E-01  8.00000000E-01
  1.50000000E+00  1.50000000E+00  8.00000000E-01  8.00000000E-01  1.50000000E+00
  1.50000000E+00  8.00000000E-01  8.00000000E-01  1.50000000E+00  1.50000000E+00
  8.00000000E-01  8.00000000E-01  1.50000000E+00  1.50000000E+00  8.00000000E-01
  8.00000000E-01  1.50000000E+00  1.50000000E+00  8.00000000E-01  8.00000000E-01
  1.50000000E+00  1.50000000E+00  8.00000000E-01  8.00000000E-01  1.50000000E+00
  1.50000000E+00  8.00000000E-01  8.00000000E-01  1.50000000E+00  1.50000000E+00
  8.00000000E-01  8.00000000E-01  1.50000000E+00  1.50000000E+00  8.00000000E-01
  8.00000000E-01  1.50000000E+00  1.50000000E+00  8.00000000E-01  8.00000000E-01
  1.50000000E+00  1.50000000E+00  8.00000000E-01  8.00000000E-01  1.50000000E+00
  1.50000000E+00  8.00000000E-01  8.00000000E-01  1.50000000E+00  1.50000000E+00
  8.00000000E-01  8.00000000E-01  1.50000000E+00  1.50000000E+00  8.00000000E-01
  8.00000000E-01  1.50000000E+00  1.50000000E+00  8.00000000E-01  8.00000000E-01
  1.50000000E+00  1.50000000E+00  8.00000000E-01  8.00000000E-01  1.50000000E+00
  1.50000000E+00  8.00000000E-01  8.00000000E-01  1.50000000E+00  1.50000000E+00
  8.00000000E-01  8.00000000E-01  1.50000000E+00  1.50000000E+00  8.00000000E-01
  8.00000000E-01  1.50000000E+00  1.50000000E+00  8.00000000E-01  8.00000000E-01
  1.50000000E+00  1.50000000E+00  8.00000000E-01  8.00000000E-01  1.50000000E+00
  1.50000000E+00  8.00000000E-01  8.00000000E-01  1.50000000E+00  1.50000000E+00
  8.00000000E-01  8.00000000E-01  1.50000000E+00  1.50000000E+00  8.00000000E-01
  8.00000000E-01  1.50000000E+00  1.50000000E+00  8.00000000E-01  8.00000000E-01
  1.50000000E+00  1.50000000E+00  8.00000000E-01  8.00000000E-01  1.50000000E+00
  1.50000000E+00  8.00000000E-01  8.00000000E-01  1.50000000E+00  1.50000000E+00
  8.00000000E-01  8.00000000E-01  1.50000000E+00  1.50000000E+00  8.00000000E-01
  8.00000000E-01  1.50000000E+00  1.50000000E+00  8.00000000E-01  8.00000000E-01
  1.50000000E+00  1.50000000E+00  8.00000000E-01  8.00000000E-01  1.50000000E+00
  1.50000000E+00  8.00000000E-01  8.00000000E-01  1.50000000E+00  1.50000000E+00
  8.00000000E-01  8.00000000E-01  1.50000000E+00  1.50000000E+00  8.00000000E-01
  8.00000000E-01  1.50000000E+00  1.50000000E+00  8.00000000E-01  8.00000000E-01
  1.50000000E+00  1.50000000E+00  8.00000000E-01  8.00000000E-01  1.50000000E+00
  1.50000000E+00  8.00000000E-01  8.00000000E-01  1.50000000E+00  1.50000000E+00
  8.00000000E-01  8.00000000E-01  1.50000000E+00  1.50000000E+00  8.00000000E-01
  8.00000000E-01  1.50000000E+00  1.50000000E+00  8.00000000E-01  8.00000000E-01
  1.50000000E+00  1.50000000E+00  8.00000000E-01  8.00000000E-01  1.50000000E+00
  1.50000000E+00  8.00000000E-01  8.00000000E-01  1.50000000E+00  1.50000000E+00
  8.00000000E-01  8.00000000E-01  1.50000000E+00  1.50000000E+00  8.00000000E-01
  8.00000000E-01  1.50000000E+00  1.50000000E+00  8.00000000E-01  8.00000000E-01
  1.50000000E+00  1.50000000E+00  8.00000000E-01  8.00000000E-01  1.50000000E+00
  1.50000000E+00  8.00000000E-01  8.00000000E-01  1.50000000E+00  1.50000000E+00
  8.00000000E-01  8.00000000E-01  1.50000000E+00  1.50000000E+00  8.00000000E-01
  8.00000000E-01  1.50000000E+00  1.50000000E+00  8.00000000E-01  8.00000000E-01
  1.50000000E+00  1.50000000E+00  8.00000000E-01  8.00000000E-01  1.50000000E+00
  1.50000000E+00  8.00000000E-01  8.00000000E-01  1.50000000E+00  1.50000000E+00
  8.00000000E-01  8.00000000E-01  1.50000000E+00  1.50000000E+00  8.00000000E-01
  8.00000000E-01  1.50000000E+00  1.50000000E+00  8.00000000E-01  8.00000000E-01
  1.50000000E+00  1.50000000E+00  8.00000000E-01  8.00000000E-01  1.50000000E+00
  1.50000000E+00  8.00000000E-01  8.00000000E-01  1.50000000E+00  1.50000000E+00
  8.00000000E-01  8.00000000E-01  1.50000000E+00  1.50000000E+00  8.00000000E-01
  8.00000000E-01  1.50000000E+00  1.50000000E+00  8.00000000E-01  8.00000000E-01
  1.50000000E+00  1.50000000E+00  8.00000000E-01  8.00000000E-01  1.50000000E+00
  1.50000000E+00  8.00000000E-01  8.00000000E-01  1.50000000E+00  1.50000000E+00
  8.00000000E-01  8.00000000E-01  1.50000000E+00  1.50000000E+00  8.00000000E-01
  8.00000000E-01  1.50000000E+00  1.50000000E+00  8.00000000E-01  8.00000000E-01
  1.50000000E+00  1.50000000E+00  8.00000000E-01  8.00000000E-01  1.50000000E+00
  1.50000000E+00  8.00000000E-01  8.00000000E-01  1.50000000E+00  1.50000000E+00
  8.00000000E-01  8.00000000E-01  1.50000000E+00  1.50000000E+00  8.00000000E-01
  8.00000000E-01  1.50000000E+00  1.50000000E+00  8.00000000E-01  8.00000000E-01
  1.50000000E+00  1.50000000E+00  8.00000000E-01  8.00000000E-01  1.50000000E+00
  1.50000000E+00  8.00000000E-01  8.00000000E-01  1.50000000E+00  1.50000000E+00
  8.00000000E-01  8.00000000E-01  1.50000000E+00  1.50000000E+00  8.00000000E-01
  8.00000000E-01  1.50000000E+00  1.50000000E+00  8.00000000E-01  8.00000000E-01
  1.50000000E+00  1.50000000E+00  8.00000000E-01  8.00000000E-01  1.50000000E+00
  1.50000000E+00  8.00000000E-01  8.00000000E-01  1.50000000E+00  1.50000000E+00
  8.00000000E-01  8.00000000E-01  1.50000000E+00  1.50000000E+00  8.00000000E-01
  8.00000000E-01  1.50000000E+00  1.50000000E+00  8.00000000E-01  8.00000000E-01
  1.50000000E+00  1.50000000E+00  8.00000000E-01  8.00000000E-01  1.50000000E+00
  1.50000000E+00  8.00000000E-01  8.00000000E-01  1.50000000E+00  1.50000000E+00
  8.00000000E-01  8.00000000E-01  1.50000000E+00  1.50000000E+00  8.00000000E-01
  8.00000000E-01  1.50000000E+00  1.50000000E+00  8.00000000E-01  8.00000000E-01
  1.50000000E+00  1.50000000E+00  8.00000000E-01  8.00000000E-01  1.50000000E+00
  1.50000000E+00  8.00000000E-01  8.00000000E-01  1.50000000E+00  1.50000000E+00
  8.00000000E-01  8.00000000E-01  1.50000000E+00  1.50000000E+00  8.00000000E-01
  8.00000000E-01  1.50000000E+00  1.50000000E+00  8.00000000E-01  8.00000000E-01
  1.50000000E+00  1.50000000E+00  8.00000000E-01  8.00000000E-01  1.50000000E+00
  1.50000000E+00  8.00000000E-01  8.00000000E-01  1.50000000E+00  1.50000000E+00
  8.00000000E-01  8.00000000E-01  1.50000000E+00  1.50000000E+00  8.00000000E-01
  8.00000000E-01  1.50000000E+00  1.50000000E+00  8.00000000E-01  8.00000000E-01
  1.50000000E+00  1.50000000E+00  8.00000000E-01  8.00000000E-01  1.50000000E+00
  1.50000000E+00  8.00000000E-01  8.00000000E-01  1.50000000E+00  1.50000000E+00
  8.00000000E-01  8.00000000E-01  1.50000000E+00  1.50000000E+00  8.00000000E-01
  8.00000000E-01  1.50000000E+00  1.50000000E+00  8.00000000E-01  8.00000000E-01
  1.50000000E+00  1.50000000E+00  8.00000000E-01  8.00000000E-01  1.50000000E+00
  1.50000000E+00  8.00000000E-01  8.00000000E-01  1.50000000E+00  1.50000000E+00
  8.00000000E-01  8.00000000E-01  1.50000000E+00  1.50000000E+00  8.00000000E-01
  8.00000000E-01  1.50000000E+00  1.50000000E+00  8.00000000E-01  8.00000000E-01
  1.50000000E+00  1.50000000E+00  8.00000000E-01  8.00000000E-01  1.50000000E+00
  1.50000000E+00  8.00000000E-01  8.00000000E-01  1.50000000E+00  1.50000000E+00
  8.00000000E-01  8.00000000E-01  1.50000000E+00  1.50000000E+00  8.00000000E-01
  8.00000000E-01  1.50000000E+00  1.50000000E+00  8.00000000E-01  8.00000000E-01
  1.50000000E+00  1.50000000E+00  8.00000000E-01  8.00000000E-01  1.50000000E+00
  1.50000000E+00  8.00000000E-01  8.00000000E-01  1.50000000E+00  1.50000000E+00
  8.00000000E-01  8.00000000E-01  1.50000000E+00  1.50000000E+00  8.00000000E-01
  8.00000000E-01  1.50000000E+00  1.50000000E+00  8.00000000E-01  8.00000000E-01
  1.50000000E+00  1.50000000E+00  8.00000000E-01  8.00000000E-01  1.50000000E+00
  1.50000000E+00  8.00000000E-01  8.00000000E-01  1.50000000E+00  1.50000000E+00
  8.00000000E-01  8.00000000E-01  1.50000000E+00  1.50000000E+00  8.00000000E-01
  8.00000000E-01  1.50000000E+00  1.50000000E+00  8.00000000E-01  8.00000000E-01
  1.50000000E+00  1.50000000E+00  8.00000000E-01  8.00000000E-01  1.50000000E+00
  1.50000000E+00  8.00000000E-01  8.00000000E-01  1.50000000E+00  1.50000000E+00
  8.00000000E-01  8.00000000E-01  1.50000000E+00  1.50000000E+00  8.00000000E-01
  8.00000000E-01  1.50000000E+00  1.50000000E+00  8.00000000E-01  8.00000000E-01
  1.50000000E+00  1.50000000E+00  8.00000000E-01  8.00000000E-01  1.50000000E+00
  1.50000000E+00  8.00000000E-01  8.00000000E-01  1.50000000E+00  1.50000000E+00
  8.00000000E-01  8.00000000E-01  1.50000000E+00  1.50000000E+00  8.00000000E-01
  8.00000000E-01  1.50000000E+00  1.50000000E+00  8.00000000E-01  8.00000000E-01
  1.50000000E+00  1.50000000E+00  8.00000000E-01  8.00000000E-01  1.50000000E+00
  1.50000000E+00  8.00000000E-01  8.00000000E-01  1.50000000E+00  1.50000000E+00
  8.00000000E-01  8.00000000E-01  1.50000000E+00  1.50000000E+00  8.00000000E-01
  8.00000000E-01  1.50000000E+00  1.50000000E+00  8.00000000E-01  8.00000000E-01
  1.50000000E+00  1.50000000E+00  8.00000000E-01  8.00000000E-01  1.50000000E+00
  1.50000000E+00  8.00000000E-01  8.00000000E-01  1.50000000E+00  1.50000000E+00
  8.00000000E-01  8.00000000E-01  1.50000000E+00  1.50000000E+00  8.00000000E-01
  8.00000000E-01  1.50000000E+00  1.50000000E+00  8.00000000E-01  8.00000000E-01
  1.50000000E+00  1.50000000E+00  8.00000000E-01  8.00000000E-01  1.50000000E+00
  1.50000000E+00  8.00000000E-01  8.00000000E-01  1.50000000E+00  1.50000000E+00
  8.00000000E-01  8.00000000E-01  1.50000000E+00  1.50000000E+00  8.00000000E-01
  8.00000000E-01  1.50000000E+00  1.50000000E+00  8.00000000E-01  8.00000000E-01
  1.50000000E+00  1.50000000E+00  8.00000000E-01  8.00000000E-01  1.50000000E+00
  1.50000000E+00  8.00000000E-01  8.00000000E-01  1.50000000E+00  1.50000000E+00
  8.00000000E-01  8.00000000E-01  1.50000000E+00  1.50000000E+00  8.00000000E-01
  8.00000000E-01  1.50000000E+00  1.50000000E+00  8.00000000E-01  8.00000000E-01
  1.50000000E+00  1.50000000E+00  8.00000000E-01  8.00000000E-01  1.50000000E+00
  1.50000000E+00  8.00000000E-01  8.00000000E-01  1.50000000E+00  1.50000000E+00
  8.00000000E-01  8.00000000E-01  1.50000000E+00  1.50000000E+00  8.00000000E-01
  8.00000000E-01  1.50000000E+00  1.50000000E+00  8.00000000E-01  8.00000000E-01
  1.50000000E+00  1.50000000E+00  8.00000000E-01  8.00000000E-01  1.50000000E+00
  1.50000000E+00  8.00000000E-01  8.00000000E-01  1.50000000E+00  1.50000000E+00
  8.00000000E-01  8.00000000E-01  1.50000000E+00  1.50000000E+00  8.00000000E-01
  8.00000000E-01  1.50000000E+00  1.50000000E+00  8.00000000E-01  8.00000000E-01
  1.50000000E+00  1.50000000E+00  8.00000000E-01  8.00000000E-01  1.50000000E+00
  1.50000000E+00  8.00000000E-01  8.00000000E-01  1.50000000E+00  1.50000000E+00
  8.00000000E-01  8.00000000E-01  1.50000000E+00  1.50000000E+00  8.00000000E-01
  8.00000000E-01  1.50000000E+00  1.50000000E+00  8.00000000E-01  8.00000000E-01
  1.50000000E+00  1.50000000E+00  8.00000000E-01  8.00000000E-01  1.50000000E+00
  1.50000000E+00  8.00000000E-01  8.00000000E-01  1.50000000E+00  1.50000000E+00
  8.00000000E-01  8.00000000E-01  1.50000000E+00  1.50000000E+00  8.00000000E-01
  8.00000000E-01  1.50000000E+00  1.50000000E+00  8.00000000E-01  8.00000000E-01
  1.50000000E+00  1.50000000E+00  8.00000000E-01  8.00000000E-01  1.50000000E+00
  1.50000000E+00  8.00000000E-01  8.00000000E-01  1.50000000E+00  1.50000000E+00
  8.00000000E-01  8.00000000E-01  1.50000000E+00  1.50000000E+00  8.00000000E-01
  8.00000000E-01  1.50000000E+00  1.50000000E+00  8.00000000E-01  8.00000000E-01
  1.50000000E+00  1.50000000E+00  8.00000000E-01  8.00000000E-01  1.50000000E+00
  1.50000000E+00  8.00000000E-01  8.00000000E-01  1.50000000E+00  1.50000000E+00
  8.00000000E-01  8.00000000E-01  1.50000000E+00  1.50000000E+00  8.00000000E-01
  8.00000000E-01  1.50000000E+00  1.50000000E+00  8.00000000E-01  8.00000000E-01
  1.50000000E+00  1.50000000E+00  8.00000000E-01  8.00000000E-01  1.50000000E+00
  1.50000000E+00  8.00000000E-01  8.00000000E-01  1.50000000E+00  1.50000000E+00
  8.00000000E-01  8.00000000E-01  1.50000000E+00  1.50000000E+00  8.00000000E-01
  8.00000000E-01  1.50000000E+00  1.50000000E+00  8.00000000E-01  8.00000000E-01
  1.50000000E+00  1.50000000E+00  8.00000000E-01  8.00000000E-01  1.50000000E+00
  1.50000000E+00  8.00000000E-01  8.00000000E-01  1.50000000E+00  1.50000000E+00
  8.00000000E-01  8.00000000E-01  1.50000000E+00  1.50000000E+00  8.00000000E-01
  8.00000000E-01  1.50000000E+00  1.50000000E+00  8.00000000E-01  8.00000000E-01
  1.50000000E+00  1.50000000E+00  8.00000000E-01  8.00000000E-01  1.50000000E+00
  1.50000000E+00  8.00000000E-01  8.00000000E-01  1.50000000E+00  1.50000000E+00
  8.00000000E-01  8.00000000E-01  1.50000000E+00  1.50000000E+00  8.00000000E-01
  8.00000000E-01  1.50000000E+00  1.50000000E+00  8.00000000E-01  8.00000000E-01
  1.50000000E+00  1.50000000E+00  8.00000000E-01  8.00000000E-01  1.50000000E+00
  1.50000000E+00  8.00000000E-01  8.00000000E-01  1.50000000E+00  1.50000000E+00
  8.00000000E-01  8.00000000E-01  1.50000000E+00  1.50000000E+00  8.00000000E-01
  8.00000000E-01  1.50000000E+00  1.50000000E+00  8.00000000E-01  8.00000000E-01
  1.50000000E+00  1.50000000E+00  8.00000000E-01  8.00000000E-01  1.50000000E+00
  1.50000000E+00  8.00000000E-01  8.00000000E-01  1.50000000E+00  1.50000000E+00
  8.00000000E-01  8.00000000E-01  1.50000000E+00  1.50000000E+00  8.00000000E-01
  8.00000000E-01  1.50000000E+00  1.50000000E+00  8.00000000E-01  8.00000000E-01
  1.50000000E+00  1.50000000E+00  8.00000000E-01  8.00000000E-01  1.50000000E+00
  1.50000000E+00  8.00000000E-01  8.00000000E-01  1.50000000E+00  1.50000000E+00
  8.00000000E-01  8.00000000E-01  1.50000000E+00  1.50000000E+00  8.00000000E-01
  8.00000000E-01  1.50000000E+00  1.50000000E+00  8.00000000E-01  8.00000000E-01
  1.50000000E+00  1.50000000E+00  8.00000000E-01  8.00000000E-01  1.50000000E+00
  1.50000000E+00  8.00000000E-01  8.00000000E-01  1.50000000E+00  1.50000000E+00
  8.00000000E-01  8.00000000E-01  1.50000000E+00  1.50000000E+00  8.00000000E-01
  8.00000000E-01  1.50000000E+00  1.50000000E+00  8.00000000E-01  8.00000000E-01
  1.50000000E+00  1.50000000E+00  8.00000000E-01  8.00000000E-01  1.50000000E+00
  1.50000000E+00  8.00000000E-01  8.00000000E-01  1.50000000E+00  1.50000000E+00
  8.00000000E-01  8.00000000E-01  1.50000000E+00  1.50000000E+00  8.00000000E-01
  8.00000000E-01  1.50000000E+00  1.50000000E+00  8.00000000E-01  8.00000000E-01
  1.50000000E+00  1.50000000E+00  8.00000000E-01  8.00000000E-01  1.50000000E+00
  1.50000000E+00  8.00000000E-01  8.00000000E-01  1.50000000E+00  1.50000000E+00
  8.00000000E-01  8.00000000E-01  1.50000000E+00  1.50000000E+00  8.00000000E-01
  8.00000000E-01  1.50000000E+00  1.50000000E+00  8.00000000E-01  8.00000000E-01
  1.50000000E+00  1.50000000E+00  8.00000000E-01  8.00000000E-01  1.50000000E+00
  1.50000000E+00  8.00000000E-01  8.00000000E-01  1.50000000E+00  1.50000000E+00
  8.00000000E-01  8.00000000E-01  1.50000000E+00  1.50000000E+00  8.00000000E-01
  8.00000000E-01  1.50000000E+00  1.50000000E+00  8.00000000E-01  8.00000000E-01
  1.50000000E+00  1.50000000E+00  8.00000000E-01  8.00000000E-01  1.50000000E+00
  1.50000000E+00  8.00000000E-01  8.00000000E-01  1.50000000E+00  1.50000000E+00
  8.00000000E-01  8.00000000E-01  1.50000000E+00  1.50000000E+00  8.00000000E-01
  8.00000000E-01  1.50000000E+00  1.50000000E+00  8.00000000E-01  8.00000000E-01
  1.50000000E+00  1.50000000E+00  8.00000000E-01  8.00000000E-01  1.50000000E+00
  1.50000000E+00  8.00000000E-01  8.00000000E-01  1.50000000E+00  1.50000000E+00
  8.00000000E-01  8.00000000E-01  1.50000000E+00  1.50000000E+00  8.00000000E-01
  8.00000000E-01  1.50000000E+00  1.50000000E+00  8.00000000E-01  8.00000000E-01
  1.50000000E+00  1.50000000E+00  8.00000000E-01  8.00000000E-01  1.50000000E+00
  1.50000000E+00  8.00000000E-01  8.00000000E-01  1.50000000E+00  1.50000000E+00
  8.00000000E-01  8.00000000E-01  1.50000000E+00  1.50000000E+00  8.00000000E-01
  8.00000000E-01  1.50000000E+00  1.50000000E+00  8.00000000E-01  8.00000000E-01
  1.50000000E+00  1.50000000E+00  8.00000000E-01  8.00000000E-01  1.50000000E+00
  1.50000000E+00  8.00000000E-01  8.00000000E-01  1.50000000E+00  1.50000000E+00
  8.00000000E-01  8.00000000E-01  1.50000000E+00  1.50000000E+00  8.00000000E-01
  8.00000000E-01  1.50000000E+00  1.50000000E+00  8.00000000E-01  8.00000000E-01
  1.50000000E+00  1.50000000E+00  8.00000000E-01  8.00000000E-01  1.50000000E+00
  1.50000000E+00  8.00000000E-01  8.00000000E-01  1.50000000E+00  1.50000000E+00
  8.00000000E-01  8.00000000E-01  1.50000000E+00  1.50000000E+00  8.00000000E-01
  8.00000000E-01  1.50000000E+00  1.50000000E+00  8.00000000E-01  8.00000000E-01
  1.50000000E+00  1.50000000E+00  8.00000000E-01  8.00000000E-01  1.50000000E+00
  1.50000000E+00  8.00000000E-01  8.00000000E-01  1.50000000E+00  1.50000000E+00
  8.00000000E-01  8.00000000E-01  1.50000000E+00  1.50000000E+00  8.00000000E-01
  8.00000000E-01  1.50000000E+00  1.50000000E+00  8.00000000E-01  8.00000000E-01
  1.50000000E+00  1.50000000E+00  8.00000000E-01  8.00000000E-01  1.50000000E+00
  1.50000000E+00  8.00000000E-01  8.00000000E-01  1.50000000E+00  1.50000000E+00
  8.00000000E-01  8.00000000E-01  1.50000000E+00  1.50000000E+00  8.00000000E-01
  8.00000000E-01  1.50000000E+00  1.50000000E+00  8.00000000E-01  8.00000000E-01
  1.50000000E+00  1.50000000E+00  8.00000000E-01  8.00000000E-01  1.50000000E+00
  1.50000000E+00  8.00000000E-01  8.00000000E-01  1.50000000E+00  1.50000000E+00
  8.00000000E-01  8.00000000E-01  1.50000000E+00  1.50000000E+00  8.00000000E-01
  8.00000000E-01  1.50000000E+00  1.50000000E+00  8.00000000E-01  8.00000000E-01
  1.50000000E+00  1.50000000E+00  8.00000000E-01  8.00000000E-01  1.50000000E+00
  1.50000000E+00  8.00000000E-01  8.00000000E-01  1.50000000E+00  1.50000000E+00
  8.00000000E-01  8.00000000E-01  1.50000000E+00  1.50000000E+00  8.00000000E-01
  8.00000000E-01  1.50000000E+00  1.50000000E+00  8.00000000E-01  8.00000000E-01
  1.50000000E+00  1.50000000E+00  8.00000000E-01  8.00000000E-01  1.50000000E+00
  1.50000000E+00  8.00000000E-01  8.00000000E-01  1.50000000E+00  1.50000000E+00
  8.00000000E-01  8.00000000E-01  1.50000000E+00  1.50000000E+00  8.00000000E-01
  8.00000000E-01  1.50000000E+00  1.50000000E+00  8.00000000E-01  8.00000000E-01
  1.50000000E+00  1.50000000E+00  8.00000000E-01  8.00000000E-01  1.50000000E+00
  1.50000000E+00  8.00000000E-01  8.00000000E-01  1.50000000E+00  1.50000000E+00
  8.00000000E-01  8.00000000E-01  1.50000000E+00  1.50000000E+00  8.00000000E-01
  8.00000000E-01  1.50000000E+00  1.50000000E+00  8.00000000E-01  8.00000000E-01
  1.50000000E+00  1.50000000E+00  8.00000000E-01  8.00000000E-01  1.50000000E+00
  1.50000000E+00  8.00000000E-01  8.00000000E-01  1.50000000E+00  1.50000000E+00
  8.00000000E-01  8.00000000E-01  1.50000000E+00  1.50000000E+00  8.00000000E-01
  8.00000000E-01  1.50000000E+00  1.50000000E+00  8.00000000E-01  8.00000000E-01
  1.50000000E+00  1.50000000E+00  8.00000000E-01  8.00000000E-01  1.50000000E+00
  1.50000000E+00  8.00000000E-01  8.00000000E-01  1.50000000E+00  1.50000000E+00
  8.00000000E-01  8.00000000E-01  1.50000000E+00  1.50000000E+00  8.00000000E-01
  8.00000000E-01  1.50000000E+00  1.50000000E+00  8.00000000E-01  8.00000000E-01
  1.50000000E+00  1.50000000E+00  8.00000000E-01  8.00000000E-01  1.50000000E+00
  1.50000000E+00  8.00000000E-01  8.00000000E-01  1.50000000E+00  1.50000000E+00
  8.00000000E-01  8.00000000E-01  1.50000000E+00  1.50000000E+00  8.00000000E-01
  8.00000000E-01  1.50000000E+00  1.50000000E+00  8.00000000E-01  8.00000000E-01
  1.50000000E+00  1.50000000E+00  8.00000000E-01  8.00000000E-01  1.50000000E+00
  1.50000000E+00  8.00000000E-01  8.00000000E-01  1.50000000E+00  1.50000000E+00
  8.00000000E-01  8.00000000E-01  1.50000000E+00  1.50000000E+00  8.00000000E-01
  8.00000000E-01  1.50000000E+00  1.50000000E+00  8.00000000E-01  8.00000000E-01
  1.50000000E+00  1.50000000E+00  8.00000000E-01  8.00000000E-01  1.50000000E+00
  1.50000000E+00  8.00000000E-01  8.00000000E-01  1.50000000E+00  1.50000000E+00
  8.00000000E-01  8.00000000E-01  1.50000000E+00  1.50000000E+00  8.00000000E-01
  8.00000000E-01  1.50000000E+00  1.50000000E+00  8.00000000E-01  8.00000000E-01
  1.50000000E+00  1.50000000E+00  8.00000000E-01  8.00000000E-01  1.50000000E+00
  1.50000000E+00  8.00000000E-01  8.00000000E-01  1.50000000E+00  1.50000000E+00
  8.00000000E-01  8.00000000E-01  1.50000000E+00  1.50000000E+00  8.00000000E-01
  8.00000000E-01  1.50000000E+00  1.50000000E+00  8.00000000E-01  8.00000000E-01
  1.50000000E+00  1.50000000E+00  8.00000000E-01  8.00000000E-01  1.50000000E+00
  1.50000000E+00  8.00000000E-01  8.00000000E-01  1.50000000E+00  1.50000000E+00
  8.00000000E-01  8.00000000E-01  1.50000000E+00  1.50000000E+00  8.00000000E-01
  8.00000000E-01  1.50000000E+00  1.50000000E+00  8.00000000E-01  8.00000000E-01
  1.50000000E+00  1.50000000E+00  8.00000000E-01  8.00000000E-01  1.50000000E+00
  1.50000000E+00  8.00000000E-01  8.00000000E-01  1.50000000E+00  1.50000000E+00
  8.00000000E-01  8.00000000E-01  1.50000000E+00  1.50000000E+00  8.00000000E-01
  8.00000000E-01  1.50000000E+00  1.50000000E+00  8.00000000E-01  8.00000000E-01
  1.50000000E+00  1.50000000E+00  8.00000000E-01  8.00000000E-01  1.50000000E+00
  1.50000000E+00  8.00000000E-01  8.00000000E-01  1.50000000E+00  1.50000000E+00
  8.00000000E-01  8.00000000E-01  1.50000000E+00  1.50000000E+00  8.00000000E-01
  8.00000000E-01  1.50000000E+00  1.50000000E+00  8.00000000E-01  8.00000000E-01
  1.50000000E+00  1.50000000E+00  8.00000000E-01  8.00000000E-01  1.50000000E+00
  1.50000000E+00  8.00000000E-01  8.00000000E-01  1.50000000E+00  1.50000000E+00
  8.00000000E-01  8.00000000E-01  1.50000000E+00  1.50000000E+00  8.00000000E-01
  8.00000000E-01  1.50000000E+00  1.50000000E+00  8.00000000E-01  8.00000000E-01
  1.50000000E+00  1.50000000E+00  8.00000000E-01  8.00000000E-01  1.50000000E+00
  1.50000000E+00  8.00000000E-01  8.00000000E-01  1.50000000E+00  1.50000000E+00
  8.00000000E-01  8.00000000E-01  1.50000000E+00  1.50000000E+00  8.00000000E-01
  8.00000000E-01  1.50000000E+00  1.50000000E+00  8.00000000E-01  8.00000000E-01
  1.50000000E+00  1.50000000E+00  8.00000000E-01  8.00000000E-01  1.50000000E+00
  1.50000000E+00  8.00000000E-01  8.00000000E-01  1.50000000E+00  1.50000000E+00
  8.00000000E-01  8.00000000E-01  1.50000000E+00  1.50000000E+00  8.00000000E-01
  8.00000000E-01  1.50000000E+00  1.50000000E+00  8.00000000E-01  8.00000000E-01
  1.50000000E+00  1.50000000E+00  8.00000000E-01  8.00000000E-01  1.50000000E+00
  1.50000000E+00  8.00000000E-01  8.00000000E-01  1.50000000E+00  1.50000000E+00
  8.00000000E-01  8.00000000E-01  1.50000000E+00  1.50000000E+00  8.00000000E-01
  8.00000000E-01  1.50000000E+00  1.50000000E+00  8.00000000E-01  8.00000000E-01
  1.50000000E+00  1.50000000E+00  8.00000000E-01  8.00000000E-01  1.50000000E+00
  1.50000000E+00  8.00000000E-01  8.00000000E-01  1.50000000E+00  1.50000000E+00
  8.00000000E-01  8.00000000E-01  1.50000000E+00  1.50000000E+00  8.00000000E-01
  8.00000000E-01  1.50000000E+00  1.50000000E+00  8.00000000E-01  8.00000000E-01
  1.50000000E+00  1.50000000E+00  8.00000000E-01  8.00000000E-01  1.50000000E+00
  1.50000000E+00  8.00000000E-01  8.00000000E-01  1.50000000E+00  1.50000000E+00
  8.00000000E-01  8.00000000E-01  1.50000000E+00  1.50000000E+00  8.00000000E-01
  8.00000000E-01  1.50000000E+00  1.50000000E+00  8.00000000E-01  8.00000000E-01
  1.50000000E+00  1.50000000E+00  8.00000000E-01  8.00000000E-01  1.50000000E+00
  1.50000000E+00  8.00000000E-01  8.00000000E-01  1.50000000E+00  1.50000000E+00
  8.00000000E-01  8.00000000E-01  1.50000000E+00  1.50000000E+00  8.00000000E-01
  8.00000000E-01  1.50000000E+00  1.50000000E+00  8.00000000E-01  8.00000000E-01
  1.50000000E+00  1.50000000E+00  8.00000000E-01  8.00000000E-01  1.50000000E+00
  1.50000000E+00  8.00000000E-01  8.00000000E-01  1.50000000E+00  1.50000000E+00
  8.00000000E-01  8.00000000E-01  1.50000000E+00  1.50000000E+00  8.00000000E-01
  8.00000000E-01  1.50000000E+00  1.50000000E+00  8.00000000E-01  8.00000000E-01
  1.50000000E+00  1.50000000E+00  8.00000000E-01  8.00000000E-01  1.50000000E+00
  1.50000000E+00  8.00000000E-01  8.00000000E-01  1.50000000E+00  1.50000000E+00
  8.00000000E-01  8.00000000E-01  1.50000000E+00  1.50000000E+00  8.00000000E-01
  8.00000000E-01  1.50000000E+00  1.50000000E+00  8.00000000E-01  8.00000000E-01
  1.50000000E+00  1.50000000E+00  8.00000000E-01  8.00000000E-01  1.50000000E+00
  1.50000000E+00  8.00000000E-01  8.00000000E-01  1.50000000E+00  1.50000000E+00
  8.00000000E-01  8.00000000E-01  1.50000000E+00  1.50000000E+00  8.00000000E-01
  8.00000000E-01  1.50000000E+00  1.50000000E+00  8.00000000E-01  8.00000000E-01
  1.50000000E+00  1.50000000E+00  8.00000000E-01  8.00000000E-01  1.50000000E+00
  1.50000000E+00  8.00000000E-01  8.00000000E-01  1.50000000E+00  1.50000000E+00
  8.00000000E-01  8.00000000E-01  1.50000000E+00  1.50000000E+00  8.00000000E-01
  8.00000000E-01  1.50000000E+00  1.50000000E+00  8.00000000E-01  8.00000000E-01
  1.50000000E+00  1.50000000E+00  8.00000000E-01  8.00000000E-01  1.50000000E+00
  1.50000000E+00  8.00000000E-01  8.00000000E-01  1.50000000E+00  1.50000000E+00
  8.00000000E-01  8.00000000E-01  1.50000000E+00  1.50000000E+00  8.00000000E-01
  8.00000000E-01  1.50000000E+00  1.50000000E+00  8.00000000E-01  8.00000000E-01
  1.50000000E+00  1.50000000E+00  8.00000000E-01  8.00000000E-01  1.50000000E+00
  1.50000000E+00  8.00000000E-01  8.00000000E-01  1.50000000E+00  1.50000000E+00
  8.00000000E-01  8.00000000E-01  1.50000000E+00  1.50000000E+00  8.00000000E-01
  8.00000000E-01  1.50000000E+00  1.50000000E+00  8.00000000E-01  8.00000000E-01
  1.50000000E+00  1.50000000E+00  8.00000000E-01  8.00000000E-01  1.50000000E+00
  1.50000000E+00  8.00000000E-01  8.00000000E-01  1.50000000E+00  1.50000000E+00
  8.00000000E-01  8.00000000E-01  1.50000000E+00  1.50000000E+00  8.00000000E-01
  8.00000000E-01  1.50000000E+00  1.50000000E+00  8.00000000E-01  8.00000000E-01
  1.50000000E+00  1.50000000E+00  8.00000000E-01  8.00000000E-01  1.50000000E+00
  1.50000000E+00  8.00000000E-01  8.00000000E-01  1.50000000E+00  1.50000000E+00
  8.00000000E-01  8.00000000E-01  1.50000000E+00  1.50000000E+00  8.00000000E-01
  8.00000000E-01  1.50000000E+00  1.50000000E+00  8.00000000E-01  8.00000000E-01
  1.50000000E+00  1.50000000E+00  8.00000000E-01  8.00000000E-01  1.50000000E+00
  1.50000000E+00  8.00000000E-01  8.00000000E-01  1.50000000E+00  1.50000000E+00
  8.00000000E-01  8.00000000E-01  1.50000000E+00  1.50000000E+00  8.00000000E-01
  8.00000000E-01  1.50000000E+00  1.50000000E+00  8.00000000E-01  8.00000000E-01
  1.50000000E+00  1.50000000E+00  8.00000000E-01  8.00000000E-01  1.50000000E+00
  1.50000000E+00  8.00000000E-01  8.00000000E-01  1.50000000E+00  1.50000000E+00
  8.00000000E-01  8.00000000E-01  1.50000000E+00  1.50000000E+00  8.00000000E-01
  8.00000000E-01  1.50000000E+00  1.50000000E+00  8.00000000E-01  8.00000000E-01
  1.50000000E+00  1.50000000E+00  8.00000000E-01  8.00000000E-01  1.50000000E+00
  1.50000000E+00  8.00000000E-01  8.00000000E-01  1.50000000E+00  1.50000000E+00
  8.00000000E-01  8.00000000E-01  1.50000000E+00  1.50000000E+00  8.00000000E-01
  8.00000000E-01  1.50000000E+00  1.50000000E+00  8.00000000E-01  8.00000000E-01
  1.50000000E+00  1.50000000E+00  8.00000000E-01  8.00000000E-01  1.50000000E+00
  1.50000000E+00  8.00000000E-01  8.00000000E-01  1.50000000E+00  1.50000000E+00
  8.00000000E-01  8.00000000E-01  1.50000000E+00  1.50000000E+00  8.00000000E-01
  8.00000000E-01  1.50000000E+00  1.50000000E+00  8.00000000E-01  8.00000000E-01
  1.50000000E+00  1.50000000E+00  8.00000000E-01  8.00000000E-01  1.50000000E+00
  1.50000000E+00  8.00000000E-01  8.00000000E-01  1.50000000E+00  1.50000000E+00
  8.00000000E-01  8.00000000E-01  1.50000000E+00  1.50000000E+00  8.00000000E-01
  8.00000000E-01  1.50000000E+00  1.50000000E+00  8.00000000E-01  8.00000000E-01
  1.50000000E+00  1.50000000E+00  8.00000000E-01  8.00000000E-01  1.50000000E+00
  1.50000000E+00  8.00000000E-01  8.00000000E-01  1.50000000E+00  1.50000000E+00
  8.00000000E-01  8.00000000E-01  1.50000000E+00  1.50000000E+00  8.00000000E-01
  8.00000000E-01  1.50000000E+00  1.50000000E+00  8.00000000E-01  8.00000000E-01
  1.50000000E+00  1.50000000E+00  8.00000000E-01  8.00000000E-01  1.50000000E+00
  1.50000000E+00  8.00000000E-01  8.00000000E-01  1.50000000E+00  1.50000000E+00
  8.00000000E-01  8.00000000E-01  1.50000000E+00  1.50000000E+00  8.00000000E-01
  8.00000000E-01  1.50000000E+00  1.50000000E+00  8.00000000E-01  8.00000000E-01
  1.50000000E+00  1.50000000E+00  8.00000000E-01  8.00000000E-01  1.50000000E+00
  1.50000000E+00  8.00000000E-01  8.00000000E-01  1.50000000E+00  1.50000000E+00
  8.00000000E-01  8.00000000E-01  1.50000000E+00  1.50000000E+00  8.00000000E-01
  8.00000000E-01  1.50000000E+00  1.50000000E+00  8.00000000E-01  8.00000000E-01
  1.50000000E+00  1.50000000E+00  8.00000000E-01  8.00000000E-01  1.50000000E+00
  1.50000000E+00  8.00000000E-01  8.00000000E-01  1.50000000E+00  1.50000000E+00
  8.00000000E-01  8.00000000E-01  1.50000000E+00  1.50000000E+00  8.00000000E-01
  8.00000000E-01  1.50000000E+00  1.50000000E+00  8.00000000E-01  8.00000000E-01
  1.50000000E+00  1.50000000E+00  8.00000000E-01  8.00000000E-01  1.50000000E+00
  1.50000000E+00  8.00000000E-01  8.00000000E-01  1.50000000E+00  1.50000000E+00
  8.00000000E-01  8.00000000E-01  1.50000000E+00  1.50000000E+00  8.00000000E-01
  8.00000000E-01  1.50000000E+00  1.50000000E+00  8.00000000E-01  8.00000000E-01
  1.50000000E+00  1.50000000E+00  8.00000000E-01  8.00000000E-01  1.50000000E+00
  1.50000000E+00  8.00000000E-01  8.00000000E-01  1.50000000E+00  1.50000000E+00
  8.00000000E-01  8.00000000E-01  1.50000000E+00  1.50000000E+00  8.00000000E-01
  8.00000000E-01  1.50000000E+00  1.50000000E+00  8.00000000E-01  8.00000000E-01
  1.50000000E+00  1.50000000E+00  8.00000000E-01  8.00000000E-01  1.50000000E+00
  1.50000000E+00  8.00000000E-01  8.00000000E-01  1.50000000E+00  1.50000000E+00
  8.00000000E-01  8.00000000E-01  1.50000000E+00  1.50000000E+00  8.00000000E-01
  8.00000000E-01  1.50000000E+00  1.50000000E+00  8.00000000E-01  8.00000000E-01
  1.50000000E+00  1.50000000E+00  8.00000000E-01  8.00000000E-01  1.50000000E+00
  1.50000000E+00  8.00000000E-01  8.00000000E-01  1.50000000E+00  1.50000000E+00
  8.00000000E-01  8.00000000E-01  1.50000000E+00  1.50000000E+00  8.00000000E-01
  8.00000000E-01  1.50000000E+00  1.50000000E+00  8.00000000E-01  8.00000000E-01
  1.50000000E+00  1.50000000E+00  8.00000000E-01  8.00000000E-01  1.50000000E+00
  1.50000000E+00  8.00000000E-01  8.00000000E-01  1.50000000E+00  1.50000000E+00
  8.00000000E-01  8.00000000E-01  1.50000000E+00  1.50000000E+00  8.00000000E-01
  8.00000000E-01  1.50000000E+00  1.50000000E+00  8.00000000E-01  8.00000000E-01
  1.50000000E+00  1.50000000E+00  8.00000000E-01  8.00000000E-01  1.50000000E+00
  1.50000000E+00  8.00000000E-01  8.00000000E-01  1.50000000E+00  1.50000000E+00
  8.00000000E-01  8.00000000E-01  1.50000000E+00  1.50000000E+00  8.00000000E-01
  8.00000000E-01  1.50000000E+00  1.50000000E+00  8.00000000E-01  8.00000000E-01
  1.50000000E+00  1.50000000E+00  8.00000000E-01  8.00000000E-01  1.50000000E+00
  1.50000000E+00  8.00000000E-01  8.00000000E-01  1.50000000E+00  1.50000000E+00
  8.00000000E-01  8.00000000E-01  1.50000000E+00  1.50000000E+00  8.00000000E-01
  8.00000000E-01  1.50000000E+00  1.50000000E+00  8.00000000E-01  8.00000000E-01
  1.50000000E+00  1.50000000E+00  8.00000000E-01  8.00000000E-01  1.50000000E+00
  1.50000000E+00  8.00000000E-01  8.00000000E-01  1.50000000E+00  1.50000000E+00
  8.00000000E-01  8.00000000E-01  1.50000000E+00  1.50000000E+00  8.00000000E-01
  8.00000000E-01  1.50000000E+00  1.50000000E+00  8.00000000E-01  8.00000000E-01
  1.50000000E+00  1.50000000E+00  8.00000000E-01  8.00000000E-01  1.50000000E+00
  1.50000000E+00  8.00000000E-01  8.00000000E-01  1.50000000E+00  1.50000000E+00
  8.00000000E-01  8.00000000E-01  1.50000000E+00  1.50000000E+00  8.00000000E-01
  8.00000000E-01  1.50000000E+00  1.50000000E+00  8.00000000E-01  8.00000000E-01
  1.50000000E+00  1.50000000E+00  8.00000000E-01  8.00000000E-01  1.50000000E+00
  1.50000000E+00  8.00000000E-01  8.00000000E-01  1.50000000E+00  1.50000000E+00
  8.00000000E-01  8.00000000E-01  1.50000000E+00  1.50000000E+00  8.00000000E-01
  8.00000000E-01  1.50000000E+00  1.50000000E+00  8.00000000E-01  8.00000000E-01
  1.50000000E+00  1.50000000E+00  8.00000000E-01  8.00000000E-01  1.50000000E+00
  1.50000000E+00  8.00000000E-01  8.00000000E-01  1.50000000E+00  1.50000000E+00
  8.00000000E-01  8.00000000E-01  1.50000000E+00  1.50000000E+00  8.00000000E-01
  8.00000000E-01  1.50000000E+00  1.50000000E+00  8.00000000E-01  8.00000000E-01
  1.50000000E+00  1.50000000E+00  8.00000000E-01  8.00000000E-01  1.50000000E+00
  1.50000000E+00  8.00000000E-01  8.00000000E-01  1.50000000E+00  1.50000000E+00
  8.00000000E-01  8.00000000E-01  1.50000000E+00  1.50000000E+00  8.00000000E-01
  8.00000000E-01  1.50000000E+00  1.50000000E+00  8.00000000E-01  8.00000000E-01
  1.50000000E+00  1.50000000E+00  8.00000000E-01  8.00000000E-01  1.50000000E+00
  1.50000000E+00  8.00000000E-01  8.00000000E-01  1.50000000E+00  1.50000000E+00
  8.00000000E-01  8.00000000E-01  1.50000000E+00  1.50000000E+00  8.00000000E-01
  8.00000000E-01  1.50000000E+00  1.50000000E+00  8.00000000E-01  8.00000000E-01
  1.50000000E+00  1.50000000E+00  8.00000000E-01  8.00000000E-01  1.50000000E+00
  1.50000000E+00  8.00000000E-01  8.00000000E-01  1.50000000E+00  1.50000000E+00
  8.00000000E-01  8.00000000E-01  1.50000000E+00  1.50000000E+00  8.00000000E-01
  8.00000000E-01  1.50000000E+00  1.50000000E+00  8.00000000E-01  8.00000000E-01
  1.50000000E+00  1.50000000E+00  8.00000000E-01  8.00000000E-01  1.50000000E+00
  1.50000000E+00  8.00000000E-01  8.00000000E-01  1.50000000E+00  1.50000000E+00
  8.00000000E-01  8.00000000E-01  1.50000000E+00  1.50000000E+00  8.00000000E-01
  8.00000000E-01  1.50000000E+00  1.50000000E+00  8.00000000E-01  8.00000000E-01
  1.50000000E+00  1.50000000E+00  8.00000000E-01  8.00000000E-01  1.50000000E+00
  1.50000000E+00  8.00000000E-01  8.00000000E-01  1.50000000E+00  1.50000000E+00
  8.00000000E-01  8.00000000E-01  1.50000000E+00  1.50000000E+00  8.00000000E-01
  8.00000000E-01  1.50000000E+00  1.50000000E+00  8.00000000E-01  8.00000000E-01
  1.50000000E+00  1.50000000E+00  8.00000000E-01  8.00000000E-01  1.50000000E+00
  1.50000000E+00  8.00000000E-01  8.00000000E-01  1.50000000E+00  1.50000000E+00
  8.00000000E-01  8.00000000E-01  1.50000000E+00  1.50000000E+00  8.00000000E-01
  8.00000000E-01  1.50000000E+00  1.50000000E+00  8.00000000E-01  8.00000000E-01
  1.50000000E+00  1.50000000E+00  8.00000000E-01  8.00000000E-01  1.50000000E+00
  1.50000000E+00  8.00000000E-01  8.00000000E-01  1.50000000E+00  1.50000000E+00
  8.00000000E-01  8.00000000E-01  1.50000000E+00  1.50000000E+00  8.00000000E-01
  8.00000000E-01  1.50000000E+00  1.50000000E+00  8.00000000E-01  8.00000000E-01
  1.50000000E+00  1.50000000E+00  8.00000000E-01  8.00000000E-01  1.50000000E+00
  1.50000000E+00  8.00000000E-01  8.00000000E-01  1.50000000E+00  1.50000000E+00
  8.00000000E-01  8.00000000E-01  1.50000000E+00  1.50000000E+00  8.00000000E-01
  8.00000000E-01  1.50000000E+00  1.50000000E+00  8.00000000E-01  8.00000000E-01
  1.50000000E+00  1.50000000E+00  8.00000000E-01  8.00000000E-01  1.50000000E+00
  1.50000000E+00  8.00000000E-01  8.00000000E-01  1.50000000E+00  1.50000000E+00
  8.00000000E-01  8.00000000E-01  1.50000000E+00  1.50000000E+00  8.00000000E-01
  8.00000000E-01  1.50000000E+00  1.50000000E+00  8.00000000E-01  8.00000000E-01
  1.50000000E+00  1.50000000E+00  8.00000000E-01  8.00000000E-01  1.50000000E+00
  1.50000000E+00  8.00000000E-01  8.00000000E-01  1.50000000E+00  1.50000000E+00
  8.00000000E-01  8.00000000E-01  1.50000000E+00  1.50000000E+00  8.00000000E-01
  8.00000000E-01  1.50000000E+00  1.50000000E+00  8.00000000E-01  8.00000000E-01
  1.50000000E+00  1.50000000E+00  8.00000000E-01  8.00000000E-01  1.50000000E+00
  1.50000000E+00  8.00000000E-01  8.00000000E-01  1.50000000E+00  1.50000000E+00
  8.00000000E-01  8.00000000E-01  1.50000000E+00  1.50000000E+00  8.00000000E-01
  8.00000000E-01  1.50000000E+00  1.50000000E+00  8.00000000E-01  8.00000000E-01
  1.50000000E+00  1.50000000E+00  8.00000000E-01  8.00000000E-01  1.50000000E+00
  1.50000000E+00  8.00000000E-01  8.00000000E-01  1.50000000E+00  1.50000000E+00
  8.00000000E-01  8.00000000E-01  1.50000000E+00  1.50000000E+00  8.00000000E-01
  8.00000000E-01  1.50000000E+00  1.50000000E+00  8.00000000E-01  8.00000000E-01
  1.50000000E+00  1.50000000E+00  8.00000000E-01  8.00000000E-01  1.50000000E+00
  1.50000000E+00  8.00000000E-01  8.00000000E-01  1.50000000E+00  1.50000000E+00
  8.00000000E-01  8.00000000E-01  1.50000000E+00  1.50000000E+00  8.00000000E-01
  8.00000000E-01  1.50000000E+00  1.50000000E+00  8.00000000E-01  8.00000000E-01
  1.50000000E+00  1.50000000E+00  8.00000000E-01  8.00000000E-01  1.50000000E+00
  1.50000000E+00  8.00000000E-01  8.00000000E-01  1.50000000E+00  1.50000000E+00
  8.00000000E-01  8.00000000E-01  1.50000000E+00  1.50000000E+00  8.00000000E-01
  8.00000000E-01  1.50000000E+00  1.50000000E+00  8.00000000E-01  8.00000000E-01
  1.50000000E+00  1.50000000E+00  8.00000000E-01  8.00000000E-01  1.50000000E+00
  1.50000000E+00  8.00000000E-01  8.00000000E-01  1.50000000E+00  1.50000000E+00
  8.00000000E-01  8.00000000E-01  1.50000000E+00  1.50000000E+00  8.00000000E-01
  8.00000000E-01  1.50000000E+00  1.50000000E+00  8.00000000E-01  8.00000000E-01
  1.50000000E+00  1.50000000E+00  8.00000000E-01  8.00000000E-01  1.50000000E+00
  1.50000000E+00  8.00000000E-01  8.00000000E-01  1.50000000E+00  1.50000000E+00
  8.00000000E-01  8.00000000E-01  1.50000000E+00  1.50000000E+00  8.00000000E-01
  8.00000000E-01  1.50000000E+00  1.50000000E+00  8.00000000E-01  8.00000000E-01
  1.50000000E+00  1.50000000E+00  8.00000000E-01  8.00000000E-01  1.50000000E+00
  1.50000000E+00  8.00000000E-01  8.00000000E-01  1.50000000E+00  1.50000000E+00
  8.00000000E-01  8.00000000E-01  1.50000000E+00  1.50000000E+00  8.00000000E-01
  8.00000000E-01  1.50000000E+00  1.50000000E+00  8.00000000E-01  8.00000000E-01
  1.50000000E+00  1.50000000E+00  8.00000000E-01  8.00000000E-01  1.50000000E+00
  1.50000000E+00  8.00000000E-01  8.00000000E-01  1.50000000E+00  1.50000000E+00
  8.00000000E-01  8.00000000E-01  1.50000000E+00  1.50000000E+00  8.00000000E-01
  8.00000000E-01  1.50000000E+00  1.50000000E+00  8.00000000E-01  8.00000000E-01
  1.50000000E+00  1.50000000E+00  8.00000000E-01  8.00000000E-01  1.50000000E+00
  1.50000000E+00  8.00000000E-01  8.00000000E-01  1.50000000E+00  1.50000000E+00
  8.00000000E-01  8.00000000E-01  1.50000000E+00  1.50000000E+00  8.00000000E-01
  8.00000000E-01  1.50000000E+00  1.50000000E+00  8.00000000E-01  8.00000000E-01
  1.50000000E+00  1.50000000E+00  8.00000000E-01  8.00000000E-01  1.50000000E+00
  1.50000000E+00  8.00000000E-01  8.00000000E-01  1.50000000E+00  1.50000000E+00
  8.00000000E-01  8.00000000E-01  1.50000000E+00  1.50000000E+00  8.00000000E-01
  8.00000000E-01  1.50000000E+00  1.50000000E+00  8.00000000E-01  8.00000000E-01
  1.50000000E+00  1.50000000E+00  8.00000000E-01  8.00000000E-01  1.50000000E+00
  1.50000000E+00  8.00000000E-01  8.00000000E-01  1.50000000E+00  1.50000000E+00
  8.00000000E-01  8.00000000E-01  1.50000000E+00  1.50000000E+00  8.00000000E-01
  8.00000000E-01  1.50000000E+00  1.50000000E+00  8.00000000E-01  8.00000000E-01
  1.50000000E+00  1.50000000E+00  8.00000000E-01  8.00000000E-01  1.50000000E+00
  1.50000000E+00  8.00000000E-01  8.00000000E-01  1.50000000E+00  1.50000000E+00
  8.00000000E-01  8.00000000E-01  1.50000000E+00  1.50000000E+00  8.00000000E-01
  8.00000000E-01  1.50000000E+00  1.50000000E+00  8.00000000E-01  8.00000000E-01
  1.50000000E+00  1.50000000E+00  8.00000000E-01  8.00000000E-01  1.50000000E+00
  1.50000000E+00  8.00000000E-01  8.00000000E-01  1.50000000E+00  1.50000000E+00
  8.00000000E-01  8.00000000E-01  1.50000000E+00  1.50000000E+00  8.00000000E-01
  8.00000000E-01  1.50000000E+00  1.50000000E+00  8.00000000E-01  8.00000000E-01
  1.50000000E+00  1.50000000E+00  8.00000000E-01  8.00000000E-01  1.50000000E+00
  1.50000000E+00  8.00000000E-01  8.00000000E-01  1.50000000E+00  1.50000000E+00
  8.00000000E-01  8.00000000E-01  1.50000000E+00  1.50000000E+00  8.00000000E-01
  8.00000000E-01  1.50000000E+00  1.50000000E+00  8.00000000E-01  8.00000000E-01
  1.50000000E+00  1.50000000E+00  8.00000000E-01  8.00000000E-01  1.50000000E+00
  1.50000000E+00  8.00000000E-01  8.00000000E-01  1.50000000E+00  1.50000000E+00
  8.00000000E-01  8.00000000E-01  1.50000000E+00  1.50000000E+00  8.00000000E-01
  8.00000000E-01  1.50000000E+00  1.50000000E+00  8.00000000E-01  8.00000000E-01
  1.50000000E+00  1.50000000E+00  8.00000000E-01  8.00000000E-01  1.50000000E+00
  1.50000000E+00  8.00000000E-01  8.00000000E-01  1.50000000E+00  1.50000000E+00
  8.00000000E-01  8.00000000E-01  1.50000000E+00  1.50000000E+00  8.00000000E-01
  8.00000000E-01  1.50000000E+00  1.50000000E+00  8.00000000E-01  8.00000000E-01
  1.50000000E+00  1.50000000E+00  8.00000000E-01  8.00000000E-01  1.50000000E+00
  1.50000000E+00  8.00000000E-01  8.00000000E-01  1.50000000E+00  1.50000000E+00
  8.00000000E-01  8.00000000E-01  1.50000000E+00  1.50000000E+00  8.00000000E-01
  8.00000000E-01  1.50000000E+00  1.50000000E+00  8.00000000E-01  8.00000000E-01
  1.50000000E+00  1.50000000E+00  8.00000000E-01  8.00000000E-01  1.50000000E+00
  1.50000000E+00  8.00000000E-01  8.00000000E-01  1.50000000E+00  1.50000000E+00
  8.00000000E-01  8.00000000E-01  1.50000000E+00  1.50000000E+00  8.00000000E-01
  8.00000000E-01  1.50000000E+00  1.50000000E+00  8.00000000E-01  8.00000000E-01
  1.50000000E+00  1.50000000E+00  8.00000000E-01  8.00000000E-01  1.50000000E+00
  1.50000000E+00  8.00000000E-01  8.00000000E-01  1.50000000E+00  1.50000000E+00
  8.00000000E-01  8.00000000E-01  1.50000000E+00  1.50000000E+00  8.00000000E-01
  8.00000000E-01  1.50000000E+00  1.50000000E+00  8.00000000E-01  8.00000000E-01
  1.50000000E+00  1.50000000E+00  8.00000000E-01  8.00000000E-01  1.50000000E+00
  1.50000000E+00  8.00000000E-01  8.00000000E-01  1.50000000E+00  1.50000000E+00
  8.00000000E-01  8.00000000E-01  1.50000000E+00  1.50000000E+00  8.00000000E-01
  8.00000000E-01  1.50000000E+00  1.50000000E+00  8.00000000E-01  8.00000000E-01
  1.50000000E+00  1.50000000E+00  8.00000000E-01  8.00000000E-01  1.50000000E+00
  1.50000000E+00  8.00000000E-01  8.00000000E-01  1.50000000E+00  1.50000000E+00
  8.00000000E-01  8.00000000E-01  1.50000000E+00  1.50000000E+00  8.00000000E-01
  8.00000000E-01  1.50000000E+00  1.50000000E+00  8.00000000E-01  8.00000000E-01
  1.50000000E+00  1.50000000E+00  8.00000000E-01  8.00000000E-01  1.50000000E+00
  1.50000000E+00  8.00000000E-01  8.00000000E-01  1.50000000E+00  1.50000000E+00
  8.00000000E-01  8.00000000E-01  1.50000000E+00  1.50000000E+00  8.00000000E-01
  8.00000000E-01  1.50000000E+00  1.50000000E+00  8.00000000E-01  8.00000000E-01
  1.50000000E+00  1.50000000E+00  8.00000000E-01  8.00000000E-01  1.50000000E+00
  1.50000000E+00  8.00000000E-01  8.00000000E-01  1.50000000E+00  1.50000000E+00
  8.00000000E-01  8.00000000E-01  1.50000000E+00  1.50000000E+00  8.00000000E-01
  8.00000000E-01  1.50000000E+00  1.50000000E+00  8.00000000E-01  8.00000000E-01
  1.50000000E+00  1.50000000E+00  8.00000000E-01  8.00000000E-01  1.50000000E+00
  1.50000000E+00  8.00000000E-01  8.00000000E-01  1.50000000E+00  1.50000000E+00
  8.00000000E-01  8.00000000E-01  1.50000000E+00  1.50000000E+00  8.00000000E-01
  8.00000000E-01  1.50000000E+00  1.50000000E+00  8.00000000E-01  8.00000000E-01
  1.50000000E+00  1.50000000E+00  8.00000000E-01  8.00000000E-01  1.50000000E+00
  1.50000000E+00  8.00000000E-01  8.00000000E-01  1.50000000E+00  1.50000000E+00
  8.00000000E-01  8.00000000E-01  1.50000000E+00  1.50000000E+00  8.00000000E-01
  8.00000000E-01  1.50000000E+00  1.50000000E+00  8.00000000E-01  8.00000000E-01
  1.50000000E+00  1.50000000E+00  8.00000000E-01  8.00000000E-01  1.50000000E+00
  1.50000000E+00  8.00000000E-01  8.00000000E-01  1.50000000E+00  1.50000000E+00
  8.00000000E-01  8.00000000E-01  1.50000000E+00  1.50000000E+00  8.00000000E-01
  8.00000000E-01  1.50000000E+00  1.50000000E+00  8.00000000E-01  8.00000000E-01
  1.50000000E+00  1.50000000E+00  8.00000000E-01  8.00000000E-01  1.50000000E+00
  1.50000000E+00  8.00000000E-01  8.00000000E-01  1.50000000E+00  1.50000000E+00
  8.00000000E-01  8.00000000E-01  1.50000000E+00  1.50000000E+00  8.00000000E-01
  8.00000000E-01  1.50000000E+00  1.50000000E+00  8.00000000E-01  8.00000000E-01
  1.50000000E+00  1.50000000E+00  8.00000000E-01  8.00000000E-01  1.50000000E+00
  1.50000000E+00  8.00000000E-01  8.00000000E-01  1.50000000E+00  1.50000000E+00
  8.00000000E-01  8.00000000E-01  1.50000000E+00  1.50000000E+00  8.00000000E-01
  8.00000000E-01  1.50000000E+00  1.50000000E+00  8.00000000E-01  8.00000000E-01
  1.50000000E+00  1.50000000E+00  8.00000000E-01  8.00000000E-01  1.50000000E+00
  1.50000000E+00  8.00000000E-01  8.00000000E-01  1.50000000E+00  1.50000000E+00
  8.00000000E-01  8.00000000E-01  1.50000000E+00  1.50000000E+00  8.00000000E-01
  8.00000000E-01  1.50000000E+00  1.50000000E+00  8.00000000E-01  8.00000000E-01
  1.50000000E+00  1.50000000E+00  8.00000000E-01  8.00000000E-01  1.50000000E+00
  1.50000000E+00  8.00000000E-01  8.00000000E-01  1.50000000E+00  1.50000000E+00
  8.00000000E-01  8.00000000E-01  1.50000000E+00  1.50000000E+00  8.00000000E-01
  8.00000000E-01  1.50000000E+00  1.50000000E+00  8.00000000E-01  8.00000000E-01
  1.50000000E+00  1.50000000E+00  8.00000000E-01  8.00000000E-01  1.50000000E+00
  1.50000000E+00  8.00000000E-01  8.00000000E-01  1.50000000E+00  1.50000000E+00
  8.00000000E-01  8.00000000E-01  1.50000000E+00  1.50000000E+00  8.00000000E-01
  8.00000000E-01  1.50000000E+00  1.50000000E+00  8.00000000E-01  8.00000000E-01
  1.50000000E+00  1.50000000E+00  8.00000000E-01  8.00000000E-01  1.50000000E+00
  1.50000000E+00  8.00000000E-01  8.00000000E-01  1.50000000E+00  1.50000000E+00
  8.00000000E-01  8.00000000E-01  1.50000000E+00  1.50000000E+00  8.00000000E-01
  8.00000000E-01  1.50000000E+00  1.50000000E+00  8.00000000E-01  8.00000000E-01
  1.50000000E+00  1.50000000E+00  8.00000000E-01  8.00000000E-01  1.50000000E+00
  1.50000000E+00  8.00000000E-01  8.00000000E-01  1.50000000E+00  1.50000000E+00
  8.00000000E-01  8.00000000E-01  1.50000000E+00  1.50000000E+00  8.00000000E-01
  8.00000000E-01  1.50000000E+00  1.50000000E+00  8.00000000E-01  8.00000000E-01
  1.50000000E+00  1.50000000E+00  8.00000000E-01  8.00000000E-01  1.50000000E+00
  1.50000000E+00  8.00000000E-01  8.00000000E-01  1.50000000E+00  1.50000000E+00
  8.00000000E-01  8.00000000E-01  1.50000000E+00  1.50000000E+00  8.00000000E-01
  8.00000000E-01  1.50000000E+00  1.50000000E+00  8.00000000E-01  8.00000000E-01
  1.50000000E+00  1.50000000E+00  8.00000000E-01  8.00000000E-01  1.50000000E+00
  1.50000000E+00  8.00000000E-01  8.00000000E-01  1.50000000E+00  1.50000000E+00
  8.00000000E-01  8.00000000E-01  1.50000000E+00  1.50000000E+00  8.00000000E-01
  8.00000000E-01  1.50000000E+00  1.50000000E+00  8.00000000E-01  8.00000000E-01
  1.50000000E+00  1.50000000E+00  8.00000000E-01  8.00000000E-01  1.50000000E+00
  1.50000000E+00  8.00000000E-01  8.00000000E-01  1.50000000E+00  1.50000000E+00
  8.00000000E-01  8.00000000E-01  1.50000000E+00  1.50000000E+00  8.00000000E-01
  8.00000000E-01  1.50000000E+00  1.50000000E+00  8.00000000E-01  8.00000000E-01
  1.50000000E+00  1.50000000E+00  8.00000000E-01  8.00000000E-01  1.50000000E+00
  1.50000000E+00  8.00000000E-01  8.00000000E-01  1.50000000E+00  1.50000000E+00
  8.00000000E-01  8.00000000E-01  1.50000000E+00  1.50000000E+00  8.00000000E-01
  8.00000000E-01  1.50000000E+00  1.50000000E+00  8.00000000E-01  8.00000000E-01
  1.50000000E+00  1.50000000E+00  8.00000000E-01  8.00000000E-01  1.50000000E+00
  1.50000000E+00  8.00000000E-01  8.00000000E-01  1.50000000E+00  1.50000000E+00
  8.00000000E-01  8.00000000E-01  1.50000000E+00  1.50000000E+00  8.00000000E-01
  8.00000000E-01  1.50000000E+00  1.50000000E+00  8.00000000E-01  8.00000000E-01
  1.50000000E+00  1.50000000E+00  8.00000000E-01  8.00000000E-01  1.50000000E+00
  1.50000000E+00  8.00000000E-01  8.00000000E-01  1.50000000E+00  1.50000000E+00
  8.00000000E-01  8.00000000E-01  1.50000000E+00  1.50000000E+00  8.00000000E-01
  8.00000000E-01  1.50000000E+00  1.50000000E+00  8.00000000E-01  8.00000000E-01
  1.50000000E+00  1.50000000E+00  8.00000000E-01  8.00000000E-01  1.50000000E+00
  1.50000000E+00  8.00000000E-01  8.00000000E-01  1.50000000E+00  1.50000000E+00
  8.00000000E-01  8.00000000E-01  1.50000000E+00  1.50000000E+00  8.00000000E-01
  8.00000000E-01  1.50000000E+00  1.50000000E+00  8.00000000E-01  8.00000000E-01
  1.50000000E+00  1.50000000E+00  8.00000000E-01  8.00000000E-01  1.50000000E+00
  1.50000000E+00  8.00000000E-01  8.00000000E-01  1.50000000E+00  1.50000000E+00
  8.00000000E-01  8.00000000E-01  1.50000000E+00  1.50000000E+00  8.00000000E-01
  8.00000000E-01  1.50000000E+00  1.50000000E+00  8.00000000E-01  8.00000000E-01
  1.50000000E+00  1.50000000E+00  8.00000000E-01  8.00000000E-01  1.50000000E+00
  1.50000000E+00  8.00000000E-01  8.00000000E-01  1.50000000E+00  1.50000000E+00
  8.00000000E-01  8.00000000E-01  1.50000000E+00  1.50000000E+00  8.00000000E-01
  8.00000000E-01  1.50000000E+00  1.50000000E+00  8.00000000E-01  8.00000000E-01
  1.50000000E+00  1.50000000E+00  8.00000000E-01  8.00000000E-01  1.50000000E+00
  1.50000000E+00  8.00000000E-01  8.00000000E-01  1.50000000E+00  1.50000000E+00
  8.00000000E-01  8.00000000E-01  1.50000000E+00  1.50000000E+00  8.00000000E-01
  8.00000000E-01  1.50000000E+00  1.50000000E+00  8.00000000E-01  8.00000000E-01
  1.50000000E+00  1.50000000E+00  8.00000000E-01  8.00000000E-01  1.50000000E+00
  1.50000000E+00  8.00000000E-01  8.00000000E-01  1.50000000E+00  1.50000000E+00
  8.00000000E-01  8.00000000E-01  1.50000000E+00  1.50000000E+00  8.00000000E-01
  8.00000000E-01  1.50000000E+00  1.50000000E+00  8.00000000E-01  8.00000000E-01
  1.50000000E+00  1.50000000E+00  8.00000000E-01  8.00000000E-01  1.50000000E+00
  1.50000000E+00  8.00000000E-01  8.00000000E-01  1.50000000E+00  1.50000000E+00
  8.00000000E-01  8.00000000E-01  1.50000000E+00  1.50000000E+00  8.00000000E-01
  8.00000000E-01  1.50000000E+00  1.50000000E+00  8.00000000E-01  8.00000000E-01
  1.50000000E+00  1.50000000E+00  8.00000000E-01  8.00000000E-01  1.50000000E+00
  1.50000000E+00  8.00000000E-01  8.00000000E-01  1.50000000E+00  1.50000000E+00
  8.00000000E-01  8.00000000E-01  1.50000000E+00  1.50000000E+00  8.00000000E-01
  8.00000000E-01  1.50000000E+00  1.50000000E+00  8.00000000E-01  8.00000000E-01
  1.50000000E+00  1.50000000E+00  8.00000000E-01  8.00000000E-01  1.50000000E+00
  1.50000000E+00  8.00000000E-01  8.00000000E-01  1.50000000E+00  1.50000000E+00
  8.00000000E-01  8.00000000E-01  1.50000000E+00  1.50000000E+00  8.00000000E-01
  8.00000000E-01  1.50000000E+00  1.50000000E+00  8.00000000E-01  8.00000000E-01
  1.50000000E+00  1.50000000E+00  8.00000000E-01  8.00000000E-01  1.50000000E+00
  1.50000000E+00  8.00000000E-01  8.00000000E-01  1.50000000E+00  1.50000000E+00
  8.00000000E-01  8.00000000E-01  1.50000000E+00  1.50000000E+00  8.00000000E-01
  8.00000000E-01  1.50000000E+00  1.50000000E+00  8.00000000E-01  8.00000000E-01
  1.50000000E+00  1.50000000E+00  8.00000000E-01  8.00000000E-01  1.50000000E+00
  1.50000000E+00  8.00000000E-01  8.00000000E-01  1.50000000E+00  1.50000000E+00
  8.00000000E-01  8.00000000E-01  1.50000000E+00  1.50000000E+00  8.00000000E-01
  8.00000000E-01  1.50000000E+00  1.50000000E+00  8.00000000E-01  8.00000000E-01
  1.50000000E+00  1.50000000E+00  8.00000000E-01  8.00000000E-01  1.50000000E+00
  1.50000000E+00  8.00000000E-01  8.00000000E-01  1.50000000E+00  1.50000000E+00
  8.00000000E-01  8.00000000E-01  1.50000000E+00  1.50000000E+00  8.00000000E-01
  8.00000000E-01  1.50000000E+00  1.50000000E+00  8.00000000E-01  8.00000000E-01
  1.50000000E+00  1.50000000E+00  8.00000000E-01  8.00000000E-01  1.50000000E+00
  1.50000000E+00  8.00000000E-01  8.00000000E-01  1.50000000E+00  1.50000000E+00
  8.00000000E-01  8.00000000E-01  1.50000000E+00  1.50000000E+00  8.00000000E-01
  8.00000000E-01  1.50000000E+00  1.50000000E+00  8.00000000E-01  8.00000000E-01
  1.50000000E+00  1.50000000E+00  8.00000000E-01  8.00000000E-01  1.50000000E+00
  1.50000000E+00  8.00000000E-01  8.00000000E-01  1.50000000E+00  1.50000000E+00
  8.00000000E-01  8.00000000E-01  1.50000000E+00  1.50000000E+00  8.00000000E-01
  8.00000000E-01  1.50000000E+00  1.50000000E+00  8.00000000E-01  8.00000000E-01
  1.50000000E+00  1.50000000E+00  8.00000000E-01  8.00000000E-01  1.50000000E+00
  1.50000000E+00  8.00000000E-01  8.00000000E-01  1.50000000E+00  1.50000000E+00
  8.00000000E-01  8.00000000E-01  1.50000000E+00  1.50000000E+00  8.00000000E-01
  8.00000000E-01  1.50000000E+00  1.50000000E+00  8.00000000E-01  8.00000000E-01
  1.50000000E+00  1.50000000E+00  8.00000000E-01  8.00000000E-01  1.50000000E+00
  1.50000000E+00  8.00000000E-01  8.00000000E-01  1.50000000E+00  1.50000000E+00
  8.00000000E-01  8.00000000E-01  1.50000000E+00  1.50000000E+00  8.00000000E-01
  8.00000000E-01  1.50000000E+00  1.50000000E+00  8.00000000E-01  8.00000000E-01
  1.50000000E+00  1.50000000E+00  8.00000000E-01  8.00000000E-01  1.50000000E+00
  1.50000000E+00  8.00000000E-01  8.00000000E-01  1.50000000E+00  1.50000000E+00
  8.00000000E-01  8.00000000E-01  1.50000000E+00  1.50000000E+00  8.00000000E-01
  8.00000000E-01  1.50000000E+00  1.50000000E+00  8.00000000E-01  8.00000000E-01
  1.50000000E+00  1.50000000E+00  8.00000000E-01  8.00000000E-01  1.50000000E+00
  1.50000000E+00  8.00000000E-01  8.00000000E-01  1.50000000E+00  1.50000000E+00
  8.00000000E-01  8.00000000E-01  1.50000000E+00  1.50000000E+00  8.00000000E-01
  8.00000000E-01  1.50000000E+00  1.50000000E+00  8.00000000E-01  8.00000000E-01
  1.50000000E+00  1.50000000E+00  8.00000000E-01  8.00000000E-01  1.50000000E+00
  1.50000000E+00  8.00000000E-01  8.00000000E-01  1.50000000E+00  1.50000000E+00
  8.00000000E-01  8.00000000E-01  1.50000000E+00  1.50000000E+00  8.00000000E-01
  8.00000000E-01  1.50000000E+00  1.50000000E+00  8.00000000E-01  8.00000000E-01
  1.50000000E+00  1.50000000E+00  8.00000000E-01  8.00000000E-01  1.50000000E+00
  1.50000000E+00  8.00000000E-01  8.00000000E-01  1.50000000E+00  1.50000000E+00
  8.00000000E-01  8.00000000E-01  1.50000000E+00  1.50000000E+00  8.00000000E-01
  8.00000000E-01  1.50000000E+00  1.50000000E+00  8.00000000E-01  8.00000000E-01
  1.50000000E+00  1.50000000E+00  8.00000000E-01  8.00000000E-01  1.50000000E+00
  1.50000000E+00  8.00000000E-01  8.00000000E-01  1.50000000E+00  1.50000000E+00
  8.00000000E-01  8.00000000E-01  1.50000000E+00  1.50000000E+00  8.00000000E-01
  8.00000000E-01  1.50000000E+00  1.50000000E+00  8.00000000E-01  8.00000000E-01
  1.50000000E+00  1.50000000E+00  8.00000000E-01  8.00000000E-01  1.50000000E+00
  1.50000000E+00  8.00000000E-01  8.00000000E-01  1.50000000E+00  1.50000000E+00
  8.00000000E-01  8.00000000E-01  1.50000000E+00  1.50000000E+00  8.00000000E-01
  8.00000000E-01  1.50000000E+00  1.50000000E+00  8.00000000E-01  8.00000000E-01
  1.50000000E+00  1.50000000E+00  8.00000000E-01  8.00000000E-01  1.50000000E+00
  1.50000000E+00  8.00000000E-01  8.00000000E-01  1.50000000E+00  1.50000000E+00
  8.00000000E-01  8.00000000E-01  1.50000000E+00  1.50000000E+00  8.00000000E-01
  8.00000000E-01  1.50000000E+00  1.50000000E+00  8.00000000E-01  8.00000000E-01
  1.50000000E+00  1.50000000E+00  8.00000000E-01  8.00000000E-01  1.50000000E+00
  1.50000000E+00  8.00000000E-01  8.00000000E-01  1.50000000E+00  1.50000000E+00
  8.00000000E-01  8.00000000E-01  1.50000000E+00  1.50000000E+00  8.00000000E-01
  8.00000000E-01  1.50000000E+00  1.50000000E+00  8.00000000E-01  8.00000000E-01
  1.50000000E+00  1.50000000E+00  8.00000000E-01  8.00000000E-01  1.50000000E+00
  1.50000000E+00  8.00000000E-01  8.00000000E-01  1.50000000E+00  1.50000000E+00
  8.00000000E-01  8.00000000E-01  1.50000000E+00  1.50000000E+00  8.00000000E-01
  8.00000000E-01  1.50000000E+00  1.50000000E+00  8.00000000E-01  8.00000000E-01
  1.50000000E+00  1.50000000E+00  8.00000000E-01  8.00000000E-01  1.50000000E+00
  1.50000000E+00  8.00000000E-01  8.00000000E-01  1.50000000E+00  1.50000000E+00
  8.00000000E-01  8.00000000E-01  1.50000000E+00  1.50000000E+00  8.00000000E-01
  8.00000000E-01  1.50000000E+00  1.50000000E+00  8.00000000E-01  8.00000000E-01
  1.50000000E+00  1.50000000E+00  8.00000000E-01  8.00000000E-01  1.50000000E+00
  1.50000000E+00  8.00000000E-01  8.00000000E-01  1.50000000E+00  1.50000000E+00
  8.00000000E-01  8.00000000E-01  1.50000000E+00  1.50000000E+00  8.00000000E-01
  8.00000000E-01  1.50000000E+00  1.50000000E+00  8.00000000E-01  8.00000000E-01
  1.50000000E+00  1.50000000E+00  8.00000000E-01  8.00000000E-01  1.50000000E+00
  1.50000000E+00  8.00000000E-01  8.00000000E-01  1.50000000E+00  1.50000000E+00
  8.00000000E-01  8.00000000E-01  1.50000000E+00  1.50000000E+00  8.00000000E-01
  8.00000000E-01  1.50000000E+00  1.50000000E+00  8.00000000E-01  8.00000000E-01
  1.50000000E+00  1.50000000E+00  8.00000000E-01  8.00000000E-01  1.50000000E+00
  1.50000000E+00  8.00000000E-01  8.00000000E-01  1.50000000E+00  1.50000000E+00
  8.00000000E-01  8.00000000E-01  1.50000000E+00  1.50000000E+00  8.00000000E-01
  8.00000000E-01  1.50000000E+00  1.50000000E+00  8.00000000E-01  8.00000000E-01
  1.50000000E+00  1.50000000E+00  8.00000000E-01  8.00000000E-01  1.50000000E+00
  1.50000000E+00  8.00000000E-01  8.00000000E-01  1.50000000E+00  1.50000000E+00
  8.00000000E-01  8.00000000E-01  1.50000000E+00  1.50000000E+00  8.00000000E-01
  8.00000000E-01  1.50000000E+00  1.50000000E+00  8.00000000E-01  8.00000000E-01
  1.50000000E+00  1.50000000E+00  8.00000000E-01  8.00000000E-01  1.50000000E+00
  1.50000000E+00  8.00000000E-01  8.00000000E-01  1.50000000E+00  1.50000000E+00
  8.00000000E-01  8.00000000E-01  1.50000000E+00  1.50000000E+00  8.00000000E-01
  8.00000000E-01  1.50000000E+00  1.50000000E+00  8.00000000E-01  8.00000000E-01
  1.50000000E+00  1.50000000E+00  8.00000000E-01  8.00000000E-01  1.50000000E+00
  1.50000000E+00  8.00000000E-01  8.00000000E-01  1.50000000E+00  1.50000000E+00
  8.00000000E-01  8.00000000E-01  1.50000000E+00  1.50000000E+00  8.00000000E-01
  8.00000000E-01  1.50000000E+00  1.50000000E+00  8.00000000E-01  8.00000000E-01
  1.50000000E+00  1.50000000E+00  8.00000000E-01  8.00000000E-01  1.50000000E+00
  1.50000000E+00  8.00000000E-01  8.00000000E-01  1.50000000E+00  1.50000000E+00
  8.00000000E-01  8.00000000E-01  1.50000000E+00  1.50000000E+00  8.00000000E-01
  8.00000000E-01  1.50000000E+00  1.50000000E+00  8.00000000E-01  8.00000000E-01
  1.50000000E+00  1.50000000E+00  8.00000000E-01  8.00000000E-01  1.50000000E+00
  1.50000000E+00  8.00000000E-01  8.00000000E-01  1.50000000E+00  1.50000000E+00
  8.00000000E-01  8.00000000E-01  1.50000000E+00  1.50000000E+00  8.00000000E-01
  8.00000000E-01  1.50000000E+00  1.50000000E+00  8.00000000E-01  8.00000000E-01
  1.50000000E+00  1.50000000E+00  8.00000000E-01  8.00000000E-01  1.50000000E+00
  1.50000000E+00  8.00000000E-01  8.00000000E-01  1.50000000E+00  1.50000000E+00
  8.00000000E-01  8.00000000E-01  1.50000000E+00  1.50000000E+00  8.00000000E-01
  8.00000000E-01  1.50000000E+00  1.50000000E+00  8.00000000E-01  8.00000000E-01
  1.50000000E+00  1.50000000E+00  8.00000000E-01  8.00000000E-01  1.50000000E+00
  1.50000000E+00  8.00000000E-01  8.00000000E-01  1.50000000E+00  1.50000000E+00
  8.00000000E-01  8.00000000E-01  1.50000000E+00  1.50000000E+00  8.00000000E-01
  8.00000000E-01  1.50000000E+00  1.50000000E+00  8.00000000E-01  8.00000000E-01
  1.50000000E+00  1.50000000E+00  8.00000000E-01  8.00000000E-01  1.50000000E+00
  1.50000000E+00  8.00000000E-01  8.00000000E-01  1.50000000E+00  1.50000000E+00
  8.00000000E-01  8.00000000E-01  1.50000000E+00  1.50000000E+00  8.00000000E-01
  8.00000000E-01  1.50000000E+00  1.50000000E+00  8.00000000E-01  8.00000000E-01
  1.50000000E+00  1.50000000E+00  8.00000000E-01  8.00000000E-01  1.50000000E+00
  1.50000000E+00  8.00000000E-01  8.00000000E-01  1.50000000E+00  1.50000000E+00
  8.00000000E-01  8.00000000E-01  1.50000000E+00  1.50000000E+00  8.00000000E-01
  8.00000000E-01  1.50000000E+00  1.50000000E+00  8.00000000E-01  8.00000000E-01
  1.50000000E+00  1.50000000E+00  8.00000000E-01  8.00000000E-01  1.50000000E+00
  1.50000000E+00  8.00000000E-01  8.00000000E-01  1.50000000E+00  1.50000000E+00
  8.00000000E-01  8.00000000E-01  1.50000000E+00  1.50000000E+00  8.00000000E-01
  8.00000000E-01  1.50000000E+00  1.50000000E+00  8.00000000E-01  8.00000000E-01
  1.50000000E+00  1.50000000E+00  8.00000000E-01  8.00000000E-01  1.50000000E+00
  1.50000000E+00  8.00000000E-01  8.00000000E-01  1.50000000E+00  1.50000000E+00
  8.00000000E-01  8.00000000E-01  1.50000000E+00  1.50000000E+00  8.00000000E-01
  8.00000000E-01  1.50000000E+00  1.50000000E+00  8.00000000E-01  8.00000000E-01
  1.50000000E+00  1.50000000E+00  8.00000000E-01  8.00000000E-01  1.50000000E+00
  1.50000000E+00  8.00000000E-01  8.00000000E-01  1.50000000E+00  1.50000000E+00
  8.00000000E-01  8.00000000E-01  1.50000000E+00  1.50000000E+00  8.00000000E-01
  8.00000000E-01  1.50000000E+00  1.50000000E+00  8.00000000E-01  8.00000000E-01
  1.50000000E+00  1.50000000E+00  8.00000000E-01  8.00000000E-01  1.50000000E+00
  1.50000000E+00  8.00000000E-01  8.00000000E-01  1.50000000E+00  1.50000000E+00
  8.00000000E-01  8.00000000E-01  1.50000000E+00  1.50000000E+00  8.00000000E-01
  8.00000000E-01  1.50000000E+00  1.50000000E+00  8.00000000E-01  8.00000000E-01
  1.50000000E+00  1.50000000E+00  8.00000000E-01  8.00000000E-01  1.50000000E+00
  1.50000000E+00  8.00000000E-01  8.00000000E-01  1.50000000E+00  1.50000000E+00
  8.00000000E-01  8.00000000E-01  1.50000000E+00  1.50000000E+00  8.00000000E-01
  8.00000000E-01  1.50000000E+00  1.50000000E+00  8.00000000E-01  8.00000000E-01
  1.50000000E+00  1.50000000E+00  8.00000000E-01  8.00000000E-01  1.50000000E+00
  1.50000000E+00  8.00000000E-01  8.00000000E-01  1.50000000E+00  1.50000000E+00
  8.00000000E-01  8.00000000E-01  1.50000000E+00  1.50000000E+00  8.00000000E-01
  8.00000000E-01  1.50000000E+00  1.50000000E+00  8.00000000E-01  8.00000000E-01
  1.50000000E+00  1.50000000E+00  8.00000000E-01  8.00000000E-01  1.50000000E+00
  1.50000000E+00  8.00000000E-01  8.00000000E-01  1.50000000E+00  1.50000000E+00
  8.00000000E-01  8.00000000E-01  1.50000000E+00  1.50000000E+00  8.00000000E-01
  8.00000000E-01  1.50000000E+00  1.50000000E+00  8.00000000E-01  8.00000000E-01
  1.50000000E+00  1.50000000E+00  8.00000000E-01  8.00000000E-01  1.50000000E+00
  1.50000000E+00  8.00000000E-01  8.00000000E-01  1.50000000E+00  1.50000000E+00
  8.00000000E-01  8.00000000E-01  1.50000000E+00  1.50000000E+00  8.00000000E-01
  8.00000000E-01  1.50000000E+00  1.50000000E+00  8.00000000E-01  8.00000000E-01
  1.50000000E+00  1.50000000E+00  8.00000000E-01  8.00000000E-01  1.50000000E+00
  1.50000000E+00  8.00000000E-01  8.00000000E-01  1.50000000E+00  1.50000000E+00
  8.00000000E-01  8.00000000E-01  1.50000000E+00  1.50000000E+00  8.00000000E-01
  8.00000000E-01  1.50000000E+00  1.50000000E+00  8.00000000E-01  8.00000000E-01
  1.50000000E+00  1.50000000E+00  8.00000000E-01  8.00000000E-01  1.50000000E+00
  1.50000000E+00  8.00000000E-01  8.00000000E-01  1.50000000E+00  1.50000000E+00
  8.00000000E-01  8.00000000E-01  1.50000000E+00  1.50000000E+00  8.00000000E-01
  8.00000000E-01  1.50000000E+00  1.50000000E+00  8.00000000E-01  8.00000000E-01
  1.50000000E+00  1.50000000E+00  8.00000000E-01  8.00000000E-01  1.50000000E+00
  1.50000000E+00  8.00000000E-01  8.00000000E-01  1.50000000E+00  1.50000000E+00
  8.00000000E-01  8.00000000E-01  1.50000000E+00  1.50000000E+00  8.00000000E-01
  8.00000000E-01  1.50000000E+00  1.50000000E+00  8.00000000E-01  8.00000000E-01
  1.50000000E+00  1.50000000E+00  8.00000000E-01  8.00000000E-01  1.50000000E+00
  1.50000000E+00  8.00000000E-01  8.00000000E-01  1.50000000E+00  1.50000000E+00
  8.00000000E-01  8.00000000E-01  1.50000000E+00  1.50000000E+00  8.00000000E-01
  8.00000000E-01  1.50000000E+00  1.50000000E+00  8.00000000E-01  8.00000000E-01
  1.50000000E+00  1.50000000E+00  8.00000000E-01  8.00000000E-01  1.50000000E+00
  1.50000000E+00  8.00000000E-01  8.00000000E-01  1.50000000E+00  1.50000000E+00
  8.00000000E-01  8.00000000E-01  1.50000000E+00  1.50000000E+00  8.00000000E-01
  8.00000000E-01  1.50000000E+00  1.50000000E+00  8.00000000E-01  8.00000000E-01
  1.50000000E+00  1.50000000E+00  8.00000000E-01  8.00000000E-01  1.50000000E+00
  1.50000000E+00  8.00000000E-01  8.00000000E-01  1.50000000E+00  1.50000000E+00
  8.00000000E-01  8.00000000E-01  1.50000000E+00  1.50000000E+00  8.00000000E-01
  8.00000000E-01  1.50000000E+00  1.50000000E+00  8.00000000E-01  8.00000000E-01
  1.50000000E+00  1.50000000E+00  8.00000000E-01  8.00000000E-01  1.50000000E+00
  1.50000000E+00  8.00000000E-01  8.00000000E-01  1.50000000E+00  1.50000000E+00
  8.00000000E-01  8.00000000E-01  1.50000000E+00  1.50000000E+00  8.00000000E-01
  8.00000000E-01  1.50000000E+00  1.50000000E+00  8.00000000E-01  8.00000000E-01
  1.50000000E+00  1.50000000E+00  8.00000000E-01  8.00000000E-01  1.50000000E+00
  1.50000000E+00  8.00000000E-01  8.00000000E-01  1.50000000E+00  1.50000000E+00
  8.00000000E-01  8.00000000E-01  1.50000000E+00  1.50000000E+00  8.00000000E-01
  8.00000000E-01  1.50000000E+00  1.50000000E+00  8.00000000E-01  8.00000000E-01
  1.50000000E+00  1.50000000E+00  8.00000000E-01  8.00000000E-01  1.50000000E+00
  1.50000000E+00  8.00000000E-01  8.00000000E-01  1.50000000E+00  1.50000000E+00
  8.00000000E-01  8.00000000E-01  1.50000000E+00  1.50000000E+00  8.00000000E-01
  8.00000000E-01  1.50000000E+00  1.50000000E+00  8.00000000E-01  8.00000000E-01
  1.50000000E+00  1.50000000E+00  8.00000000E-01  8.00000000E-01  1.50000000E+00
  1.50000000E+00  8.00000000E-01  8.00000000E-01  1.50000000E+00  1.50000000E+00
  8.00000000E-01  8.00000000E-01  1.50000000E+00  1.50000000E+00  8.00000000E-01
  8.00000000E-01  1.50000000E+00  1.50000000E+00  8.00000000E-01  8.00000000E-01
  1.50000000E+00  1.50000000E+00  8.00000000E-01  8.00000000E-01  1.50000000E+00
  1.50000000E+00  8.00000000E-01  8.00000000E-01  1.50000000E+00  1.50000000E+00
  8.00000000E-01  8.00000000E-01  1.50000000E+00  1.50000000E+00  8.00000000E-01
  8.00000000E-01  1.50000000E+00  1.50000000E+00  8.00000000E-01  8.00000000E-01
  1.50000000E+00  1.50000000E+00  8.00000000E-01  8.00000000E-01  1.50000000E+00
  1.50000000E+00  8.00000000E-01  8.00000000E-01  1.50000000E+00  1.50000000E+00
  8.00000000E-01  8.00000000E-01  1.50000000E+00  1.50000000E+00  8.00000000E-01
  8.00000000E-01  1.50000000E+00  1.50000000E+00  8.00000000E-01  8.00000000E-01
  1.50000000E+00  1.50000000E+00  8.00000000E-01  8.00000000E-01  1.50000000E+00
  1.50000000E+00  8.00000000E-01  8.00000000E-01  1.50000000E+00  1.50000000E+00
  8.00000000E-01  8.00000000E-01  1.50000000E+00  1.50000000E+00  8.00000000E-01
  8.00000000E-01  1.50000000E+00  1.50000000E+00  8.00000000E-01  8.00000000E-01
  1.50000000E+00  1.50000000E+00  8.00000000E-01  8.00000000E-01  1.50000000E+00
  1.50000000E+00  8.00000000E-01  8.00000000E-01  1.50000000E+00  1.50000000E+00
  8.00000000E-01  8.00000000E-01  1.50000000E+00  1.50000000E+00  8.00000000E-01
  8.00000000E-01  1.50000000E+00  1.50000000E+00  8.00000000E-01  8.00000000E-01
  1.50000000E+00  1.50000000E+00  8.00000000E-01  8.00000000E-01  1.50000000E+00
  1.50000000E+00  8.00000000E-01  8.00000000E-01  1.50000000E+00  1.50000000E+00
  8.00000000E-01  8.00000000E-01  1.50000000E+00  1.50000000E+00  8.00000000E-01
  8.00000000E-01  1.50000000E+00  1.50000000E+00  8.00000000E-01  8.00000000E-01
  1.50000000E+00  1.50000000E+00  8.00000000E-01  8.00000000E-01  1.50000000E+00
  1.50000000E+00  8.00000000E-01  8.00000000E-01  1.50000000E+00  1.50000000E+00
  8.00000000E-01  8.00000000E-01  1.50000000E+00  1.50000000E+00  8.00000000E-01
  8.00000000E-01  1.50000000E+00  1.50000000E+00  8.00000000E-01  8.00000000E-01
  1.50000000E+00  1.50000000E+00  8.00000000E-01  8.00000000E-01  1.50000000E+00
  1.50000000E+00  8.00000000E-01  8.00000000E-01  1.50000000E+00  1.50000000E+00
  8.00000000E-01  8.00000000E-01  1.50000000E+00  1.50000000E+00  8.00000000E-01
  8.00000000E-01  1.50000000E+00  1.50000000E+00  8.00000000E-01  8.00000000E-01
  1.50000000E+00  1.50000000E+00  8.00000000E-01  8.00000000E-01  1.50000000E+00
  1.50000000E+00  8.00000000E-01  8.00000000E-01  1.50000000E+00  1.50000000E+00
  8.00000000E-01  8.00000000E-01  1.50000000E+00  1.50000000E+00  8.00000000E-01
  8.00000000E-01  1.50000000E+00  1.50000000E+00  8.00000000E-01  8.00000000E-01
  1.50000000E+00  1.50000000E+00  8.00000000E-01  8.00000000E-01  1.50000000E+00
  1.50000000E+00  8.00000000E-01  8.00000000E-01  1.50000000E+00  1.50000000E+00
  8.00000000E-01  8.00000000E-01  1.50000000E+00  1.50000000E+00  8.00000000E-01
  8.00000000E-01  1.50000000E+00  1.50000000E+00  8.00000000E-01  8.00000000E-01
  1.50000000E+00  1.50000000E+00  8.00000000E-01  8.00000000E-01  1.50000000E+00
  1.50000000E+00  8.00000000E-01  8.00000000E-01  1.50000000E+00  1.50000000E+00
  8.00000000E-01  8.00000000E-01  1.50000000E+00  1.50000000E+00  8.00000000E-01
  8.00000000E-01  1.50000000E+00  1.50000000E+00  8.00000000E-01  8.00000000E-01
  1.50000000E+00  1.50000000E+00  8.00000000E-01  8.00000000E-01  1.50000000E+00
  1.50000000E+00  8.00000000E-01  8.00000000E-01  1.50000000E+00  1.50000000E+00
  8.00000000E-01  8.00000000E-01  1.50000000E+00  1.50000000E+00  8.00000000E-01
  8.00000000E-01  1.50000000E+00  1.50000000E+00  8.00000000E-01  8.00000000E-01
  1.50000000E+00  1.50000000E+00  8.00000000E-01  8.00000000E-01  1.50000000E+00
  1.50000000E+00  8.00000000E-01  8.00000000E-01  1.50000000E+00  1.50000000E+00
  8.00000000E-01  8.00000000E-01  1.50000000E+00  1.50000000E+00  8.00000000E-01
  8.00000000E-01  1.50000000E+00  1.50000000E+00  8.00000000E-01  8.00000000E-01
  1.50000000E+00  1.50000000E+00  8.00000000E-01  8.00000000E-01  1.50000000E+00
  1.50000000E+00  8.00000000E-01  8.00000000E-01  1.50000000E+00  1.50000000E+00
  8.00000000E-01  8.00000000E-01  1.50000000E+00  1.50000000E+00  8.00000000E-01
  8.00000000E-01  1.50000000E+00  1.50000000E+00  8.00000000E-01  8.00000000E-01
  1.50000000E+00  1.50000000E+00  8.00000000E-01  8.00000000E-01  1.50000000E+00
  1.50000000E+00  8.00000000E-01  8.00000000E-01  1.50000000E+00  1.50000000E+00
  8.00000000E-01  8.00000000E-01  1.50000000E+00  1.50000000E+00  8.00000000E-01
  8.00000000E-01  1.50000000E+00  1.50000000E+00  8.00000000E-01  8.00000000E-01
  1.50000000E+00  1.50000000E+00  8.00000000E-01  8.00000000E-01  1.50000000E+00
  1.50000000E+00  8.00000000E-01  8.00000000E-01  1.50000000E+00  1.50000000E+00
  8.00000000E-01  8.00000000E-01  1.50000000E+00  1.50000000E+00  8.00000000E-01
  8.00000000E-01  1.50000000E+00  1.50000000E+00  8.00000000E-01  8.00000000E-01
  1.50000000E+00  1.50000000E+00  8.00000000E-01  8.00000000E-01  1.50000000E+00
  1.50000000E+00  8.00000000E-01  8.00000000E-01  1.50000000E+00  1.50000000E+00
  8.00000000E-01  8.00000000E-01  1.50000000E+00  1.50000000E+00  8.00000000E-01
  8.00000000E-01  1.50000000E+00  1.50000000E+00  8.00000000E-01  8.00000000E-01
  1.50000000E+00  1.50000000E+00  8.00000000E-01  8.00000000E-01  1.50000000E+00
  1.50000000E+00  8.00000000E-01  8.00000000E-01  1.50000000E+00  1.50000000E+00
  8.00000000E-01  8.00000000E-01  1.50000000E+00  1.50000000E+00  8.00000000E-01
  8.00000000E-01  1.50000000E+00  1.50000000E+00  8.00000000E-01  8.00000000E-01
  1.50000000E+00  1.50000000E+00  8.00000000E-01  8.00000000E-01  1.50000000E+00
  1.50000000E+00  8.00000000E-01  8.00000000E-01  1.50000000E+00  1.50000000E+00
  8.00000000E-01  8.00000000E-01  1.50000000E+00  1.50000000E+00  8.00000000E-01
  8.00000000E-01  1.50000000E+00  1.50000000E+00  8.00000000E-01  8.00000000E-01
  1.50000000E+00  1.50000000E+00  8.00000000E-01  8.00000000E-01  1.50000000E+00
  1.50000000E+00  8.00000000E-01  8.00000000E-01  1.50000000E+00  1.50000000E+00
  8.00000000E-01  8.00000000E-01  1.50000000E+00  1.50000000E+00  8.00000000E-01
  8.00000000E-01  1.50000000E+00  1.50000000E+00  8.00000000E-01  8.00000000E-01
  1.50000000E+00  1.50000000E+00  8.00000000E-01  8.00000000E-01  1.50000000E+00
  1.50000000E+00  8.00000000E-01  8.00000000E-01  1.50000000E+00  1.50000000E+00
  8.00000000E-01  8.00000000E-01  1.50000000E+00  1.50000000E+00  8.00000000E-01
  8.00000000E-01  1.50000000E+00  1.50000000E+00  8.00000000E-01  8.00000000E-01
  1.50000000E+00  1.50000000E+00  8.00000000E-01  8.00000000E-01  1.50000000E+00
  1.50000000E+00  8.00000000E-01  8.00000000E-01  1.50000000E+00  1.50000000E+00
  8.00000000E-01  8.00000000E-01  1.50000000E+00  1.50000000E+00  8.00000000E-01
  8.00000000E-01  1.50000000E+00  1.50000000E+00  8.00000000E-01  8.00000000E-01
  1.50000000E+00  1.50000000E+00  8.00000000E-01  8.00000000E-01  1.50000000E+00
  1.50000000E+00  8.00000000E-01  8.00000000E-01  1.50000000E+00  1.50000000E+00
  8.00000000E-01  8.00000000E-01  1.50000000E+00  1.50000000E+00  8.00000000E-01
  8.00000000E-01  1.50000000E+00  1.50000000E+00  8.00000000E-01  8.00000000E-01
  1.50000000E+00  1.50000000E+00  8.00000000E-01  8.00000000E-01  1.50000000E+00
  1.50000000E+00  8.00000000E-01  8.00000000E-01  1.50000000E+00  1.50000000E+00
  8.00000000E-01  8.00000000E-01  1.50000000E+00  1.50000000E+00  8.00000000E-01
  8.00000000E-01  1.50000000E+00  1.50000000E+00  8.00000000E-01  8.00000000E-01
  1.50000000E+00  1.50000000E+00  8.00000000E-01  8.00000000E-01  1.50000000E+00
  1.50000000E+00  8.00000000E-01  8.00000000E-01  1.50000000E+00  1.50000000E+00
  8.00000000E-01  8.00000000E-01  1.50000000E+00  1.50000000E+00  8.00000000E-01
  8.00000000E-01  1.50000000E+00  1.50000000E+00  8.00000000E-01  8.00000000E-01
  1.50000000E+00  1.50000000E+00  8.00000000E-01  8.00000000E-01  1.50000000E+00
  1.50000000E+00  8.00000000E-01  8.00000000E-01  1.50000000E+00  1.50000000E+00
  8.00000000E-01  8.00000000E-01  1.50000000E+00  1.50000000E+00  8.00000000E-01
  8.00000000E-01  1.50000000E+00  1.50000000E+00  8.00000000E-01  8.00000000E-01
  1.50000000E+00  1.50000000E+00  8.00000000E-01  8.00000000E-01  1.50000000E+00
  1.50000000E+00  8.00000000E-01  8.00000000E-01  1.50000000E+00  1.50000000E+00
  8.00000000E-01  8.00000000E-01  1.50000000E+00  1.50000000E+00  8.00000000E-01
  8.00000000E-01  1.50000000E+00  1.50000000E+00  8.00000000E-01  8.00000000E-01
  1.50000000E+00  1.50000000E+00  8.00000000E-01  8.00000000E-01  1.50000000E+00
  1.50000000E+00  8.00000000E-01  8.00000000E-01  1.50000000E+00  1.50000000E+00
  8.00000000E-01  8.00000000E-01  1.50000000E+00  1.50000000E+00  8.00000000E-01
  8.00000000E-01  1.50000000E+00  1.50000000E+00  8.00000000E-01  8.00000000E-01
  1.50000000E+00  1.50000000E+00  8.00000000E-01  8.00000000E-01  1.50000000E+00
  1.50000000E+00  8.00000000E-01  8.00000000E-01  1.50000000E+00  1.50000000E+00
  8.00000000E-01  8.00000000E-01  1.50000000E+00  1.50000000E+00  8.00000000E-01
  8.00000000E-01  1.50000000E+00  1.50000000E+00  8.00000000E-01  8.00000000E-01
  1.50000000E+00  1.50000000E+00  8.00000000E-01  8.00000000E-01  1.50000000E+00
  1.50000000E+00  8.00000000E-01  8.00000000E-01  1.50000000E+00  1.50000000E+00
  8.00000000E-01  8.00000000E-01  1.50000000E+00  1.50000000E+00  8.00000000E-01
  8.00000000E-01  1.50000000E+00  1.50000000E+00  8.00000000E-01  8.00000000E-01
  1.50000000E+00  1.50000000E+00  8.00000000E-01  8.00000000E-01  1.50000000E+00
  1.50000000E+00  8.00000000E-01  8.00000000E-01  1.50000000E+00  1.50000000E+00
  8.00000000E-01  8.00000000E-01  1.50000000E+00  1.50000000E+00  8.00000000E-01
  8.00000000E-01  1.50000000E+00  1.50000000E+00  8.00000000E-01  8.00000000E-01
  1.50000000E+00  1.50000000E+00  8.00000000E-01  8.00000000E-01  1.50000000E+00
  1.50000000E+00  8.00000000E-01  8.00000000E-01  1.50000000E+00  1.50000000E+00
  8.00000000E-01  8.00000000E-01  1.50000000E+00  1.50000000E+00  8.00000000E-01
  8.00000000E-01  1.50000000E+00  1.50000000E+00  8.00000000E-01  8.00000000E-01
  1.50000000E+00  1.50000000E+00  8.00000000E-01  8.00000000E-01  1.50000000E+00
  1.50000000E+00  8.00000000E-01  8.00000000E-01  1.50000000E+00  1.50000000E+00
  8.00000000E-01  8.00000000E-01  1.50000000E+00  1.50000000E+00  8.00000000E-01
  8.00000000E-01  1.50000000E+00  1.50000000E+00  8.00000000E-01  8.00000000E-01
  1.50000000E+00  1.50000000E+00  8.00000000E-01  8.00000000E-01  1.50000000E+00
  1.50000000E+00  8.00000000E-01  8.00000000E-01  1.50000000E+00  1.50000000E+00
  8.00000000E-01  8.00000000E-01  1.50000000E+00  1.50000000E+00  8.00000000E-01
  8.00000000E-01  1.50000000E+00  1.50000000E+00  8.00000000E-01  8.00000000E-01
  1.50000000E+00  1.50000000E+00  8.00000000E-01  8.00000000E-01  1.50000000E+00
  1.50000000E+00  8.00000000E-01  8.00000000E-01  1.50000000E+00  1.50000000E+00
  8.00000000E-01  8.00000000E-01  1.50000000E+00  1.50000000E+00  8.00000000E-01
  8.00000000E-01  1.50000000E+00  1.50000000E+00  8.00000000E-01  8.00000000E-01
  1.50000000E+00  1.50000000E+00  8.00000000E-01  8.00000000E-01  1.50000000E+00
  1.50000000E+00  8.00000000E-01  8.00000000E-01  1.50000000E+00  1.50000000E+00
  8.00000000E-01  8.00000000E-01  1.50000000E+00  1.50000000E+00  8.00000000E-01
  8.00000000E-01  1.50000000E+00  1.50000000E+00  8.00000000E-01  8.00000000E-01
  1.50000000E+00  1.50000000E+00  8.00000000E-01  8.00000000E-01  1.50000000E+00
  1.50000000E+00  8.00000000E-01  8.00000000E-01  1.50000000E+00  1.50000000E+00
  8.00000000E-01  8.00000000E-01  1.50000000E+00  1.50000000E+00  8.00000000E-01
  8.00000000E-01  1.50000000E+00  1.50000000E+00  8.00000000E-01  8.00000000E-01
  1.50000000E+00  1.50000000E+00  8.00000000E-01  8.00000000E-01  1.50000000E+00
  1.50000000E+00  8.00000000E-01  8.00000000E-01  1.50000000E+00  1.50000000E+00
  8.00000000E-01  8.00000000E-01  1.50000000E+00  1.50000000E+00  8.00000000E-01
  8.00000000E-01  1.50000000E+00  1.50000000E+00  8.00000000E-01  8.00000000E-01
  1.50000000E+00  1.50000000E+00  8.00000000E-01  8.00000000E-01  1.50000000E+00
  1.50000000E+00  8.00000000E-01  8.00000000E-01  1.50000000E+00  1.50000000E+00
  8.00000000E-01  8.00000000E-01  1.50000000E+00  1.50000000E+00  8.00000000E-01
  8.00000000E-01  1.50000000E+00  1.50000000E+00  8.00000000E-01  8.00000000E-01
  1.50000000E+00  1.50000000E+00  8.00000000E-01  8.00000000E-01  1.50000000E+00
  1.50000000E+00  8.00000000E-01  8.00000000E-01  1.50000000E+00  1.50000000E+00
  8.00000000E-01  8.00000000E-01  1.50000000E+00  1.50000000E+00  8.00000000E-01
  8.00000000E-01  1.50000000E+00  1.50000000E+00  8.00000000E-01  8.00000000E-01
  1.50000000E+00  1.50000000E+00  8.00000000E-01  8.00000000E-01  1.50000000E+00
  1.50000000E+00  8.00000000E-01  8.00000000E-01  1.50000000E+00  1.50000000E+00
  8.00000000E-01  8.00000000E-01  1.50000000E+00  1.50000000E+00  8.00000000E-01
  8.00000000E-01  1.50000000E+00  1.50000000E+00  8.00000000E-01  8.00000000E-01
  1.50000000E+00  1.50000000E+00  8.00000000E-01  8.00000000E-01  1.50000000E+00
  1.50000000E+00  8.00000000E-01  8.00000000E-01  1.50000000E+00  1.50000000E+00
  8.00000000E-01  8.00000000E-01  1.50000000E+00  1.50000000E+00  8.00000000E-01
  8.00000000E-01  1.50000000E+00  1.50000000E+00  8.00000000E-01  8.00000000E-01
  1.50000000E+00  1.50000000E+00  8.00000000E-01  8.00000000E-01  1.50000000E+00
  1.50000000E+00  8.00000000E-01  8.00000000E-01  1.50000000E+00  1.50000000E+00
  8.00000000E-01  8.00000000E-01  1.50000000E+00  1.50000000E+00  8.00000000E-01
  8.00000000E-01  1.50000000E+00  1.50000000E+00  8.00000000E-01  8.00000000E-01
  1.50000000E+00  1.50000000E+00  8.00000000E-01  8.00000000E-01  1.50000000E+00
  1.50000000E+00  8.00000000E-01  8.00000000E-01  1.50000000E+00  1.50000000E+00
  8.00000000E-01  8.00000000E-01  1.50000000E+00  1.50000000E+00  8.00000000E-01
  8.00000000E-01  1.50000000E+00  1.50000000E+00  8.00000000E-01  8.00000000E-01
  1.50000000E+00  1.50000000E+00  8.00000000E-01  8.00000000E-01  1.50000000E+00
  1.50000000E+00  8.00000000E-01  8.00000000E-01  1.50000000E+00  1.50000000E+00
  8.00000000E-01  8.00000000E-01  1.50000000E+00  1.50000000E+00  8.00000000E-01
  8.00000000E-01  1.50000000E+00  1.50000000E+00  8.00000000E-01  8.00000000E-01
  1.50000000E+00  1.50000000E+00  8.00000000E-01  8.00000000E-01  1.50000000E+00
  1.50000000E+00  8.00000000E-01  8.00000000E-01  1.50000000E+00  1.50000000E+00
  8.00000000E-01  8.00000000E-01  1.50000000E+00  1.50000000E+00  8.00000000E-01
  8.00000000E-01  1.50000000E+00  1.50000000E+00  8.00000000E-01  8.00000000E-01
  1.50000000E+00  1.50000000E+00  8.00000000E-01  8.00000000E-01  1.50000000E+00
  1.50000000E+00  8.00000000E-01  8.00000000E-01  1.50000000E+00  1.50000000E+00
  8.00000000E-01  8.00000000E-01  1.50000000E+00  1.50000000E+00  8.00000000E-01
  8.00000000E-01  1.50000000E+00  1.50000000E+00  8.00000000E-01  8.00000000E-01
  1.50000000E+00  1.50000000E+00  8.00000000E-01  8.00000000E-01  1.50000000E+00
  1.50000000E+00  8.00000000E-01  8.00000000E-01  1.50000000E+00  1.50000000E+00
  8.00000000E-01  8.00000000E-01  1.50000000E+00  1.50000000E+00  8.00000000E-01
  8.00000000E-01  1.50000000E+00  1.50000000E+00  8.00000000E-01  8.00000000E-01
  1.50000000E+00  1.50000000E+00  8.00000000E-01  8.00000000E-01  1.50000000E+00
  1.50000000E+00  8.00000000E-01  8.00000000E-01  1.50000000E+00  1.50000000E+00
  8.00000000E-01  8.00000000E-01  1.50000000E+00  1.50000000E+00  8.00000000E-01
  8.00000000E-01  1.50000000E+00  1.50000000E+00  8.00000000E-01  8.00000000E-01
  1.50000000E+00  1.50000000E+00  8.00000000E-01  8.00000000E-01  1.50000000E+00
  1.50000000E+00  8.00000000E-01  8.00000000E-01  1.50000000E+00  1.50000000E+00
  8.00000000E-01  8.00000000E-01  1.50000000E+00  1.50000000E+00  8.00000000E-01
  8.00000000E-01  1.50000000E+00  1.50000000E+00  8.00000000E-01  8.00000000E-01
  1.50000000E+00  1.50000000E+00  8.00000000E-01  8.00000000E-01  1.50000000E+00
  1.50000000E+00  8.00000000E-01  8.00000000E-01  1.50000000E+00  1.50000000E+00
  8.00000000E-01  8.00000000E-01  1.50000000E+00  1.50000000E+00  8.00000000E-01
  8.00000000E-01  1.50000000E+00  1.50000000E+00  8.00000000E-01  8.00000000E-01
  1.50000000E+00  1.50000000E+00  8.00000000E-01  8.00000000E-01  1.50000000E+00
  1.50000000E+00  8.00000000E-01  8.00000000E-01  1.50000000E+00  1.50000000E+00
  8.00000000E-01  8.00000000E-01  1.50000000E+00  1.50000000E+00  8.00000000E-01
  8.00000000E-01  1.50000000E+00  1.50000000E+00  8.00000000E-01  8.00000000E-01
  1.50000000E+00  1.50000000E+00  8.00000000E-01  8.00000000E-01  1.50000000E+00
  1.50000000E+00  8.00000000E-01  8.00000000E-01  1.50000000E+00  1.50000000E+00
  8.00000000E-01  8.00000000E-01  1.50000000E+00  1.50000000E+00  8.00000000E-01
  8.00000000E-01  1.50000000E+00  1.50000000E+00  8.00000000E-01  8.00000000E-01
  1.50000000E+00  1.50000000E+00  8.00000000E-01  8.00000000E-01  1.50000000E+00
  1.50000000E+00  8.00000000E-01  8.00000000E-01  1.50000000E+00  1.50000000E+00
  8.00000000E-01  8.00000000E-01  1.50000000E+00  1.50000000E+00  8.00000000E-01
  8.00000000E-01  1.50000000E+00  1.50000000E+00  8.00000000E-01  8.00000000E-01
  1.50000000E+00  1.50000000E+00  8.00000000E-01  8.00000000E-01  1.50000000E+00
  1.50000000E+00  8.00000000E-01  8.00000000E-01  1.50000000E+00  1.50000000E+00
  8.00000000E-01  8.00000000E-01  1.50000000E+00  1.50000000E+00  8.00000000E-01
  8.00000000E-01  1.50000000E+00  1.50000000E+00  8.00000000E-01  8.00000000E-01
  1.50000000E+00  1.50000000E+00  8.00000000E-01  8.00000000E-01  1.50000000E+00
  1.50000000E+00  8.00000000E-01  8.00000000E-01  1.50000000E+00  1.50000000E+00
  8.00000000E-01  8.00000000E-01  1.50000000E+00  1.50000000E+00  8.00000000E-01
  8.00000000E-01  1.50000000E+00  1.50000000E+00  8.00000000E-01  8.00000000E-01
  1.50000000E+00  1.50000000E+00  8.00000000E-01  8.00000000E-01  1.50000000E+00
  1.50000000E+00  8.00000000E-01  8.00000000E-01  1.50000000E+00  1.50000000E+00
  8.00000000E-01  8.00000000E-01  1.50000000E+00  1.50000000E+00  8.00000000E-01
  8.00000000E-01  1.50000000E+00  1.50000000E+00  8.00000000E-01  8.00000000E-01
  1.50000000E+00  1.50000000E+00  8.00000000E-01  8.00000000E-01  1.50000000E+00
  1.50000000E+00  8.00000000E-01  8.00000000E-01  1.50000000E+00  1.50000000E+00
  8.00000000E-01  8.00000000E-01  1.50000000E+00  1.50000000E+00  8.00000000E-01
  8.00000000E-01  1.50000000E+00  1.50000000E+00  8.00000000E-01  8.00000000E-01
  1.50000000E+00  1.50000000E+00  8.00000000E-01  8.00000000E-01  1.50000000E+00
  1.50000000E+00  8.00000000E-01  8.00000000E-01  1.50000000E+00  1.50000000E+00
  8.00000000E-01  8.00000000E-01  1.50000000E+00  1.50000000E+00  8.00000000E-01
  8.00000000E-01  1.50000000E+00  1.50000000E+00  8.00000000E-01  8.00000000E-01
  1.50000000E+00  1.50000000E+00  8.00000000E-01  8.00000000E-01  1.50000000E+00
  1.50000000E+00  8.00000000E-01  8.00000000E-01  1.50000000E+00  1.50000000E+00
  8.00000000E-01  8.00000000E-01  1.50000000E+00  1.50000000E+00  8.00000000E-01
  8.00000000E-01  1.50000000E+00  1.50000000E+00  8.00000000E-01  8.00000000E-01
  1.50000000E+00  1.50000000E+00  8.00000000E-01  8.00000000E-01  1.50000000E+00
  1.50000000E+00  8.00000000E-01  8.00000000E-01  1.50000000E+00  1.50000000E+00
  8.00000000E-01  8.00000000E-01  1.50000000E+00  1.50000000E+00  8.00000000E-01
  8.00000000E-01  1.50000000E+00  1.50000000E+00  8.00000000E-01  8.00000000E-01
  1.50000000E+00  1.50000000E+00  8.00000000E-01  8.00000000E-01  1.50000000E+00
  1.50000000E+00  8.00000000E-01  8.00000000E-01  1.50000000E+00  1.50000000E+00
  8.00000000E-01  8.00000000E-01  1.50000000E+00  1.50000000E+00  8.00000000E-01
  8.00000000E-01  1.50000000E+00  1.50000000E+00  8.00000000E-01  8.00000000E-01
  1.50000000E+00  1.50000000E+00  8.00000000E-01  8.00000000E-01  1.50000000E+00
  1.50000000E+00  8.00000000E-01  8.00000000E-01  1.50000000E+00  1.50000000E+00
  8.00000000E-01  8.00000000E-01  1.50000000E+00  1.50000000E+00  8.00000000E-01
  8.00000000E-01  1.50000000E+00  1.50000000E+00  8.00000000E-01  8.00000000E-01
  1.50000000E+00  1.50000000E+00  8.00000000E-01  8.00000000E-01  1.50000000E+00
  1.50000000E+00  8.00000000E-01  8.00000000E-01  1.50000000E+00  1.50000000E+00
  8.00000000E-01  8.00000000E-01  1.50000000E+00  1.50000000E+00  8.00000000E-01
  8.00000000E-01  1.50000000E+00  1.50000000E+00  8.00000000E-01  8.00000000E-01
  1.50000000E+00  1.50000000E+00  8.00000000E-01  8.00000000E-01  1.50000000E+00
  1.50000000E+00  8.00000000E-01  8.00000000E-01  1.50000000E+00  1.50000000E+00
  8.00000000E-01  8.00000000E-01  1.50000000E+00  1.50000000E+00  8.00000000E-01
  8.00000000E-01  1.50000000E+00  1.50000000E+00  8.00000000E-01  8.00000000E-01
  1.50000000E+00  1.50000000E+00  8.00000000E-01  8.00000000E-01  1.50000000E+00
  1.50000000E+00  8.00000000E-01  8.00000000E-01  1.50000000E+00  1.50000000E+00
  8.00000000E-01  8.00000000E-01  1.50000000E+00  1.50000000E+00  8.00000000E-01
  8.00000000E-01  1.50000000E+00  1.50000000E+00  8.00000000E-01  8.00000000E-01
  1.50000000E+00  1.50000000E+00  8.00000000E-01  8.00000000E-01  1.50000000E+00
  1.50000000E+00  8.00000000E-01  8.00000000E-01  1.50000000E+00  1.50000000E+00
  8.00000000E-01  8.00000000E-01  1.50000000E+00  1.50000000E+00  8.00000000E-01
  8.00000000E-01  1.50000000E+00  1.50000000E+00  8.00000000E-01  8.00000000E-01
  1.50000000E+00  1.50000000E+00  8.00000000E-01  8.00000000E-01  1.50000000E+00
  1.50000000E+00  8.00000000E-01  8.00000000E-01  1.50000000E+00  1.50000000E+00
  8.00000000E-01  8.00000000E-01  1.50000000E+00  1.50000000E+00  8.00000000E-01
  8.00000000E-01  1.50000000E+00  1.50000000E+00  8.00000000E-01  8.00000000E-01
  1.50000000E+00  1.50000000E+00  8.00000000E-01  8.00000000E-01  1.50000000E+00
  1.50000000E+00  8.00000000E-01  8.00000000E-01  1.50000000E+00  1.50000000E+00
  8.00000000E-01  8.00000000E-01  1.50000000E+00  1.50000000E+00  8.00000000E-01
  8.00000000E-01  1.50000000E+00  1.50000000E+00  8.00000000E-01  8.00000000E-01
  1.50000000E+00  1.50000000E+00  8.00000000E-01  8.00000000E-01  1.50000000E+00
  1.50000000E+00  8.00000000E-01  8.00000000E-01  1.50000000E+00  1.50000000E+00
  8.00000000E-01  8.00000000E-01  1.50000000E+00  1.50000000E+00  8.00000000E-01
  8.00000000E-01  1.50000000E+00  1.50000000E+00  8.00000000E-01  8.00000000E-01
  1.50000000E+00  1.50000000E+00  8.00000000E-01  8.00000000E-01  1.50000000E+00
  1.50000000E+00  8.00000000E-01  8.00000000E-01  1.50000000E+00  1.50000000E+00
  8.00000000E-01  8.00000000E-01  1.50000000E+00  1.50000000E+00  8.00000000E-01
  8.00000000E-01  1.50000000E+00  1.50000000E+00  8.00000000E-01  8.00000000E-01
  1.50000000E+00  1.50000000E+00  8.00000000E-01  8.00000000E-01  1.50000000E+00
  1.50000000E+00  8.00000000E-01  8.00000000E-01  1.50000000E+00  1.50000000E+00
  8.00000000E-01  8.00000000E-01  1.50000000E+00  1.50000000E+00  8.00000000E-01
  8.00000000E-01  1.50000000E+00  1.50000000E+00  8.00000000E-01  8.00000000E-01
  1.50000000E+00  1.50000000E+00  8.00000000E-01  8.00000000E-01  1.50000000E+00
  1.50000000E+00  8.00000000E-01  8.00000000E-01  1.50000000E+00  1.50000000E+00
  8.00000000E-01  8.00000000E-01  1.50000000E+00  1.50000000E+00  8.00000000E-01
  8.00000000E-01  1.50000000E+00  1.50000000E+00  8.00000000E-01  8.00000000E-01
  1.50000000E+00  1.50000000E+00  8.00000000E-01  8.00000000E-01  1.50000000E+00
  1.50000000E+00  8.00000000E-01  8.00000000E-01  1.50000000E+00  1.50000000E+00
  8.00000000E-01  8.00000000E-01  1.50000000E+00  1.50000000E+00  8.00000000E-01
  8.00000000E-01  1.50000000E+00  1.50000000E+00  8.00000000E-01  8.00000000E-01
  1.50000000E+00  1.50000000E+00  8.00000000E-01  8.00000000E-01  1.50000000E+00
  1.50000000E+00  8.00000000E-01  8.00000000E-01  1.50000000E+00  1.50000000E+00
  8.00000000E-01  8.00000000E-01  1.50000000E+00  1.50000000E+00  8.00000000E-01
  8.00000000E-01  1.50000000E+00  1.50000000E+00  8.00000000E-01  8.00000000E-01
  1.50000000E+00  1.50000000E+00  8.00000000E-01  8.00000000E-01  1.50000000E+00
  1.50000000E+00  8.00000000E-01  8.00000000E-01  1.50000000E+00  1.50000000E+00
  8.00000000E-01  8.00000000E-01  1.50000000E+00  1.50000000E+00  8.00000000E-01
  8.00000000E-01  1.50000000E+00  1.50000000E+00  8.00000000E-01  8.00000000E-01
  1.50000000E+00  1.50000000E+00  8.00000000E-01  8.00000000E-01  1.50000000E+00
  1.50000000E+00  8.00000000E-01  8.00000000E-01  1.50000000E+00  1.50000000E+00
  8.00000000E-01  8.00000000E-01  1.50000000E+00  1.50000000E+00  8.00000000E-01
  8.00000000E-01  1.50000000E+00  1.50000000E+00  8.00000000E-01  8.00000000E-01
  1.50000000E+00  1.50000000E+00  8.00000000E-01  8.00000000E-01  1.50000000E+00
  1.50000000E+00  8.00000000E-01  8.00000000E-01  1.50000000E+00  1.50000000E+00
  8.00000000E-01  8.00000000E-01  1.50000000E+00  1.50000000E+00  8.00000000E-01
  8.00000000E-01  1.50000000E+00  1.50000000E+00  8.00000000E-01  8.00000000E-01
  1.50000000E+00  1.50000000E+00  8.00000000E-01  8.00000000E-01  1.50000000E+00
  1.50000000E+00  8.00000000E-01  8.00000000E-01  1.50000000E+00  1.50000000E+00
  8.00000000E-01  8.00000000E-01  1.50000000E+00  1.50000000E+00  8.00000000E-01
  8.00000000E-01  1.50000000E+00  1.50000000E+00  8.00000000E-01  8.00000000E-01
  1.50000000E+00  1.50000000E+00  8.00000000E-01  8.00000000E-01  1.50000000E+00
  1.50000000E+00  8.00000000E-01  8.00000000E-01  1.50000000E+00  1.50000000E+00
  8.00000000E-01  8.00000000E-01  1.50000000E+00  1.50000000E+00  8.00000000E-01
  8.00000000E-01  1.50000000E+00  1.50000000E+00  8.00000000E-01  8.00000000E-01
  1.50000000E+00  1.50000000E+00  8.00000000E-01  8.00000000E-01  1.50000000E+00
  1.50000000E+00  8.00000000E-01  8.00000000E-01  1.50000000E+00  1.50000000E+00
  8.00000000E-01  8.00000000E-01  1.50000000E+00  1.50000000E+00  8.00000000E-01
  8.00000000E-01  1.50000000E+00  1.50000000E+00  8.00000000E-01  8.00000000E-01
  1.50000000E+00  1.50000000E+00  8.00000000E-01  8.00000000E-01  1.50000000E+00
  1.50000000E+00  8.00000000E-01  8.00000000E-01  1.50000000E+00  1.50000000E+00
  8.00000000E-01  8.00000000E-01  1.50000000E+00  1.50000000E+00  8.00000000E-01
  8.00000000E-01  1.50000000E+00  1.50000000E+00  8.00000000E-01  8.00000000E-01
  1.50000000E+00  1.50000000E+00  8.00000000E-01  8.00000000E-01  1.50000000E+00
  1.50000000E+00  8.00000000E-01  8.00000000E-01  1.50000000E+00  1.50000000E+00
  8.00000000E-01  8.00000000E-01  1.50000000E+00  1.50000000E+00  8.00000000E-01
  8.00000000E-01  1.50000000E+00  1.50000000E+00  8.00000000E-01  8.00000000E-01
  1.50000000E+00  1.50000000E+00  8.00000000E-01  8.00000000E-01  1.50000000E+00
  1.50000000E+00  8.00000000E-01  8.00000000E-01  1.50000000E+00  1.50000000E+00
  8.00000000E-01  8.00000000E-01  1.50000000E+00  1.50000000E+00  8.00000000E-01
  8.00000000E-01  1.50000000E+00  1.50000000E+00  8.00000000E-01  8.00000000E-01
  1.50000000E+00  1.50000000E+00  8.00000000E-01  8.00000000E-01  1.50000000E+00
  1.50000000E+00  8.00000000E-01  8.00000000E-01  1.50000000E+00  1.50000000E+00
  8.00000000E-01  8.00000000E-01  1.50000000E+00  1.50000000E+00  8.00000000E-01
  8.00000000E-01  1.50000000E+00  1.50000000E+00  8.00000000E-01  8.00000000E-01
  1.50000000E+00  1.50000000E+00  8.00000000E-01  8.00000000E-01  1.50000000E+00
  1.50000000E+00  8.00000000E-01  8.00000000E-01  1.50000000E+00  1.50000000E+00
  8.00000000E-01  8.00000000E-01  1.50000000E+00  1.50000000E+00  8.00000000E-01
  8.00000000E-01  1.50000000E+00  1.50000000E+00  8.00000000E-01  8.00000000E-01
  1.50000000E+00  1.50000000E+00  8.00000000E-01  8.00000000E-01  1.50000000E+00
  1.50000000E+00  8.00000000E-01  8.00000000E-01  1.50000000E+00  1.50000000E+00
  8.00000000E-01  8.00000000E-01  1.50000000E+00  1.50000000E+00  8.00000000E-01
  8.00000000E-01  1.50000000E+00  1.50000000E+00  8.00000000E-01  8.00000000E-01
  1.50000000E+00  1.50000000E+00  8.00000000E-01  8.00000000E-01  1.50000000E+00
  1.50000000E+00  8.00000000E-01  8.00000000E-01  1.50000000E+00  1.50000000E+00
  8.00000000E-01  8.00000000E-01  1.50000000E+00  1.50000000E+00  8.00000000E-01
  8.00000000E-01  1.50000000E+00  1.50000000E+00  8.00000000E-01  8.00000000E-01
  1.50000000E+00  1.50000000E+00  8.00000000E-01  8.00000000E-01  1.50000000E+00
  1.50000000E+00  8.00000000E-01  8.00000000E-01  1.50000000E+00  1.50000000E+00
  8.00000000E-01  8.00000000E-01  1.50000000E+00  1.50000000E+00  8.00000000E-01
  8.00000000E-01  1.50000000E+00  1.50000000E+00  8.00000000E-01  8.00000000E-01
  1.50000000E+00  1.50000000E+00  8.00000000E-01  8.00000000E-01  1.50000000E+00
  1.50000000E+00  8.00000000E-01  8.00000000E-01  1.50000000E+00  1.50000000E+00
  8.00000000E-01  8.00000000E-01  1.50000000E+00  1.50000000E+00  8.00000000E-01
  8.00000000E-01  1.50000000E+00  1.50000000E+00  8.00000000E-01  8.00000000E-01
  1.50000000E+00  1.50000000E+00  8.00000000E-01  8.00000000E-01  1.50000000E+00
  1.50000000E+00  8.00000000E-01  8.00000000E-01  1.50000000E+00  1.50000000E+00
  8.00000000E-01  8.00000000E-01  1.50000000E+00  1.50000000E+00  8.00000000E-01
  8.00000000E-01  1.50000000E+00  1.50000000E+00  8.00000000E-01  8.00000000E-01
  1.50000000E+00  1.50000000E+00  8.00000000E-01  8.00000000E-01  1.50000000E+00
  1.50000000E+00  8.00000000E-01  8.00000000E-01  1.50000000E+00  1.50000000E+00
  8.00000000E-01  8.00000000E-01  1.50000000E+00  1.50000000E+00  8.00000000E-01
  8.00000000E-01  1.50000000E+00  1.50000000E+00  8.00000000E-01  8.00000000E-01
  1.50000000E+00  1.50000000E+00  8.00000000E-01  8.00000000E-01  1.50000000E+00
  1.50000000E+00  8.00000000E-01  8.00000000E-01  1.50000000E+00  1.50000000E+00
  8.00000000E-01  8.00000000E-01  1.50000000E+00  1.50000000E+00  8.00000000E-01
  8.00000000E-01  1.50000000E+00  1.50000000E+00  8.00000000E-01  8.00000000E-01
  1.50000000E+00  1.50000000E+00  8.00000000E-01  8.00000000E-01  1.50000000E+00
  1.50000000E+00  8.00000000E-01  8.00000000E-01  1.50000000E+00  1.50000000E+00
  8.00000000E-01  8.00000000E-01  1.50000000E+00  1.50000000E+00  8.00000000E-01
  8.00000000E-01  1.50000000E+00  1.50000000E+00  8.00000000E-01  8.00000000E-01
  1.50000000E+00  1.50000000E+00  8.00000000E-01  8.00000000E-01  1.50000000E+00
  1.50000000E+00  8.00000000E-01  8.00000000E-01  1.50000000E+00  1.50000000E+00
  8.00000000E-01  8.00000000E-01  1.50000000E+00  1.50000000E+00  8.00000000E-01
  8.00000000E-01  1.50000000E+00  1.50000000E+00  8.00000000E-01  8.00000000E-01
  1.50000000E+00  1.50000000E+00  8.00000000E-01  8.00000000E-01  1.50000000E+00
  1.50000000E+00  8.00000000E-01  8.00000000E-01  1.50000000E+00  1.50000000E+00
  8.00000000E-01  8.00000000E-01  1.50000000E+00  1.50000000E+00  8.00000000E-01
  8.00000000E-01  1.50000000E+00  1.50000000E+00  8.00000000E-01  8.00000000E-01
  1.50000000E+00  1.50000000E+00  8.00000000E-01  8.00000000E-01  1.50000000E+00
  1.50000000E+00  8.00000000E-01  8.00000000E-01  1.50000000E+00  1.50000000E+00
  8.00000000E-01  8.00000000E-01  1.50000000E+00  1.50000000E+00  8.00000000E-01
  8.00000000E-01  1.50000000E+00  1.50000000E+00  8.00000000E-01  8.00000000E-01
  1.50000000E+00  1.50000000E+00  8.00000000E-01  8.00000000E-01  1.50000000E+00
  1.50000000E+00  8.00000000E-01  8.00000000E-01  1.50000000E+00  1.50000000E+00
  8.00000000E-01  8.00000000E-01  1.50000000E+00  1.50000000E+00  8.00000000E-01
  8.00000000E-01  1.50000000E+00  1.50000000E+00  8.00000000E-01  8.00000000E-01
  1.50000000E+00  1.50000000E+00  8.00000000E-01  8.00000000E-01  1.50000000E+00
  1.50000000E+00  8.00000000E-01  8.00000000E-01  1.50000000E+00  1.50000000E+00
  8.00000000E-01  8.00000000E-01  1.50000000E+00  1.50000000E+00  8.00000000E-01
  8.00000000E-01  1.50000000E+00  1.50000000E+00  8.00000000E-01  8.00000000E-01
  1.50000000E+00  1.50000000E+00  8.00000000E-01  8.00000000E-01  1.50000000E+00
  1.50000000E+00  8.00000000E-01  8.00000000E-01  1.50000000E+00  1.50000000E+00
  8.00000000E-01  8.00000000E-01  1.50000000E+00  1.50000000E+00  8.00000000E-01
  8.00000000E-01  1.50000000E+00  1.50000000E+00  8.00000000E-01  8.00000000E-01
  1.50000000E+00  1.50000000E+00  8.00000000E-01  8.00000000E-01  1.50000000E+00
  1.50000000E+00  8.00000000E-01  8.00000000E-01  1.50000000E+00  1.50000000E+00
  8.00000000E-01  8.00000000E-01  1.50000000E+00  1.50000000E+00  8.00000000E-01
  8.00000000E-01  1.50000000E+00  1.50000000E+00  8.00000000E-01  8.00000000E-01
  1.50000000E+00  1.50000000E+00  8.00000000E-01  8.00000000E-01  1.50000000E+00
  1.50000000E+00  8.00000000E-01  8.00000000E-01  1.50000000E+00  1.50000000E+00
  8.00000000E-01  8.00000000E-01  1.50000000E+00  1.50000000E+00  8.00000000E-01
  8.00000000E-01  1.50000000E+00  1.50000000E+00  8.00000000E-01  8.00000000E-01
  1.50000000E+00  1.50000000E+00  8.00000000E-01  8.00000000E-01  1.50000000E+00
  1.50000000E+00  8.00000000E-01  8.00000000E-01  1.50000000E+00  1.50000000E+00
  8.00000000E-01  8.00000000E-01  1.50000000E+00  1.50000000E+00  8.00000000E-01
  8.00000000E-01  1.50000000E+00  1.50000000E+00  8.00000000E-01  8.00000000E-01
  1.50000000E+00  1.50000000E+00  8.00000000E-01  8.00000000E-01  1.50000000E+00
  1.50000000E+00  8.00000000E-01  8.00000000E-01  1.50000000E+00  1.50000000E+00
  8.00000000E-01  8.00000000E-01  1.50000000E+00  1.50000000E+00  8.00000000E-01
  8.00000000E-01  1.50000000E+00  1.50000000E+00  8.00000000E-01  8.00000000E-01
  1.50000000E+00  1.50000000E+00  8.00000000E-01  8.00000000E-01  1.50000000E+00
  1.50000000E+00  8.00000000E-01  8.00000000E-01  1.50000000E+00  1.50000000E+00
  8.00000000E-01  8.00000000E-01  1.50000000E+00  1.50000000E+00  8.00000000E-01
  8.00000000E-01  1.50000000E+00  1.50000000E+00  8.00000000E-01  8.00000000E-01
  1.50000000E+00  1.50000000E+00  8.00000000E-01  8.00000000E-01  1.50000000E+00
  1.50000000E+00  8.00000000E-01  8.00000000E-01  1.50000000E+00  1.50000000E+00
  8.00000000E-01  8.00000000E-01  1.50000000E+00  1.50000000E+00  8.00000000E-01
  8.00000000E-01  1.50000000E+00  1.50000000E+00  8.00000000E-01  8.00000000E-01
  1.50000000E+00  1.50000000E+00  8.00000000E-01  8.00000000E-01  1.50000000E+00
  1.50000000E+00  8.00000000E-01  8.00000000E-01  1.50000000E+00  1.50000000E+00
  8.00000000E-01  8.00000000E-01  1.50000000E+00  1.50000000E+00  8.00000000E-01
  8.00000000E-01  1.50000000E+00  1.50000000E+00  8.00000000E-01  8.00000000E-01
  1.50000000E+00  1.50000000E+00  8.00000000E-01  8.00000000E-01  1.50000000E+00
  1.50000000E+00  8.00000000E-01  8.00000000E-01  1.50000000E+00  1.50000000E+00
  8.00000000E-01  8.00000000E-01  1.50000000E+00  1.50000000E+00  8.00000000E-01
  8.00000000E-01  1.50000000E+00  1.50000000E+00  8.00000000E-01  8.00000000E-01
  1.50000000E+00  1.50000000E+00  8.00000000E-01  8.00000000E-01  1.50000000E+00
  1.50000000E+00  8.00000000E-01  8.00000000E-01  1.50000000E+00  1.50000000E+00
  8.00000000E-01  8.00000000E-01  1.50000000E+00  1.50000000E+00  8.00000000E-01
  8.00000000E-01  1.50000000E+00  1.50000000E+00  8.00000000E-01  8.00000000E-01
  1.50000000E+00  1.50000000E+00  8.00000000E-01  8.00000000E-01  1.50000000E+00
  1.50000000E+00  8.00000000E-01  8.00000000E-01  1.50000000E+00  1.50000000E+00
  8.00000000E-01  8.00000000E-01  1.50000000E+00  1.50000000E+00  8.00000000E-01
  8.00000000E-01  1.50000000E+00  1.50000000E+00  8.00000000E-01  8.00000000E-01
  1.50000000E+00  1.50000000E+00  8.00000000E-01  8.00000000E-01  1.50000000E+00
  1.50000000E+00  8.00000000E-01  8.00000000E-01  1.50000000E+00  1.50000000E+00
  8.00000000E-01  8.00000000E-01  1.50000000E+00  1.50000000E+00  8.00000000E-01
  8.00000000E-01  1.50000000E+00  1.50000000E+00  8.00000000E-01  8.00000000E-01
  1.50000000E+00  1.50000000E+00  8.00000000E-01  8.00000000E-01  1.50000000E+00
  1.50000000E+00  8.00000000E-01  8.00000000E-01  1.50000000E+00  1.50000000E+00
  8.00000000E-01  8.00000000E-01  1.50000000E+00  1.50000000E+00  8.00000000E-01
  8.00000000E-01  1.50000000E+00  1.50000000E+00  8.00000000E-01  8.00000000E-01
  1.50000000E+00  1.50000000E+00  8.00000000E-01  8.00000000E-01  1.50000000E+00
  1.50000000E+00  8.00000000E-01  8.00000000E-01  1.50000000E+00  1.50000000E+00
  8.00000000E-01  8.00000000E-01  1.50000000E+00  1.50000000E+00  8.00000000E-01
  8.00000000E-01  1.50000000E+00  1.50000000E+00  8.00000000E-01  8.00000000E-01
  1.50000000E+00  1.50000000E+00  8.00000000E-01  8.00000000E-01  1.50000000E+00
  1.50000000E+00  8.00000000E-01  8.00000000E-01  1.50000000E+00  1.50000000E+00
  8.00000000E-01  8.00000000E-01  1.50000000E+00  1.50000000E+00  8.00000000E-01
  8.00000000E-01  1.50000000E+00  1.50000000E+00  8.00000000E-01  8.00000000E-01
  1.50000000E+00  1.50000000E+00  8.00000000E-01  8.00000000E-01  1.50000000E+00
  1.50000000E+00  8.00000000E-01  8.00000000E-01  1.50000000E+00  1.50000000E+00
  8.00000000E-01  8.00000000E-01  1.50000000E+00  1.50000000E+00  8.00000000E-01
  8.00000000E-01  1.50000000E+00  1.50000000E+00  8.00000000E-01  8.00000000E-01
  1.50000000E+00  1.50000000E+00  8.00000000E-01  8.00000000E-01  1.50000000E+00
  1.50000000E+00  8.00000000E-01  8.00000000E-01  1.50000000E+00  1.50000000E+00
  8.00000000E-01  8.00000000E-01  1.50000000E+00  1.50000000E+00  8.00000000E-01
  8.00000000E-01  1.50000000E+00  1.50000000E+00  8.00000000E-01  8.00000000E-01
  1.50000000E+00  1.50000000E+00  8.00000000E-01  8.00000000E-01  1.50000000E+00
  1.50000000E+00  8.00000000E-01  8.00000000E-01  1.50000000E+00  1.50000000E+00
  8.00000000E-01  8.00000000E-01  1.50000000E+00  1.50000000E+00  8.00000000E-01
  8.00000000E-01  1.50000000E+00  1.50000000E+00  8.00000000E-01  8.00000000E-01
  1.50000000E+00  1.50000000E+00  8.00000000E-01  8.00000000E-01  1.50000000E+00
  1.50000000E+00  8.00000000E-01  8.00000000E-01  1.50000000E+00  1.50000000E+00
  8.00000000E-01  8.00000000E-01  1.50000000E+00  1.50000000E+00  8.00000000E-01
  8.00000000E-01  1.50000000E+00  1.50000000E+00  8.00000000E-01  8.00000000E-01
  1.50000000E+00  1.50000000E+00  8.00000000E-01  8.00000000E-01  1.50000000E+00
  1.50000000E+00  8.00000000E-01  8.00000000E-01  1.50000000E+00  1.50000000E+00
  8.00000000E-01  8.00000000E-01  1.50000000E+00  1.50000000E+00  8.00000000E-01
  8.00000000E-01  1.50000000E+00  1.50000000E+00  8.00000000E-01  8.00000000E-01
  1.50000000E+00  1.50000000E+00  8.00000000E-01  8.00000000E-01  1.50000000E+00
  1.50000000E+00  8.00000000E-01  8.00000000E-01  1.50000000E+00  1.50000000E+00
  8.00000000E-01  8.00000000E-01  1.50000000E+00  1.50000000E+00  8.00000000E-01
  8.00000000E-01  1.50000000E+00  1.50000000E+00  8.00000000E-01  8.00000000E-01
  1.50000000E+00  1.50000000E+00  8.00000000E-01  8.00000000E-01  1.50000000E+00
  1.50000000E+00  8.00000000E-01  8.00000000E-01  1.50000000E+00  1.50000000E+00
  8.00000000E-01  8.00000000E-01  1.50000000E+00  1.50000000E+00  8.00000000E-01
  8.00000000E-01  1.50000000E+00  1.50000000E+00  8.00000000E-01  8.00000000E-01
  1.50000000E+00  1.50000000E+00  8.00000000E-01  8.00000000E-01  1.50000000E+00
  1.50000000E+00  8.00000000E-01  8.00000000E-01  1.50000000E+00  1.50000000E+00
  8.00000000E-01  8.00000000E-01  1.50000000E+00  1.50000000E+00  8.00000000E-01
  8.00000000E-01  1.50000000E+00  1.50000000E+00  8.00000000E-01  8.00000000E-01
  1.50000000E+00  1.50000000E+00  8.00000000E-01  8.00000000E-01  1.50000000E+00
  1.50000000E+00  8.00000000E-01  8.00000000E-01  1.50000000E+00  1.50000000E+00
  8.00000000E-01  8.00000000E-01  1.50000000E+00  1.50000000E+00  8.00000000E-01
  8.00000000E-01  1.50000000E+00  1.50000000E+00  8.00000000E-01  8.00000000E-01
  1.50000000E+00  1.50000000E+00  8.00000000E-01  8.00000000E-01  1.50000000E+00
  1.50000000E+00  8.00000000E-01  8.00000000E-01  1.50000000E+00  1.50000000E+00
  8.00000000E-01  8.00000000E-01  1.50000000E+00  1.50000000E+00  8.00000000E-01
  8.00000000E-01  1.50000000E+00  1.50000000E+00  8.00000000E-01  8.00000000E-01
  1.50000000E+00  1.50000000E+00  8.00000000E-01  8.00000000E-01  1.50000000E+00
  1.50000000E+00  8.00000000E-01  8.00000000E-01  1.50000000E+00  1.50000000E+00
  8.00000000E-01  8.00000000E-01  1.50000000E+00  1.50000000E+00  8.00000000E-01
  8.00000000E-01  1.50000000E+00  1.50000000E+00  8.00000000E-01  8.00000000E-01
  1.50000000E+00  1.50000000E+00  8.00000000E-01  8.00000000E-01  1.50000000E+00
  1.50000000E+00  8.00000000E-01  8.00000000E-01  1.50000000E+00  1.50000000E+00
  8.00000000E-01  8.00000000E-01  1.50000000E+00  1.50000000E+00  8.00000000E-01
  8.00000000E-01  1.50000000E+00  1.50000000E+00  8.00000000E-01  8.00000000E-01
  1.50000000E+00  1.50000000E+00  8.00000000E-01  8.00000000E-01  1.50000000E+00
  1.50000000E+00  8.00000000E-01  8.00000000E-01  1.50000000E+00  1.50000000E+00
  8.00000000E-01  8.00000000E-01  1.50000000E+00  1.50000000E+00  8.00000000E-01
  8.00000000E-01  1.50000000E+00  1.50000000E+00  8.00000000E-01  8.00000000E-01
  1.50000000E+00  1.50000000E+00  8.00000000E-01  8.00000000E-01  1.50000000E+00
  1.50000000E+00  8.00000000E-01  8.00000000E-01  1.50000000E+00  1.50000000E+00
  8.00000000E-01  8.00000000E-01  1.50000000E+00  1.50000000E+00  8.00000000E-01
  8.00000000E-01  1.50000000E+00  1.50000000E+00  8.00000000E-01  8.00000000E-01
  1.50000000E+00  1.50000000E+00  8.00000000E-01  8.00000000E-01  1.50000000E+00
  1.50000000E+00  8.00000000E-01  8.00000000E-01  1.50000000E+00  1.50000000E+00
  8.00000000E-01  8.00000000E-01  1.50000000E+00  1.50000000E+00  8.00000000E-01
  8.00000000E-01  1.50000000E+00  1.50000000E+00  8.00000000E-01  8.00000000E-01
  1.50000000E+00  1.50000000E+00  8.00000000E-01  8.00000000E-01  1.50000000E+00
  1.50000000E+00  8.00000000E-01  8.00000000E-01  1.50000000E+00  1.50000000E+00
  8.00000000E-01  8.00000000E-01  1.50000000E+00  1.50000000E+00  8.00000000E-01
  8.00000000E-01  1.50000000E+00  1.50000000E+00  8.00000000E-01  8.00000000E-01
  1.50000000E+00  1.50000000E+00  8.00000000E-01  8.00000000E-01  1.50000000E+00
  1.50000000E+00  8.00000000E-01  8.00000000E-01  1.50000000E+00  1.50000000E+00
  8.00000000E-01  8.00000000E-01  1.50000000E+00  1.50000000E+00  8.00000000E-01
  8.00000000E-01  1.50000000E+00  1.50000000E+00  8.00000000E-01  8.00000000E-01
  1.50000000E+00  1.50000000E+00  8.00000000E-01  8.00000000E-01  1.50000000E+00
  1.50000000E+00  8.00000000E-01  8.00000000E-01  1.50000000E+00  1.50000000E+00
  8.00000000E-01  8.00000000E-01  1.50000000E+00  1.50000000E+00  8.00000000E-01
  8.00000000E-01  1.50000000E+00  1.50000000E+00  8.00000000E-01  8.00000000E-01
  1.50000000E+00  1.50000000E+00  8.00000000E-01  8.00000000E-01  1.50000000E+00
  1.50000000E+00  8.00000000E-01  8.00000000E-01  1.50000000E+00  1.50000000E+00
  8.00000000E-01  8.00000000E-01  1.50000000E+00  1.50000000E+00  8.00000000E-01
  8.00000000E-01  1.50000000E+00  1.50000000E+00  8.00000000E-01  8.00000000E-01
  1.50000000E+00  1.50000000E+00  8.00000000E-01  8.00000000E-01  1.50000000E+00
  1.50000000E+00  8.00000000E-01  8.00000000E-01  1.50000000E+00  1.50000000E+00
  8.00000000E-01  8.00000000E-01  1.50000000E+00  1.50000000E+00  8.00000000E-01
  8.00000000E-01  1.50000000E+00  1.50000000E+00  8.00000000E-01  8.00000000E-01
  1.50000000E+00  1.50000000E+00  8.00000000E-01  8.00000000E-01  1.50000000E+00
  1.50000000E+00  8.00000000E-01  8.00000000E-01  1.50000000E+00  1.50000000E+00
  8.00000000E-01  8.00000000E-01  1.50000000E+00  1.50000000E+00  8.00000000E-01
  8.00000000E-01  1.50000000E+00  1.50000000E+00  8.00000000E-01  8.00000000E-01
  1.50000000E+00  1.50000000E+00  8.00000000E-01  8.00000000E-01  1.50000000E+00
  1.50000000E+00  8.00000000E-01  8.00000000E-01  1.50000000E+00  1.50000000E+00
  8.00000000E-01  8.00000000E-01  1.50000000E+00  1.50000000E+00  8.00000000E-01
  8.00000000E-01  1.50000000E+00  1.50000000E+00  8.00000000E-01  8.00000000E-01
  1.50000000E+00  1.50000000E+00  8.00000000E-01  8.00000000E-01  1.50000000E+00
  1.50000000E+00  8.00000000E-01  8.00000000E-01  1.50000000E+00  1.50000000E+00
  8.00000000E-01  8.00000000E-01  1.50000000E+00  1.50000000E+00  8.00000000E-01
  8.00000000E-01  1.50000000E+00  1.50000000E+00  8.00000000E-01  8.00000000E-01
  1.50000000E+00  1.50000000E+00  8.00000000E-01  8.00000000E-01  1.50000000E+00
  1.50000000E+00  8.00000000E-01  8.00000000E-01  1.50000000E+00  1.50000000E+00
  8.00000000E-01  8.00000000E-01  1.50000000E+00  1.50000000E+00  8.00000000E-01
  8.00000000E-01  1.50000000E+00  1.50000000E+00  8.00000000E-01  8.00000000E-01
  1.50000000E+00  1.50000000E+00  8.00000000E-01  8.00000000E-01  1.50000000E+00
  1.50000000E+00  8.00000000E-01  8.00000000E-01  1.50000000E+00  1.50000000E+00
  8.00000000E-01  8.00000000E-01  1.50000000E+00  1.50000000E+00  8.00000000E-01
  8.00000000E-01  1.50000000E+00  1.50000000E+00  8.00000000E-01  8.00000000E-01
  1.50000000E+00  1.50000000E+00  8.00000000E-01  8.00000000E-01  1.50000000E+00
  1.50000000E+00  8.00000000E-01  8.00000000E-01  1.50000000E+00  1.50000000E+00
  8.00000000E-01  8.00000000E-01  1.50000000E+00  1.50000000E+00  8.00000000E-01
  8.00000000E-01  1.50000000E+00  1.50000000E+00  8.00000000E-01  8.00000000E-01
  1.50000000E+00  1.50000000E+00  8.00000000E-01  8.00000000E-01  1.50000000E+00
  1.50000000E+00  8.00000000E-01  8.00000000E-01  1.50000000E+00  1.50000000E+00
  8.00000000E-01  8.00000000E-01  1.50000000E+00  1.50000000E+00  8.00000000E-01
  8.00000000E-01  1.50000000E+00  1.50000000E+00  8.00000000E-01  8.00000000E-01
  1.50000000E+00  1.50000000E+00  8.00000000E-01  8.00000000E-01  1.50000000E+00
  1.50000000E+00  8.00000000E-01  8.00000000E-01  1.50000000E+00  1.50000000E+00
  8.00000000E-01  8.00000000E-01  1.50000000E+00  1.50000000E+00  8.00000000E-01
  8.00000000E-01  1.50000000E+00  1.50000000E+00  8.00000000E-01  8.00000000E-01
  1.50000000E+00  1.50000000E+00  8.00000000E-01  8.00000000E-01  1.50000000E+00
  1.50000000E+00  8.00000000E-01  8.00000000E-01  1.50000000E+00  1.50000000E+00
  8.00000000E-01  8.00000000E-01  1.50000000E+00  1.50000000E+00  8.00000000E-01
  8.00000000E-01  1.50000000E+00  1.50000000E+00  8.00000000E-01  8.00000000E-01
  1.50000000E+00  1.50000000E+00  8.00000000E-01  8.00000000E-01  1.50000000E+00
  1.50000000E+00  8.00000000E-01  8.00000000E-01  1.50000000E+00  1.50000000E+00
  8.00000000E-01  8.00000000E-01  1.50000000E+00  1.50000000E+00  8.00000000E-01
  8.00000000E-01  1.50000000E+00  1.50000000E+00  8.00000000E-01  8.00000000E-01
  1.50000000E+00  1.50000000E+00  8.00000000E-01  8.00000000E-01  1.50000000E+00
  1.50000000E+00  8.00000000E-01  8.00000000E-01  1.50000000E+00  1.50000000E+00
  8.00000000E-01  8.00000000E-01  1.50000000E+00  1.50000000E+00  8.00000000E-01
  8.00000000E-01  1.50000000E+00  1.50000000E+00  8.00000000E-01  8.00000000E-01
  1.50000000E+00  1.50000000E+00  8.00000000E-01  8.00000000E-01  1.50000000E+00
  1.50000000E+00  8.00000000E-01  8.00000000E-01  1.50000000E+00  1.50000000E+00
  8.00000000E-01  8.00000000E-01  1.50000000E+00  1.50000000E+00  8.00000000E-01
  8.00000000E-01  1.50000000E+00  1.50000000E+00  8.00000000E-01  8.00000000E-01
  1.50000000E+00  1.50000000E+00  8.00000000E-01  8.00000000E-01  1.50000000E+00
  1.50000000E+00  8.00000000E-01  8.00000000E-01  1.50000000E+00  1.50000000E+00
  8.00000000E-01  8.00000000E-01  1.50000000E+00  1.50000000E+00  8.00000000E-01
  8.00000000E-01  1.50000000E+00  1.50000000E+00  8.00000000E-01  8.00000000E-01
  1.50000000E+00  1.50000000E+00  8.00000000E-01  8.00000000E-01  1.50000000E+00
  1.50000000E+00  8.00000000E-01  8.00000000E-01  1.50000000E+00  1.50000000E+00
  8.00000000E-01  8.00000000E-01  1.50000000E+00  1.50000000E+00  8.00000000E-01
  8.00000000E-01  1.50000000E+00  1.50000000E+00  8.00000000E-01  8.00000000E-01
  1.50000000E+00  1.50000000E+00  8.00000000E-01  8.00000000E-01  1.50000000E+00
  1.50000000E+00  8.00000000E-01  8.00000000E-01  1.50000000E+00  1.50000000E+00
  8.00000000E-01  8.00000000E-01  1.50000000E+00  1.50000000E+00  8.00000000E-01
  8.00000000E-01  1.50000000E+00  1.50000000E+00  8.00000000E-01  8.00000000E-01
  1.50000000E+00  1.50000000E+00  8.00000000E-01  8.00000000E-01  1.50000000E+00
  1.50000000E+00  8.00000000E-01  8.00000000E-01  1.50000000E+00  1.50000000E+00
  8.00000000E-01  8.00000000E-01  1.50000000E+00  1.50000000E+00  8.00000000E-01
  8.00000000E-01  1.50000000E+00  1.50000000E+00  8.00000000E-01  8.00000000E-01
  1.50000000E+00  1.50000000E+00  8.00000000E-01  8.00000000E-01  1.50000000E+00
  1.50000000E+00  8.00000000E-01  8.00000000E-01  1.50000000E+00  1.50000000E+00
  8.00000000E-01  8.00000000E-01  1.50000000E+00  1.50000000E+00  8.00000000E-01
  8.00000000E-01  1.50000000E+00  1.50000000E+00  8.00000000E-01  8.00000000E-01
  1.50000000E+00  1.50000000E+00  8.00000000E-01  8.00000000E-01  1.50000000E+00
  1.50000000E+00  8.00000000E-01  8.00000000E-01  1.50000000E+00  1.50000000E+00
  8.00000000E-01  8.00000000E-01  1.50000000E+00  1.50000000E+00  8.00000000E-01
  8.00000000E-01  1.50000000E+00  1.50000000E+00  8.00000000E-01  8.00000000E-01
  1.50000000E+00  1.50000000E+00  8.00000000E-01  8.00000000E-01  1.50000000E+00
  1.50000000E+00  8.00000000E-01  8.00000000E-01  1.50000000E+00  1.50000000E+00
  8.00000000E-01  8.00000000E-01  1.50000000E+00  1.50000000E+00  8.00000000E-01
  8.00000000E-01  1.50000000E+00  1.50000000E+00  8.00000000E-01  8.00000000E-01
  1.50000000E+00  1.50000000E+00  8.00000000E-01  8.00000000E-01  1.50000000E+00
  1.50000000E+00  8.00000000E-01  8.00000000E-01  1.50000000E+00  1.50000000E+00
  8.00000000E-01  8.00000000E-01  1.50000000E+00  1.50000000E+00  8.00000000E-01
  8.00000000E-01  1.50000000E+00  1.50000000E+00  8.00000000E-01  8.00000000E-01
  1.50000000E+00  1.50000000E+00  8.00000000E-01  8.00000000E-01  1.50000000E+00
  1.50000000E+00  8.00000000E-01  8.00000000E-01  1.50000000E+00  1.50000000E+00
  8.00000000E-01  8.00000000E-01  1.50000000E+00  1.50000000E+00  8.00000000E-01
  8.00000000E-01  1.50000000E+00  1.50000000E+00  8.00000000E-01  8.00000000E-01
  1.50000000E+00  1.50000000E+00  8.00000000E-01  8.00000000E-01  1.50000000E+00
  1.50000000E+00  8.00000000E-01  8.00000000E-01  1.50000000E+00  1.50000000E+00
  8.00000000E-01  8.00000000E-01  1.50000000E+00  1.50000000E+00  8.00000000E-01
  8.00000000E-01  1.50000000E+00  1.50000000E+00  8.00000000E-01  8.00000000E-01
  1.50000000E+00  1.50000000E+00  8.00000000E-01  8.00000000E-01  1.50000000E+00
  1.50000000E+00  8.00000000E-01  8.00000000E-01  1.50000000E+00  1.50000000E+00
  8.00000000E-01  8.00000000E-01  1.50000000E+00  1.50000000E+00  8.00000000E-01
  8.00000000E-01  1.50000000E+00  1.50000000E+00  8.00000000E-01  8.00000000E-01
  1.50000000E+00  1.50000000E+00  8.00000000E-01  8.00000000E-01  1.50000000E+00
  1.50000000E+00  8.00000000E-01  8.00000000E-01  1.50000000E+00  1.50000000E+00
  8.00000000E-01  8.00000000E-01  1.50000000E+00  1.50000000E+00  8.00000000E-01
  8.00000000E-01  1.50000000E+00  1.50000000E+00  8.00000000E-01  8.00000000E-01
  1.50000000E+00  1.50000000E+00  8.00000000E-01  8.00000000E-01  1.50000000E+00
  1.50000000E+00  8.00000000E-01  8.00000000E-01  1.50000000E+00  1.50000000E+00
  8.00000000E-01  8.00000000E-01  1.50000000E+00  1.50000000E+00  8.00000000E-01
  8.00000000E-01  1.50000000E+00  1.50000000E+00  8.00000000E-01  8.00000000E-01
  1.50000000E+00  1.50000000E+00  8.00000000E-01  8.00000000E-01  1.50000000E+00
  1.50000000E+00  8.00000000E-01  8.00000000E-01  1.50000000E+00  1.50000000E+00
  8.00000000E-01  8.00000000E-01  1.50000000E+00  1.50000000E+00  8.00000000E-01
  8.00000000E-01  1.50000000E+00  1.50000000E+00  8.00000000E-01  8.00000000E-01
  1.50000000E+00  1.50000000E+00  8.00000000E-01  8.00000000E-01  1.50000000E+00
  1.50000000E+00  8.00000000E-01  8.00000000E-01  1.50000000E+00  1.50000000E+00
  8.00000000E-01  8.00000000E-01  1.50000000E+00  1.50000000E+00  8.00000000E-01
  8.00000000E-01  1.50000000E+00  1.50000000E+00  8.00000000E-01  8.00000000E-01
  1.50000000E+00  1.50000000E+00  8.00000000E-01  8.00000000E-01  1.50000000E+00
  1.50000000E+00  8.00000000E-01  8.00000000E-01  1.50000000E+00  1.50000000E+00
  8.00000000E-01  8.00000000E-01  1.50000000E+00  1.50000000E+00  8.00000000E-01
  8.00000000E-01  1.50000000E+00  1.50000000E+00  8.00000000E-01  8.00000000E-01
  1.50000000E+00  1.50000000E+00  8.00000000E-01  8.00000000E-01  1.50000000E+00
  1.50000000E+00  8.00000000E-01  8.00000000E-01  1.50000000E+00  1.50000000E+00
  8.00000000E-01  8.00000000E-01  1.50000000E+00  1.50000000E+00  8.00000000E-01
  8.00000000E-01  1.50000000E+00  1.50000000E+00  8.00000000E-01  8.00000000E-01
  1.50000000E+00  1.50000000E+00  8.00000000E-01  8.00000000E-01  1.50000000E+00
  1.50000000E+00  8.00000000E-01  8.00000000E-01  1.50000000E+00  1.50000000E+00
  8.00000000E-01  8.00000000E-01  1.50000000E+00  1.50000000E+00  8.00000000E-01
  8.00000000E-01  1.50000000E+00  1.50000000E+00  8.00000000E-01  8.00000000E-01
  1.50000000E+00  1.50000000E+00  8.00000000E-01  8.00000000E-01  1.50000000E+00
  1.50000000E+00  8.00000000E-01  8.00000000E-01  1.50000000E+00  1.50000000E+00
  8.00000000E-01  8.00000000E-01  1.50000000E+00  1.50000000E+00  8.00000000E-01
  8.00000000E-01  1.50000000E+00  1.50000000E+00  8.00000000E-01  8.00000000E-01
  1.50000000E+00  1.50000000E+00  8.00000000E-01  8.00000000E-01  1.50000000E+00
  1.50000000E+00  8.00000000E-01  8.00000000E-01  1.50000000E+00  1.50000000E+00
  8.00000000E-01  8.00000000E-01  1.50000000E+00  1.50000000E+00  8.00000000E-01
  8.00000000E-01  1.50000000E+00  1.50000000E+00  8.00000000E-01  8.00000000E-01
  1.50000000E+00  1.50000000E+00  8.00000000E-01  8.00000000E-01  1.50000000E+00
  1.50000000E+00  8.00000000E-01  8.00000000E-01  1.50000000E+00  1.50000000E+00
  8.00000000E-01  8.00000000E-01  1.50000000E+00  1.50000000E+00  8.00000000E-01
  8.00000000E-01  1.50000000E+00  1.50000000E+00  8.00000000E-01  8.00000000E-01
  1.50000000E+00  1.50000000E+00  8.00000000E-01  8.00000000E-01  1.50000000E+00
  1.50000000E+00  8.00000000E-01  8.00000000E-01  1.50000000E+00  1.50000000E+00
  8.00000000E-01  8.00000000E-01  1.50000000E+00  1.50000000E+00  8.00000000E-01
  8.00000000E-01  1.50000000E+00  1.50000000E+00  8.00000000E-01  8.00000000E-01
  1.50000000E+00  1.50000000E+00  8.00000000E-01  8.00000000E-01  1.50000000E+00
  1.50000000E+00  8.00000000E-01  8.00000000E-01  1.50000000E+00  1.50000000E+00
  8.00000000E-01  8.00000000E-01  1.50000000E+00  1.50000000E+00  8.00000000E-01
  8.00000000E-01  1.50000000E+00  1.50000000E+00  8.00000000E-01  8.00000000E-01
  1.50000000E+00  1.50000000E+00  8.00000000E-01  8.00000000E-01  1.50000000E+00
  1.50000000E+00  8.00000000E-01  8.00000000E-01  1.50000000E+00  1.50000000E+00
  8.00000000E-01  8.00000000E-01  1.50000000E+00  1.50000000E+00  8.00000000E-01
  8.00000000E-01  1.50000000E+00  1.50000000E+00  8.00000000E-01  8.00000000E-01
  1.50000000E+00  1.50000000E+00  8.00000000E-01  8.00000000E-01  1.50000000E+00
  1.50000000E+00  8.00000000E-01  8.00000000E-01  1.50000000E+00  1.50000000E+00
  8.00000000E-01  8.00000000E-01  1.50000000E+00  1.50000000E+00  8.00000000E-01
  8.00000000E-01  1.50000000E+00  1.50000000E+00  8.00000000E-01  8.00000000E-01
  1.50000000E+00  1.50000000E+00  8.00000000E-01  8.00000000E-01  1.50000000E+00
  1.50000000E+00  8.00000000E-01  8.00000000E-01  1.50000000E+00  1.50000000E+00
  8.00000000E-01  8.00000000E-01  1.50000000E+00  1.50000000E+00  8.00000000E-01
  8.00000000E-01  1.50000000E+00  1.50000000E+00  8.00000000E-01  8.00000000E-01
  1.50000000E+00  1.50000000E+00  8.00000000E-01  8.00000000E-01  1.50000000E+00
  1.50000000E+00  8.00000000E-01  8.00000000E-01  1.50000000E+00  1.50000000E+00
  8.00000000E-01  8.00000000E-01  1.50000000E+00  1.50000000E+00  8.00000000E-01
  8.00000000E-01  1.50000000E+00  1.50000000E+00  8.00000000E-01  8.00000000E-01
  1.50000000E+00  1.50000000E+00  8.00000000E-01  8.00000000E-01  1.50000000E+00
  1.50000000E+00  8.00000000E-01  8.00000000E-01  1.50000000E+00  1.50000000E+00
  8.00000000E-01  8.00000000E-01  1.50000000E+00  1.50000000E+00  8.00000000E-01
  8.00000000E-01  1.50000000E+00  1.50000000E+00  8.00000000E-01  8.00000000E-01
  1.50000000E+00  1.50000000E+00  8.00000000E-01  8.00000000E-01  1.50000000E+00
  1.50000000E+00  8.00000000E-01  8.00000000E-01  1.50000000E+00  1.50000000E+00
  8.00000000E-01  8.00000000E-01  1.50000000E+00  1.50000000E+00  8.00000000E-01
  8.00000000E-01  1.50000000E+00  1.50000000E+00  8.00000000E-01  8.00000000E-01
  1.50000000E+00  1.50000000E+00  8.00000000E-01  8.00000000E-01  1.50000000E+00
  1.50000000E+00  8.00000000E-01  8.00000000E-01  1.50000000E+00  1.50000000E+00
  8.00000000E-01  8.00000000E-01  1.50000000E+00  1.50000000E+00  8.00000000E-01
  8.00000000E-01  1.50000000E+00  1.50000000E+00  8.00000000E-01  8.00000000E-01
  1.50000000E+00  1.50000000E+00  8.00000000E-01  8.00000000E-01  1.50000000E+00
  1.50000000E+00  8.00000000E-01  8.00000000E-01  1.50000000E+00  1.50000000E+00
  8.00000000E-01  8.00000000E-01  1.50000000E+00  1.50000000E+00  8.00000000E-01
  8.00000000E-01  1.50000000E+00  1.50000000E+00  8.00000000E-01  8.00000000E-01
  1.50000000E+00  1.50000000E+00  8.00000000E-01  8.00000000E-01  1.50000000E+00
  1.50000000E+00  8.00000000E-01  8.00000000E-01  1.50000000E+00  1.50000000E+00
  8.00000000E-01  8.00000000E-01  1.50000000E+00  1.50000000E+00  8.00000000E-01
  8.00000000E-01  1.50000000E+00  1.50000000E+00  8.00000000E-01  8.00000000E-01
  1.50000000E+00  1.50000000E+00  8.00000000E-01  8.00000000E-01  1.50000000E+00
  1.50000000E+00  8.00000000E-01  8.00000000E-01  1.50000000E+00  1.50000000E+00
  8.00000000E-01  8.00000000E-01  1.50000000E+00  1.50000000E+00  8.00000000E-01
  8.00000000E-01  1.50000000E+00  1.50000000E+00  8.00000000E-01  8.00000000E-01
  1.50000000E+00  1.50000000E+00  8.00000000E-01  8.00000000E-01  1.50000000E+00
  1.50000000E+00  8.00000000E-01  8.00000000E-01  1.50000000E+00  1.50000000E+00
  8.00000000E-01  8.00000000E-01  1.50000000E+00  1.50000000E+00  8.00000000E-01
  8.00000000E-01  1.50000000E+00  1.50000000E+00  8.00000000E-01  8.00000000E-01
  1.50000000E+00  1.50000000E+00  8.00000000E-01  8.00000000E-01  1.50000000E+00
  1.50000000E+00  8.00000000E-01  8.00000000E-01  1.50000000E+00  1.50000000E+00
  8.00000000E-01  8.00000000E-01  1.50000000E+00  1.50000000E+00  8.00000000E-01
  8.00000000E-01  1.50000000E+00  1.50000000E+00  8.00000000E-01  8.00000000E-01
  1.50000000E+00  1.50000000E+00  8.00000000E-01  8.00000000E-01  1.50000000E+00
  1.50000000E+00  8.00000000E-01  8.00000000E-01  1.50000000E+00  1.50000000E+00
  8.00000000E-01  8.00000000E-01  1.50000000E+00  1.50000000E+00  8.00000000E-01
  8.00000000E-01  1.50000000E+00  1.50000000E+00  8.00000000E-01  8.00000000E-01
  1.50000000E+00  1.50000000E+00  8.00000000E-01  8.00000000E-01  1.50000000E+00
  1.50000000E+00  8.00000000E-01  8.00000000E-01  1.50000000E+00  1.50000000E+00
  8.00000000E-01  8.00000000E-01  1.50000000E+00  1.50000000E+00  8.00000000E-01
  8.00000000E-01  1.50000000E+00  1.50000000E+00  8.00000000E-01  8.00000000E-01
  1.50000000E+00  1.50000000E+00  8.00000000E-01  8.00000000E-01  1.50000000E+00
  1.50000000E+00  8.00000000E-01  8.00000000E-01  1.50000000E+00  1.50000000E+00
  8.00000000E-01  8.00000000E-01  1.50000000E+00  1.50000000E+00  8.00000000E-01
  8.00000000E-01  1.50000000E+00  1.50000000E+00  8.00000000E-01  8.00000000E-01
  1.50000000E+00  1.50000000E+00  8.00000000E-01  8.00000000E-01  1.50000000E+00
  1.50000000E+00  8.00000000E-01  8.00000000E-01  1.50000000E+00  1.50000000E+00
  8.00000000E-01  8.00000000E-01  1.50000000E+00  1.50000000E+00  8.00000000E-01
  8.00000000E-01  1.50000000E+00  1.50000000E+00  8.00000000E-01  8.00000000E-01
  1.50000000E+00  1.50000000E+00  8.00000000E-01  8.00000000E-01  1.50000000E+00
  1.50000000E+00  8.00000000E-01  8.00000000E-01  1.50000000E+00  1.50000000E+00
  8.00000000E-01  8.00000000E-01  1.50000000E+00  1.50000000E+00  8.00000000E-01
  8.00000000E-01  1.50000000E+00  1.50000000E+00  8.00000000E-01  8.00000000E-01
  1.50000000E+00  1.50000000E+00  8.00000000E-01  8.00000000E-01  1.50000000E+00
  1.50000000E+00  8.00000000E-01  8.00000000E-01  1.50000000E+00  1.50000000E+00
  8.00000000E-01  8.00000000E-01  1.50000000E+00  1.50000000E+00  8.00000000E-01
  8.00000000E-01  1.50000000E+00  1.50000000E+00  8.00000000E-01  8.00000000E-01
  1.50000000E+00  1.50000000E+00  8.00000000E-01  8.00000000E-01  1.50000000E+00
  1.50000000E+00  8.00000000E-01  8.00000000E-01  1.50000000E+00  1.50000000E+00
  8.00000000E-01  8.00000000E-01  1.50000000E+00  1.50000000E+00  8.00000000E-01
  8.00000000E-01  1.50000000E+00  1.50000000E+00  8.00000000E-01  8.00000000E-01
  1.50000000E+00  1.50000000E+00  8.00000000E-01  8.00000000E-01  1.50000000E+00
  1.50000000E+00  8.00000000E-01  8.00000000E-01  1.50000000E+00  1.50000000E+00
  8.00000000E-01  8.00000000E-01  1.50000000E+00  1.50000000E+00  8.00000000E-01
  8.00000000E-01  1.50000000E+00  1.50000000E+00  8.00000000E-01  8.00000000E-01
  1.50000000E+00  1.50000000E+00  8.00000000E-01  8.00000000E-01  1.50000000E+00
  1.50000000E+00  8.00000000E-01  8.00000000E-01  1.50000000E+00  1.50000000E+00
  8.00000000E-01  8.00000000E-01  1.50000000E+00  1.50000000E+00  8.00000000E-01
  8.00000000E-01  1.50000000E+00  1.50000000E+00  8.00000000E-01  8.00000000E-01
  1.50000000E+00  1.50000000E+00  8.00000000E-01  8.00000000E-01  1.50000000E+00
  1.50000000E+00  8.00000000E-01  8.00000000E-01  1.50000000E+00  1.50000000E+00
  8.00000000E-01  8.00000000E-01  1.50000000E+00  1.50000000E+00  8.00000000E-01
  8.00000000E-01  1.50000000E+00  1.50000000E+00  8.00000000E-01  8.00000000E-01
  1.50000000E+00  1.50000000E+00  8.00000000E-01  8.00000000E-01  1.50000000E+00
  1.50000000E+00  8.00000000E-01  8.00000000E-01  1.50000000E+00  1.50000000E+00
  8.00000000E-01  8.00000000E-01  1.50000000E+00  1.50000000E+00  8.00000000E-01
  8.00000000E-01  1.50000000E+00  1.50000000E+00  8.00000000E-01  8.00000000E-01
  1.50000000E+00  1.50000000E+00  8.00000000E-01  8.00000000E-01  1.50000000E+00
  1.50000000E+00  8.00000000E-01  8.00000000E-01  1.50000000E+00  1.50000000E+00
  8.00000000E-01  8.00000000E-01  1.50000000E+00  1.50000000E+00  8.00000000E-01
  8.00000000E-01  1.50000000E+00  1.50000000E+00  8.00000000E-01  8.00000000E-01
  1.50000000E+00  1.50000000E+00  8.00000000E-01  8.00000000E-01  1.50000000E+00
  1.50000000E+00  8.00000000E-01  8.00000000E-01  1.50000000E+00  1.50000000E+00
  8.00000000E-01  8.00000000E-01  1.50000000E+00  1.50000000E+00  8.00000000E-01
  8.00000000E-01  1.50000000E+00  1.50000000E+00  8.00000000E-01  8.00000000E-01
  1.50000000E+00  1.50000000E+00  8.00000000E-01  8.00000000E-01  1.50000000E+00
  1.50000000E+00  8.00000000E-01  8.00000000E-01  1.50000000E+00  1.50000000E+00
  8.00000000E-01  8.00000000E-01  1.50000000E+00  1.50000000E+00  8.00000000E-01
  8.00000000E-01  1.50000000E+00  1.50000000E+00  8.00000000E-01  8.00000000E-01
  1.50000000E+00  1.50000000E+00  8.00000000E-01  8.00000000E-01  1.50000000E+00
  1.50000000E+00  8.00000000E-01  8.00000000E-01  1.50000000E+00  1.50000000E+00
  8.00000000E-01  8.00000000E-01  1.50000000E+00  1.50000000E+00  8.00000000E-01
  8.00000000E-01  1.50000000E+00  1.50000000E+00  8.00000000E-01  8.00000000E-01
  1.50000000E+00  1.50000000E+00  8.00000000E-01  8.00000000E-01  1.50000000E+00
  1.50000000E+00  8.00000000E-01  8.00000000E-01  1.50000000E+00  1.50000000E+00
  8.00000000E-01  8.00000000E-01  1.50000000E+00  1.50000000E+00  8.00000000E-01
  8.00000000E-01  1.50000000E+00  1.50000000E+00  8.00000000E-01  8.00000000E-01
  1.50000000E+00  1.50000000E+00  8.00000000E-01  8.00000000E-01  1.50000000E+00
  1.50000000E+00  8.00000000E-01  8.00000000E-01  1.50000000E+00  1.50000000E+00
  8.00000000E-01  8.00000000E-01  1.50000000E+00  1.50000000E+00  8.00000000E-01
  8.00000000E-01  1.50000000E+00  1.50000000E+00  8.00000000E-01  8.00000000E-01
  1.50000000E+00  1.50000000E+00  8.00000000E-01  8.00000000E-01  1.50000000E+00
  1.50000000E+00  8.00000000E-01  8.00000000E-01  1.50000000E+00  1.50000000E+00
  8.00000000E-01  8.00000000E-01  1.50000000E+00  1.50000000E+00  8.00000000E-01
  8.00000000E-01  1.50000000E+00  1.50000000E+00  8.00000000E-01  8.00000000E-01
  1.50000000E+00  1.50000000E+00  8.00000000E-01  8.00000000E-01  1.50000000E+00
  1.50000000E+00  8.00000000E-01  8.00000000E-01  1.50000000E+00  1.50000000E+00
  8.00000000E-01  8.00000000E-01  1.50000000E+00  1.50000000E+00  8.00000000E-01
  8.00000000E-01  1.50000000E+00  1.50000000E+00  8.00000000E-01  8.00000000E-01
  1.50000000E+00  1.50000000E+00  8.00000000E-01  8.00000000E-01  1.50000000E+00
  1.50000000E+00  8.00000000E-01  8.00000000E-01  1.50000000E+00  1.50000000E+00
  8.00000000E-01  8.00000000E-01  1.50000000E+00  1.50000000E+00  8.00000000E-01
  8.00000000E-01  1.50000000E+00  1.50000000E+00  8.00000000E-01  8.00000000E-01
  1.50000000E+00  1.50000000E+00  8.00000000E-01  8.00000000E-01  1.50000000E+00
  1.50000000E+00  8.00000000E-01  8.00000000E-01  1.50000000E+00  1.50000000E+00
  8.00000000E-01  8.00000000E-01  1.50000000E+00  1.50000000E+00  8.00000000E-01
  8.00000000E-01  1.50000000E+00  1.50000000E+00  8.00000000E-01  8.00000000E-01
  1.50000000E+00  1.50000000E+00  8.00000000E-01  8.00000000E-01  1.50000000E+00
  1.50000000E+00  8.00000000E-01  8.00000000E-01  1.50000000E+00  1.50000000E+00
  8.00000000E-01  8.00000000E-01  1.50000000E+00  1.50000000E+00  8.00000000E-01
  8.00000000E-01  1.50000000E+00  1.50000000E+00  8.00000000E-01  8.00000000E-01
  1.50000000E+00  1.50000000E+00  8.00000000E-01  8.00000000E-01  1.50000000E+00
  1.50000000E+00  8.00000000E-01  8.00000000E-01  1.50000000E+00  1.50000000E+00
  8.00000000E-01  8.00000000E-01  1.50000000E+00  1.50000000E+00  8.00000000E-01
  8.00000000E-01  1.50000000E+00  1.50000000E+00  8.00000000E-01  8.00000000E-01
  1.50000000E+00  1.50000000E+00  8.00000000E-01  8.00000000E-01  1.50000000E+00
  1.50000000E+00  8.00000000E-01  8.00000000E-01  1.50000000E+00  1.50000000E+00
  8.00000000E-01  8.00000000E-01  1.50000000E+00  1.50000000E+00  8.00000000E-01
  8.00000000E-01  1.50000000E+00  1.50000000E+00  8.00000000E-01  8.00000000E-01
  1.50000000E+00  1.50000000E+00  8.00000000E-01  8.00000000E-01  1.50000000E+00
  1.50000000E+00  8.00000000E-01  8.00000000E-01  1.50000000E+00  1.50000000E+00
  8.00000000E-01  8.00000000E-01  1.50000000E+00  1.50000000E+00  8.00000000E-01
  8.00000000E-01  1.50000000E+00  1.50000000E+00  8.00000000E-01  8.00000000E-01
  1.50000000E+00  1.50000000E+00  8.00000000E-01  8.00000000E-01  1.50000000E+00
  1.50000000E+00  8.00000000E-01  8.00000000E-01  1.50000000E+00  1.50000000E+00
  8.00000000E-01  8.00000000E-01  1.50000000E+00  1.50000000E+00  8.00000000E-01
  8.00000000E-01  1.50000000E+00  1.50000000E+00  8.00000000E-01  8.00000000E-01
  1.50000000E+00  1.50000000E+00  8.00000000E-01  8.00000000E-01  1.50000000E+00
  1.50000000E+00  8.00000000E-01  8.00000000E-01  1.50000000E+00  1.50000000E+00
  8.00000000E-01  8.00000000E-01  1.50000000E+00  1.50000000E+00  8.00000000E-01
  8.00000000E-01  1.50000000E+00  1.50000000E+00  8.00000000E-01  8.00000000E-01
  1.50000000E+00  1.50000000E+00  8.00000000E-01  8.00000000E-01  1.50000000E+00
  1.50000000E+00  8.00000000E-01  8.00000000E-01  1.50000000E+00  1.50000000E+00
  8.00000000E-01  8.00000000E-01  1.50000000E+00  1.50000000E+00  8.00000000E-01
  8.00000000E-01  1.50000000E+00  1.50000000E+00  8.00000000E-01  8.00000000E-01
  1.50000000E+00  1.50000000E+00  8.00000000E-01  8.00000000E-01  1.50000000E+00
  1.50000000E+00  8.00000000E-01  8.00000000E-01  1.50000000E+00  1.50000000E+00
  8.00000000E-01  8.00000000E-01  1.50000000E+00  1.50000000E+00  8.00000000E-01
  8.00000000E-01  1.50000000E+00  1.50000000E+00  8.00000000E-01  8.00000000E-01
  1.50000000E+00  1.50000000E+00  8.00000000E-01  8.00000000E-01  1.50000000E+00
  1.50000000E+00  8.00000000E-01  8.00000000E-01  1.50000000E+00  1.50000000E+00
  8.00000000E-01  8.00000000E-01  1.50000000E+00  1.50000000E+00  8.00000000E-01
  8.00000000E-01  1.50000000E+00  1.50000000E+00  8.00000000E-01  8.00000000E-01
  1.50000000E+00  1.50000000E+00  8.00000000E-01  8.00000000E-01  1.50000000E+00
  1.50000000E+00  8.00000000E-01  8.00000000E-01  1.50000000E+00  1.50000000E+00
  8.00000000E-01  8.00000000E-01  1.50000000E+00  1.50000000E+00  8.00000000E-01
  8.00000000E-01  1.50000000E+00  1.50000000E+00  8.00000000E-01  8.00000000E-01
  1.50000000E+00  1.50000000E+00  8.00000000E-01  8.00000000E-01  1.50000000E+00
  1.50000000E+00  8.00000000E-01  8.00000000E-01  1.50000000E+00  1.50000000E+00
  8.00000000E-01  8.00000000E-01  1.50000000E+00  1.50000000E+00  8.00000000E-01
  8.00000000E-01  1.50000000E+00  1.50000000E+00  8.00000000E-01  8.00000000E-01
  1.50000000E+00  1.50000000E+00  8.00000000E-01  8.00000000E-01  1.50000000E+00
  1.50000000E+00  8.00000000E-01  8.00000000E-01  1.50000000E+00  1.50000000E+00
  8.00000000E-01  8.00000000E-01  1.50000000E+00  1.50000000E+00  8.00000000E-01
  8.00000000E-01  1.50000000E+00  1.50000000E+00  8.00000000E-01  8.00000000E-01
  1.50000000E+00  1.50000000E+00  8.00000000E-01  8.00000000E-01  1.50000000E+00
  1.50000000E+00  8.00000000E-01  8.00000000E-01  1.50000000E+00  1.50000000E+00
  8.00000000E-01  8.00000000E-01  1.50000000E+00  1.50000000E+00  8.00000000E-01
  8.00000000E-01  1.50000000E+00  1.50000000E+00  8.00000000E-01  8.00000000E-01
  1.50000000E+00  1.50000000E+00  8.00000000E-01  8.00000000E-01  1.50000000E+00
  1.50000000E+00  8.00000000E-01  8.00000000E-01  1.50000000E+00  1.50000000E+00
  8.00000000E-01  8.00000000E-01  1.50000000E+00  1.50000000E+00  8.00000000E-01
  8.00000000E-01  1.50000000E+00  1.50000000E+00  8.00000000E-01  8.00000000E-01
  1.50000000E+00  1.50000000E+00  8.00000000E-01  8.00000000E-01  1.50000000E+00
  1.50000000E+00  8.00000000E-01  8.00000000E-01  1.50000000E+00  1.50000000E+00
  8.00000000E-01  8.00000000E-01  1.50000000E+00  1.50000000E+00  8.00000000E-01
  8.00000000E-01  1.50000000E+00  1.50000000E+00  8.00000000E-01  8.00000000E-01
  1.50000000E+00  1.50000000E+00  8.00000000E-01  8.00000000E-01  1.50000000E+00
  1.50000000E+00  8.00000000E-01  8.00000000E-01  1.50000000E+00  1.50000000E+00
  8.00000000E-01  8.00000000E-01  1.50000000E+00  1.50000000E+00  8.00000000E-01
  8.00000000E-01  1.50000000E+00  1.50000000E+00  8.00000000E-01  8.00000000E-01
  1.50000000E+00  1.50000000E+00  8.00000000E-01  8.00000000E-01  1.50000000E+00
  1.50000000E+00  8.00000000E-01  8.00000000E-01  1.50000000E+00  1.50000000E+00
  8.00000000E-01  8.00000000E-01  1.50000000E+00  1.50000000E+00  8.00000000E-01
  8.00000000E-01  1.50000000E+00  1.50000000E+00  8.00000000E-01  8.00000000E-01
  1.50000000E+00  1.50000000E+00  8.00000000E-01  8.00000000E-01  1.50000000E+00
  1.50000000E+00  8.00000000E-01  8.00000000E-01  1.50000000E+00  1.50000000E+00
  8.00000000E-01  8.00000000E-01  1.50000000E+00  1.50000000E+00  8.00000000E-01
  8.00000000E-01  1.50000000E+00  1.50000000E+00  8.00000000E-01  8.00000000E-01
  1.50000000E+00  1.50000000E+00  8.00000000E-01  8.00000000E-01  1.50000000E+00
  1.50000000E+00  8.00000000E-01  8.00000000E-01  1.50000000E+00  1.50000000E+00
  8.00000000E-01  8.00000000E-01  1.50000000E+00  1.50000000E+00  8.00000000E-01
  8.00000000E-01  1.50000000E+00  1.50000000E+00  8.00000000E-01  8.00000000E-01
  1.50000000E+00  1.50000000E+00  8.00000000E-01  8.00000000E-01  1.50000000E+00
  1.50000000E+00  8.00000000E-01  8.00000000E-01  1.50000000E+00  1.50000000E+00
  8.00000000E-01  8.00000000E-01  1.50000000E+00  1.50000000E+00  8.00000000E-01
  8.00000000E-01  1.50000000E+00  1.50000000E+00  8.00000000E-01  8.00000000E-01
  1.50000000E+00  1.50000000E+00  8.00000000E-01  8.00000000E-01  1.50000000E+00
  1.50000000E+00  8.00000000E-01  8.00000000E-01  1.50000000E+00  1.50000000E+00
  8.00000000E-01  8.00000000E-01  1.50000000E+00  1.50000000E+00  8.00000000E-01
  8.00000000E-01  1.50000000E+00  1.50000000E+00  8.00000000E-01  8.00000000E-01
  1.50000000E+00  1.50000000E+00  8.00000000E-01  8.00000000E-01  1.50000000E+00
  1.50000000E+00  8.00000000E-01  8.00000000E-01  1.50000000E+00  1.50000000E+00
  8.00000000E-01  8.00000000E-01  1.50000000E+00  1.50000000E+00  8.00000000E-01
  8.00000000E-01  1.50000000E+00  1.50000000E+00  8.00000000E-01  8.00000000E-01
  1.50000000E+00  1.50000000E+00  8.00000000E-01  8.00000000E-01  1.50000000E+00
  1.50000000E+00  8.00000000E-01  8.00000000E-01  1.50000000E+00  1.50000000E+00
  8.00000000E-01  8.00000000E-01  1.50000000E+00  1.50000000E+00  8.00000000E-01
  8.00000000E-01  1.50000000E+00  1.50000000E+00  8.00000000E-01  8.00000000E-01
  1.50000000E+00  1.50000000E+00  8.00000000E-01  8.00000000E-01  1.50000000E+00
  1.50000000E+00  8.00000000E-01  8.00000000E-01  1.50000000E+00  1.50000000E+00
  8.00000000E-01  8.00000000E-01  1.50000000E+00  1.50000000E+00  8.00000000E-01
  8.00000000E-01  1.50000000E+00  1.50000000E+00  8.00000000E-01  8.00000000E-01
  1.50000000E+00  1.50000000E+00  8.00000000E-01  8.00000000E-01  1.50000000E+00
  1.50000000E+00  8.00000000E-01  8.00000000E-01  1.50000000E+00  1.50000000E+00
  8.00000000E-01  8.00000000E-01  1.50000000E+00  1.50000000E+00  8.00000000E-01
  8.00000000E-01  1.50000000E+00  1.50000000E+00  8.00000000E-01  8.00000000E-01
  1.50000000E+00  1.50000000E+00  8.00000000E-01  8.00000000E-01  1.50000000E+00
  1.50000000E+00  8.00000000E-01  8.00000000E-01  1.50000000E+00  1.50000000E+00
  8.00000000E-01  8.00000000E-01  1.50000000E+00  1.50000000E+00  8.00000000E-01
  8.00000000E-01  1.50000000E+00  1.50000000E+00  8.00000000E-01  8.00000000E-01
  1.50000000E+00  1.50000000E+00  8.00000000E-01  8.00000000E-01  1.50000000E+00
  1.50000000E+00  8.00000000E-01  8.00000000E-01  1.50000000E+00  1.50000000E+00
  8.00000000E-01  8.00000000E-01  1.50000000E+00  1.50000000E+00  8.00000000E-01
  8.00000000E-01  1.50000000E+00  1.50000000E+00  8.00000000E-01  8.00000000E-01
  1.50000000E+00  1.50000000E+00  8.00000000E-01  8.00000000E-01  1.50000000E+00
  1.50000000E+00  8.00000000E-01  8.00000000E-01  1.50000000E+00  1.50000000E+00
  8.00000000E-01  8.00000000E-01  1.50000000E+00  1.50000000E+00  8.00000000E-01
  8.00000000E-01  1.50000000E+00  1.50000000E+00  8.00000000E-01  8.00000000E-01
  1.50000000E+00  1.50000000E+00  8.00000000E-01  8.00000000E-01  1.50000000E+00
  1.50000000E+00  8.00000000E-01  8.00000000E-01  1.50000000E+00  1.50000000E+00
  8.00000000E-01  8.00000000E-01  1.50000000E+00  1.50000000E+00  8.00000000E-01
  8.00000000E-01  1.50000000E+00  1.50000000E+00  8.00000000E-01  8.00000000E-01
  1.50000000E+00  1.50000000E+00  8.00000000E-01  8.00000000E-01  1.50000000E+00
  1.50000000E+00  8.00000000E-01  8.00000000E-01  1.50000000E+00  1.50000000E+00
  8.00000000E-01  8.00000000E-01  1.50000000E+00  1.50000000E+00  8.00000000E-01
  8.00000000E-01  1.50000000E+00  1.50000000E+00  8.00000000E-01  8.00000000E-01
  1.50000000E+00  1.50000000E+00  8.00000000E-01  8.00000000E-01  1.50000000E+00
  1.50000000E+00  8.00000000E-01  8.00000000E-01  1.50000000E+00  1.50000000E+00
  8.00000000E-01  8.00000000E-01  1.50000000E+00  1.50000000E+00  8.00000000E-01
  8.00000000E-01  1.50000000E+00  1.50000000E+00  8.00000000E-01  8.00000000E-01
  1.50000000E+00  1.50000000E+00  8.00000000E-01  8.00000000E-01  1.50000000E+00
  1.50000000E+00  8.00000000E-01  8.00000000E-01  1.50000000E+00  1.50000000E+00
  8.00000000E-01  8.00000000E-01  1.50000000E+00  1.50000000E+00  8.00000000E-01
  8.00000000E-01  1.50000000E+00  1.50000000E+00  8.00000000E-01  8.00000000E-01
  1.50000000E+00  1.50000000E+00  8.00000000E-01  8.00000000E-01  1.50000000E+00
  1.50000000E+00  8.00000000E-01  8.00000000E-01  1.50000000E+00  1.50000000E+00
  8.00000000E-01  8.00000000E-01  1.50000000E+00  1.50000000E+00  8.00000000E-01
  8.00000000E-01  1.50000000E+00  1.50000000E+00  8.00000000E-01  8.00000000E-01
  1.50000000E+00  1.50000000E+00  8.00000000E-01  8.00000000E-01  1.50000000E+00
  1.50000000E+00  8.00000000E-01  8.00000000E-01  1.50000000E+00  1.50000000E+00
  8.00000000E-01  8.00000000E-01  1.50000000E+00  1.50000000E+00  8.00000000E-01
  8.00000000E-01  1.50000000E+00  1.50000000E+00  8.00000000E-01  8.00000000E-01
  1.50000000E+00  1.50000000E+00  8.00000000E-01  8.00000000E-01  1.50000000E+00
  1.50000000E+00  8.00000000E-01  8.00000000E-01  1.50000000E+00  1.50000000E+00
  8.00000000E-01  8.00000000E-01  1.50000000E+00  1.50000000E+00  8.00000000E-01
  8.00000000E-01  1.50000000E+00  1.50000000E+00  8.00000000E-01  8.00000000E-01
  1.50000000E+00  1.50000000E+00  8.00000000E-01  8.00000000E-01  1.50000000E+00
  1.50000000E+00  8.00000000E-01  8.00000000E-01  1.50000000E+00  1.50000000E+00
  8.00000000E-01  8.00000000E-01  1.50000000E+00  1.50000000E+00  8.00000000E-01
  8.00000000E-01  1.50000000E+00  1.50000000E+00  8.00000000E-01  8.00000000E-01
  1.50000000E+00  1.50000000E+00  8.00000000E-01  8.00000000E-01  1.50000000E+00
  1.50000000E+00  8.00000000E-01  8.00000000E-01  1.50000000E+00  1.50000000E+00
  8.00000000E-01  8.00000000E-01  1.50000000E+00  1.50000000E+00  8.00000000E-01
  8.00000000E-01  1.50000000E+00  1.50000000E+00  8.00000000E-01  8.00000000E-01
  1.50000000E+00  1.50000000E+00  8.00000000E-01  8.00000000E-01  1.50000000E+00
  1.50000000E+00  8.00000000E-01  8.00000000E-01  1.50000000E+00  1.50000000E+00
  8.00000000E-01  8.00000000E-01  1.50000000E+00  1.50000000E+00  8.00000000E-01
  8.00000000E-01  1.50000000E+00  1.50000000E+00  8.00000000E-01  8.00000000E-01
  1.50000000E+00  1.50000000E+00  8.00000000E-01  8.00000000E-01  1.50000000E+00
  1.50000000E+00  8.00000000E-01  8.00000000E-01  1.50000000E+00  1.50000000E+00
  8.00000000E-01  8.00000000E-01  1.50000000E+00  1.50000000E+00  8.00000000E-01
  8.00000000E-01  1.50000000E+00  1.50000000E+00  8.00000000E-01  8.00000000E-01
  1.50000000E+00  1.50000000E+00  8.00000000E-01  8.00000000E-01  1.50000000E+00
  1.50000000E+00  8.00000000E-01  8.00000000E-01  1.50000000E+00  1.50000000E+00
  8.00000000E-01  8.00000000E-01  1.50000000E+00  1.50000000E+00  8.00000000E-01
  8.00000000E-01  1.50000000E+00  1.50000000E+00  8.00000000E-01  8.00000000E-01
  1.50000000E+00  1.50000000E+00  8.00000000E-01  8.00000000E-01  1.50000000E+00
  1.50000000E+00  8.00000000E-01  8.00000000E-01  1.50000000E+00  1.50000000E+00
  8.00000000E-01  8.00000000E-01  1.50000000E+00  1.50000000E+00  8.00000000E-01
  8.00000000E-01  1.50000000E+00  1.50000000E+00  8.00000000E-01  8.00000000E-01
  1.50000000E+00  1.50000000E+00  8.00000000E-01  8.00000000E-01  1.50000000E+00
  1.50000000E+00  8.00000000E-01  8.00000000E-01  1.50000000E+00  1.50000000E+00
  8.00000000E-01  8.00000000E-01  1.50000000E+00  1.50000000E+00  8.00000000E-01
  8.00000000E-01  1.50000000E+00  1.50000000E+00  8.00000000E-01  8.00000000E-01
  1.50000000E+00  1.50000000E+00  8.00000000E-01  8.00000000E-01  1.50000000E+00
  1.50000000E+00  8.00000000E-01  8.00000000E-01  1.50000000E+00  1.50000000E+00
  8.00000000E-01  8.00000000E-01  1.50000000E+00  1.50000000E+00  8.00000000E-01
  8.00000000E-01  1.50000000E+00  1.50000000E+00  8.00000000E-01  8.00000000E-01
  1.50000000E+00  1.50000000E+00  8.00000000E-01  8.00000000E-01  1.50000000E+00
  1.50000000E+00  8.00000000E-01  8.00000000E-01  1.50000000E+00  1.50000000E+00
  8.00000000E-01  8.00000000E-01  1.50000000E+00  1.50000000E+00  8.00000000E-01
  8.00000000E-01  1.50000000E+00  1.50000000E+00  8.00000000E-01  8.00000000E-01
  1.50000000E+00  1.50000000E+00  8.00000000E-01  8.00000000E-01  1.50000000E+00
  1.50000000E+00  8.00000000E-01  8.00000000E-01  1.50000000E+00  1.50000000E+00
  8.00000000E-01  8.00000000E-01  1.50000000E+00  1.50000000E+00  8.00000000E-01
  8.00000000E-01  1.50000000E+00  1.50000000E+00  8.00000000E-01  8.00000000E-01
  1.50000000E+00  1.50000000E+00  8.00000000E-01  8.00000000E-01  1.50000000E+00
  1.50000000E+00  8.00000000E-01  8.00000000E-01  1.50000000E+00  1.50000000E+00
  8.00000000E-01  8.00000000E-01  1.50000000E+00  1.50000000E+00  8.00000000E-01
  8.00000000E-01  1.50000000E+00  1.50000000E+00  8.00000000E-01  8.00000000E-01
  1.50000000E+00  1.50000000E+00  8.00000000E-01  8.00000000E-01  1.50000000E+00
  1.50000000E+00  8.00000000E-01  8.00000000E-01  1.50000000E+00  1.50000000E+00
  8.00000000E-01  8.00000000E-01  1.50000000E+00  1.50000000E+00  8.00000000E-01
  8.00000000E-01  1.50000000E+00  1.50000000E+00  8.00000000E-01  8.00000000E-01
  1.50000000E+00  1.50000000E+00  8.00000000E-01  8.00000000E-01  1.50000000E+00
  1.50000000E+00  8.00000000E-01  8.00000000E-01  1.50000000E+00  1.50000000E+00
  8.00000000E-01  8.00000000E-01  1.50000000E+00  1.50000000E+00  8.00000000E-01
  8.00000000E-01  1.50000000E+00  1.50000000E+00  8.00000000E-01  8.00000000E-01
  1.50000000E+00  1.50000000E+00  8.00000000E-01  8.00000000E-01  1.50000000E+00
  1.50000000E+00  8.00000000E-01  8.00000000E-01  1.50000000E+00  1.50000000E+00
  8.00000000E-01  8.00000000E-01  1.50000000E+00  1.50000000E+00  8.00000000E-01
  8.00000000E-01  1.50000000E+00  1.50000000E+00  8.00000000E-01  8.00000000E-01
  1.50000000E+00  1.50000000E+00  8.00000000E-01  8.00000000E-01  1.50000000E+00
  1.50000000E+00  8.00000000E-01  8.00000000E-01  1.50000000E+00  1.50000000E+00
  8.00000000E-01  8.00000000E-01  1.50000000E+00  1.50000000E+00  8.00000000E-01
  8.00000000E-01  1.50000000E+00  1.50000000E+00  8.00000000E-01  8.00000000E-01
  1.50000000E+00  1.50000000E+00  8.00000000E-01  8.00000000E-01  1.50000000E+00
  1.50000000E+00  8.00000000E-01  8.00000000E-01  1.50000000E+00  1.50000000E+00
  8.00000000E-01  8.00000000E-01  1.50000000E+00  1.50000000E+00  8.00000000E-01
  8.00000000E-01  1.50000000E+00  1.50000000E+00  8.00000000E-01  8.00000000E-01
  1.50000000E+00  1.50000000E+00  8.00000000E-01  8.00000000E-01  1.50000000E+00
  1.50000000E+00  8.00000000E-01  8.00000000E-01  1.50000000E+00  1.50000000E+00
  8.00000000E-01  8.00000000E-01  1.50000000E+00  1.50000000E+00  8.00000000E-01
  8.00000000E-01  1.50000000E+00  1.50000000E+00  8.00000000E-01  8.00000000E-01
  1.50000000E+00  1.50000000E+00  8.00000000E-01  8.00000000E-01  1.50000000E+00
  1.50000000E+00  8.00000000E-01  8.00000000E-01  1.50000000E+00  1.50000000E+00
  8.00000000E-01  8.00000000E-01  1.50000000E+00  1.50000000E+00  8.00000000E-01
  8.00000000E-01  1.50000000E+00  1.50000000E+00  8.00000000E-01  8.00000000E-01
  1.50000000E+00  1.50000000E+00  8.00000000E-01  8.00000000E-01  1.50000000E+00
  1.50000000E+00  8.00000000E-01  8.00000000E-01  1.50000000E+00  1.50000000E+00
  8.00000000E-01  8.00000000E-01  1.50000000E+00  1.50000000E+00  8.00000000E-01
  8.00000000E-01  1.50000000E+00  1.50000000E+00  8.00000000E-01  8.00000000E-01
  1.50000000E+00  1.50000000E+00  8.00000000E-01  8.00000000E-01  1.50000000E+00
  1.50000000E+00  8.00000000E-01  8.00000000E-01  1.50000000E+00  1.50000000E+00
  8.00000000E-01  8.00000000E-01  1.50000000E+00  1.50000000E+00  8.00000000E-01
  8.00000000E-01  1.50000000E+00  1.50000000E+00  8.00000000E-01  8.00000000E-01
  1.50000000E+00  1.50000000E+00  8.00000000E-01  8.00000000E-01  1.50000000E+00
  1.50000000E+00  8.00000000E-01  8.00000000E-01  1.50000000E+00  1.50000000E+00
  8.00000000E-01  8.00000000E-01  1.50000000E+00  1.50000000E+00  8.00000000E-01
  8.00000000E-01  1.50000000E+00  1.50000000E+00  8.00000000E-01  8.00000000E-01
  1.50000000E+00  1.50000000E+00  8.00000000E-01  8.00000000E-01  1.50000000E+00
  1.50000000E+00  8.00000000E-01  8.00000000E-01  1.50000000E+00  1.50000000E+00
  8.00000000E-01  8.00000000E-01  1.50000000E+00  1.50000000E+00  8.00000000E-01
  8.00000000E-01  1.50000000E+00  1.50000000E+00  8.00000000E-01  8.00000000E-01
  1.50000000E+00  1.50000000E+00  8.00000000E-01  8.00000000E-01  1.50000000E+00
  1.50000000E+00  8.00000000E-01  8.00000000E-01  1.50000000E+00  1.50000000E+00
  8.00000000E-01  8.00000000E-01  1.50000000E+00  1.50000000E+00  8.00000000E-01
  8.00000000E-01  1.50000000E+00  1.50000000E+00  8.00000000E-01  8.00000000E-01
  1.50000000E+00  1.50000000E+00  8.00000000E-01  8.00000000E-01  1.50000000E+00
  1.50000000E+00  8.00000000E-01  8.00000000E-01  1.50000000E+00  1.50000000E+00
  8.00000000E-01  8.00000000E-01  1.50000000E+00  1.50000000E+00  8.00000000E-01
  8.00000000E-01  1.50000000E+00  1.50000000E+00  8.00000000E-01  8.00000000E-01
  1.50000000E+00  1.50000000E+00  8.00000000E-01  8.00000000E-01  1.50000000E+00
  1.50000000E+00  8.00000000E-01  8.00000000E-01  1.50000000E+00  1.50000000E+00
  8.00000000E-01  8.00000000E-01  1.50000000E+00  1.50000000E+00  8.00000000E-01
  8.00000000E-01  1.50000000E+00  1.50000000E+00  8.00000000E-01  8.00000000E-01
  1.50000000E+00  1.50000000E+00  8.00000000E-01  8.00000000E-01  1.50000000E+00
  1.50000000E+00  8.00000000E-01  8.00000000E-01  1.50000000E+00  1.50000000E+00
  8.00000000E-01  8.00000000E-01  1.50000000E+00  1.50000000E+00  8.00000000E-01
  8.00000000E-01  1.50000000E+00  1.50000000E+00  8.00000000E-01  8.00000000E-01
  1.50000000E+00  1.50000000E+00  8.00000000E-01  8.00000000E-01  1.50000000E+00
  1.50000000E+00  8.00000000E-01  8.00000000E-01  1.50000000E+00  1.50000000E+00
  8.00000000E-01  8.00000000E-01  1.50000000E+00  1.50000000E+00  8.00000000E-01
  8.00000000E-01  1.50000000E+00  1.50000000E+00  8.00000000E-01  8.00000000E-01
  1.50000000E+00  1.50000000E+00  8.00000000E-01  8.00000000E-01  1.50000000E+00
  1.50000000E+00  8.00000000E-01  8.00000000E-01  1.50000000E+00  1.50000000E+00
  8.00000000E-01  8.00000000E-01  1.50000000E+00  1.50000000E+00  8.00000000E-01
  8.00000000E-01  1.50000000E+00  1.50000000E+00  8.00000000E-01  8.00000000E-01
  1.50000000E+00  1.50000000E+00  8.00000000E-01  8.00000000E-01  1.50000000E+00
  1.50000000E+00  8.00000000E-01  8.00000000E-01  1.50000000E+00  1.50000000E+00
  8.00000000E-01  8.00000000E-01  1.50000000E+00  1.50000000E+00  8.00000000E-01
  8.00000000E-01  1.50000000E+00  1.50000000E+00  8.00000000E-01  8.00000000E-01
  1.50000000E+00  1.50000000E+00  8.00000000E-01  8.00000000E-01  1.50000000E+00
  1.50000000E+00  8.00000000E-01  8.00000000E-01  1.50000000E+00  1.50000000E+00
  8.00000000E-01  8.00000000E-01  1.50000000E+00  1.50000000E+00  8.00000000E-01
  8.00000000E-01  1.50000000E+00  1.50000000E+00  8.00000000E-01  8.00000000E-01
  1.50000000E+00  1.50000000E+00  8.00000000E-01  8.00000000E-01  1.50000000E+00
  1.50000000E+00  8.00000000E-01  8.00000000E-01  1.50000000E+00  1.50000000E+00
  8.00000000E-01  8.00000000E-01  1.50000000E+00  1.50000000E+00  8.00000000E-01
  8.00000000E-01  1.50000000E+00  1.50000000E+00  8.00000000E-01  8.00000000E-01
  1.50000000E+00  1.50000000E+00  8.00000000E-01  8.00000000E-01  1.50000000E+00
  1.50000000E+00  8.00000000E-01  8.00000000E-01  1.50000000E+00  1.50000000E+00
  8.00000000E-01  8.00000000E-01  1.50000000E+00  1.50000000E+00  8.00000000E-01
  8.00000000E-01  1.50000000E+00  1.50000000E+00  8.00000000E-01  8.00000000E-01
  1.50000000E+00  1.50000000E+00  8.00000000E-01  8.00000000E-01  1.50000000E+00
  1.50000000E+00  8.00000000E-01  8.00000000E-01  1.50000000E+00  1.50000000E+00
  8.00000000E-01  8.00000000E-01  1.50000000E+00  1.50000000E+00  8.00000000E-01
  8.00000000E-01  1.50000000E+00  1.50000000E+00  8.00000000E-01  8.00000000E-01
  1.50000000E+00  1.50000000E+00  8.00000000E-01  8.00000000E-01  1.50000000E+00
  1.50000000E+00  8.00000000E-01  8.00000000E-01  1.50000000E+00  1.50000000E+00
  8.00000000E-01  8.00000000E-01  1.50000000E+00  1.50000000E+00  8.00000000E-01
  8.00000000E-01  1.50000000E+00  1.50000000E+00  8.00000000E-01  8.00000000E-01
  1.50000000E+00  1.50000000E+00  8.00000000E-01  8.00000000E-01  1.50000000E+00
  1.50000000E+00  8.00000000E-01  8.00000000E-01  1.50000000E+00  1.50000000E+00
  8.00000000E-01  8.00000000E-01  1.50000000E+00  1.50000000E+00  8.00000000E-01
  8.00000000E-01  1.50000000E+00  1.50000000E+00  8.00000000E-01  8.00000000E-01
  1.50000000E+00  1.50000000E+00  8.00000000E-01  8.00000000E-01  1.50000000E+00
  1.50000000E+00  8.00000000E-01  8.00000000E-01  1.50000000E+00  1.50000000E+00
  8.00000000E-01  8.00000000E-01  1.50000000E+00  1.50000000E+00  8.00000000E-01
  8.00000000E-01  1.50000000E+00  1.50000000E+00  8.00000000E-01  8.00000000E-01
  1.50000000E+00  1.50000000E+00  8.00000000E-01  8.00000000E-01  1.50000000E+00
  1.50000000E+00  8.00000000E-01  8.00000000E-01  1.50000000E+00  1.50000000E+00
  8.00000000E-01  8.00000000E-01  1.50000000E+00  1.50000000E+00  8.00000000E-01
  8.00000000E-01  1.50000000E+00  1.50000000E+00  8.00000000E-01  8.00000000E-01
  1.50000000E+00  1.50000000E+00  8.00000000E-01  8.00000000E-01  1.50000000E+00
  1.50000000E+00  8.00000000E-01  8.00000000E-01  1.50000000E+00  1.50000000E+00
  8.00000000E-01  8.00000000E-01  1.50000000E+00  1.50000000E+00  8.00000000E-01
  8.00000000E-01  1.50000000E+00  1.50000000E+00  8.00000000E-01  8.00000000E-01
  1.50000000E+00  1.50000000E+00  8.00000000E-01  8.00000000E-01  1.50000000E+00
  1.50000000E+00  8.00000000E-01  8.00000000E-01  1.50000000E+00  1.50000000E+00
  8.00000000E-01  8.00000000E-01  1.50000000E+00  1.50000000E+00  8.00000000E-01
  8.00000000E-01  1.50000000E+00  1.50000000E+00  8.00000000E-01  8.00000000E-01
  1.50000000E+00  1.50000000E+00  8.00000000E-01  8.00000000E-01  1.50000000E+00
  1.50000000E+00  8.00000000E-01  8.00000000E-01  1.50000000E+00  1.50000000E+00
  8.00000000E-01  8.00000000E-01  1.50000000E+00  1.50000000E+00  8.00000000E-01
  8.00000000E-01  1.50000000E+00  1.50000000E+00  8.00000000E-01  8.00000000E-01
  1.50000000E+00  1.50000000E+00  8.00000000E-01  8.00000000E-01  1.50000000E+00
  1.50000000E+00  8.00000000E-01  8.00000000E-01  1.50000000E+00  1.50000000E+00
  8.00000000E-01  8.00000000E-01  1.50000000E+00  1.50000000E+00  8.00000000E-01
  8.00000000E-01  1.50000000E+00  1.50000000E+00  8.00000000E-01  8.00000000E-01
  1.50000000E+00  1.50000000E+00  8.00000000E-01  8.00000000E-01  1.50000000E+00
  1.50000000E+00  8.00000000E-01  8.00000000E-01  1.50000000E+00  1.50000000E+00
  8.00000000E-01  8.00000000E-01  1.50000000E+00  1.50000000E+00  8.00000000E-01
  8.00000000E-01  1.50000000E+00  1.50000000E+00  8.00000000E-01  8.00000000E-01
  1.50000000E+00  1.50000000E+00  8.00000000E-01  8.00000000E-01  1.50000000E+00
  1.50000000E+00  8.00000000E-01  8.00000000E-01  1.50000000E+00  1.50000000E+00
  8.00000000E-01  8.00000000E-01  1.50000000E+00  1.50000000E+00  8.00000000E-01
  8.00000000E-01  1.50000000E+00  1.50000000E+00  8.00000000E-01  8.00000000E-01
  1.50000000E+00  1.50000000E+00  8.00000000E-01  8.00000000E-01  1.50000000E+00
  1.50000000E+00  8.00000000E-01  8.00000000E-01  1.50000000E+00  1.50000000E+00
  8.00000000E-01  8.00000000E-01  1.50000000E+00  1.50000000E+00  8.00000000E-01
  8.00000000E-01  1.50000000E+00  1.50000000E+00  8.00000000E-01  8.00000000E-01
  1.50000000E+00  1.50000000E+00  8.00000000E-01  8.00000000E-01  1.50000000E+00
  1.50000000E+00  8.00000000E-01  8.00000000E-01  1.50000000E+00  1.50000000E+00
  8.00000000E-01  8.00000000E-01  1.50000000E+00  1.50000000E+00  8.00000000E-01
  8.00000000E-01  1.50000000E+00  1.50000000E+00  8.00000000E-01  8.00000000E-01
  1.50000000E+00  1.50000000E+00  8.00000000E-01  8.00000000E-01  1.50000000E+00
  1.50000000E+00  8.00000000E-01  8.00000000E-01  1.50000000E+00  1.50000000E+00
  8.00000000E-01  8.00000000E-01  1.50000000E+00  1.50000000E+00  8.00000000E-01
  8.00000000E-01  1.50000000E+00  1.50000000E+00  8.00000000E-01  8.00000000E-01
  1.50000000E+00  1.50000000E+00  8.00000000E-01  8.00000000E-01  1.50000000E+00
  1.50000000E+00  8.00000000E-01  8.00000000E-01  1.50000000E+00  1.50000000E+00
  8.00000000E-01  8.00000000E-01  1.50000000E+00  1.50000000E+00  8.00000000E-01
  8.00000000E-01  1.50000000E+00  1.50000000E+00  8.00000000E-01  8.00000000E-01
  1.50000000E+00  1.50000000E+00  8.00000000E-01  8.00000000E-01  1.50000000E+00
  1.50000000E+00  8.00000000E-01  8.00000000E-01  1.50000000E+00  1.50000000E+00
  8.00000000E-01  8.00000000E-01  1.50000000E+00  1.50000000E+00  8.00000000E-01
  8.00000000E-01  1.50000000E+00  1.50000000E+00  8.00000000E-01  8.00000000E-01
  1.50000000E+00  1.50000000E+00  8.00000000E-01  8.00000000E-01  1.50000000E+00
  1.50000000E+00  8.00000000E-01  8.00000000E-01  1.50000000E+00  1.50000000E+00
  8.00000000E-01  8.00000000E-01  1.50000000E+00  1.50000000E+00  8.00000000E-01
  8.00000000E-01  1.50000000E+00  1.50000000E+00  8.00000000E-01  8.00000000E-01
  1.50000000E+00  1.50000000E+00  8.00000000E-01  8.00000000E-01  1.50000000E+00
  1.50000000E+00  8.00000000E-01  8.00000000E-01  1.50000000E+00  1.50000000E+00
  8.00000000E-01  8.00000000E-01  1.50000000E+00  1.50000000E+00  8.00000000E-01
  8.00000000E-01  1.50000000E+00  1.50000000E+00  8.00000000E-01  8.00000000E-01
  1.50000000E+00  1.50000000E+00  8.00000000E-01  8.00000000E-01  1.50000000E+00
  1.50000000E+00  8.00000000E-01  8.00000000E-01  1.50000000E+00  1.50000000E+00
  8.00000000E-01  8.00000000E-01  1.50000000E+00  1.50000000E+00  8.00000000E-01
  8.00000000E-01  1.50000000E+00  1.50000000E+00  8.00000000E-01  8.00000000E-01
  1.50000000E+00  1.50000000E+00  8.00000000E-01  8.00000000E-01  1.50000000E+00
  1.50000000E+00  8.00000000E-01  8.00000000E-01  1.50000000E+00  1.50000000E+00
  8.00000000E-01  8.00000000E-01  1.50000000E+00  1.50000000E+00  8.00000000E-01
  8.00000000E-01  1.50000000E+00  1.50000000E+00  8.00000000E-01  8.00000000E-01
  1.50000000E+00  1.50000000E+00  8.00000000E-01  8.00000000E-01  1.50000000E+00
  1.50000000E+00  8.00000000E-01  8.00000000E-01  1.50000000E+00  1.50000000E+00
  8.00000000E-01  8.00000000E-01  1.50000000E+00  1.50000000E+00  8.00000000E-01
  8.00000000E-01  1.50000000E+00  1.50000000E+00  8.00000000E-01  8.00000000E-01
  1.50000000E+00  1.50000000E+00  8.00000000E-01  8.00000000E-01  1.50000000E+00
  1.50000000E+00  8.00000000E-01  8.00000000E-01  1.50000000E+00  1.50000000E+00
  8.00000000E-01  8.00000000E-01  1.50000000E+00  1.50000000E+00  8.00000000E-01
  8.00000000E-01  1.50000000E+00  1.50000000E+00  8.00000000E-01  8.00000000E-01
  1.50000000E+00  1.50000000E+00  8.00000000E-01  8.00000000E-01  1.50000000E+00
  1.50000000E+00  8.00000000E-01  8.00000000E-01  1.50000000E+00  1.50000000E+00
  8.00000000E-01  8.00000000E-01  1.50000000E+00  1.50000000E+00  8.00000000E-01
  8.00000000E-01  1.50000000E+00  1.50000000E+00  8.00000000E-01  8.00000000E-01
  1.50000000E+00  1.50000000E+00  8.00000000E-01  8.00000000E-01  1.50000000E+00
  1.50000000E+00  8.00000000E-01  8.00000000E-01  1.50000000E+00  1.50000000E+00
  8.00000000E-01  8.00000000E-01  1.50000000E+00  1.50000000E+00  8.00000000E-01
  8.00000000E-01  1.50000000E+00  1.50000000E+00  8.00000000E-01  8.00000000E-01
  1.50000000E+00  1.50000000E+00  8.00000000E-01  8.00000000E-01  1.50000000E+00
  1.50000000E+00  8.00000000E-01  8.00000000E-01  1.50000000E+00  1.50000000E+00
  8.00000000E-01  8.00000000E-01  1.50000000E+00  1.50000000E+00  8.00000000E-01
  8.00000000E-01  1.50000000E+00  1.50000000E+00  8.00000000E-01  8.00000000E-01
  1.50000000E+00  1.50000000E+00  8.00000000E-01  8.00000000E-01  1.50000000E+00
  1.50000000E+00  8.00000000E-01  8.00000000E-01  1.50000000E+00  1.50000000E+00
  8.00000000E-01  8.00000000E-01  1.50000000E+00  1.50000000E+00  8.00000000E-01
  8.00000000E-01  1.50000000E+00  1.50000000E+00  8.00000000E-01  8.00000000E-01
  1.50000000E+00  1.50000000E+00  8.00000000E-01  8.00000000E-01  1.50000000E+00
  1.50000000E+00  8.00000000E-01  8.00000000E-01  1.50000000E+00  1.50000000E+00
  8.00000000E-01  8.00000000E-01  1.50000000E+00  1.50000000E+00  8.00000000E-01
  8.00000000E-01  1.50000000E+00  1.50000000E+00  8.00000000E-01  8.00000000E-01
  1.50000000E+00  1.50000000E+00  8.00000000E-01  8.00000000E-01  1.50000000E+00
  1.50000000E+00  8.00000000E-01  8.00000000E-01  1.50000000E+00  1.50000000E+00
  8.00000000E-01  8.00000000E-01  1.50000000E+00  1.50000000E+00  8.00000000E-01
  8.00000000E-01  1.50000000E+00  1.50000000E+00  8.00000000E-01  8.00000000E-01
  1.50000000E+00  1.50000000E+00  8.00000000E-01  8.00000000E-01  1.50000000E+00
  1.50000000E+00  8.00000000E-01  8.00000000E-01  1.50000000E+00  1.50000000E+00
  8.00000000E-01  8.00000000E-01  1.50000000E+00  1.50000000E+00  8.00000000E-01
  8.00000000E-01  1.50000000E+00  1.50000000E+00  8.00000000E-01  8.00000000E-01
  1.50000000E+00  1.50000000E+00  8.00000000E-01  8.00000000E-01  1.50000000E+00
  1.50000000E+00  8.00000000E-01  8.00000000E-01  1.50000000E+00  1.50000000E+00
  8.00000000E-01  8.00000000E-01  1.50000000E+00  1.50000000E+00  8.00000000E-01
  8.00000000E-01  1.50000000E+00  1.50000000E+00  8.00000000E-01  8.00000000E-01
  1.50000000E+00  1.50000000E+00  8.00000000E-01  8.00000000E-01  1.50000000E+00
  1.50000000E+00  8.00000000E-01  8.00000000E-01  1.50000000E+00  1.50000000E+00
  8.00000000E-01  8.00000000E-01  1.50000000E+00  1.50000000E+00  8.00000000E-01
  8.00000000E-01  1.50000000E+00  1.50000000E+00  8.00000000E-01  8.00000000E-01
  1.50000000E+00  1.50000000E+00  8.00000000E-01  8.00000000E-01  1.50000000E+00
  1.50000000E+00  8.00000000E-01  8.00000000E-01  1.50000000E+00  1.50000000E+00
  8.00000000E-01  8.00000000E-01  1.50000000E+00  1.50000000E+00  8.00000000E-01
  8.00000000E-01  1.50000000E+00  1.50000000E+00  8.00000000E-01  8.00000000E-01
  1.50000000E+00  1.50000000E+00  8.00000000E-01  8.00000000E-01  1.50000000E+00
  1.50000000E+00  8.00000000E-01  8.00000000E-01  1.50000000E+00  1.50000000E+00
  8.00000000E-01  8.00000000E-01  1.50000000E+00  1.50000000E+00  8.00000000E-01
  8.00000000E-01  1.50000000E+00  1.50000000E+00  8.00000000E-01  8.00000000E-01
  1.50000000E+00  1.50000000E+00  8.00000000E-01  8.00000000E-01  1.50000000E+00
  1.50000000E+00  8.00000000E-01  8.00000000E-01  1.50000000E+00  1.50000000E+00
  8.00000000E-01  8.00000000E-01  1.50000000E+00  1.50000000E+00  8.00000000E-01
  8.00000000E-01  1.50000000E+00  1.50000000E+00  8.00000000E-01  8.00000000E-01
  1.50000000E+00  1.50000000E+00  8.00000000E-01  8.00000000E-01  1.50000000E+00
  1.50000000E+00  8.00000000E-01  8.00000000E-01  1.50000000E+00  1.50000000E+00
  8.00000000E-01  8.00000000E-01  1.50000000E+00  1.50000000E+00  8.00000000E-01
  8.00000000E-01  1.50000000E+00  1.50000000E+00  8.00000000E-01  8.00000000E-01
  1.50000000E+00  1.50000000E+00  8.00000000E-01  8.00000000E-01  1.50000000E+00
  1.50000000E+00  8.00000000E-01  8.00000000E-01  1.50000000E+00  1.50000000E+00
  8.00000000E-01  8.00000000E-01  1.50000000E+00  1.50000000E+00  8.00000000E-01
  8.00000000E-01  1.50000000E+00  1.50000000E+00  8.00000000E-01  8.00000000E-01
  1.50000000E+00  1.50000000E+00  8.00000000E-01  8.00000000E-01  1.50000000E+00
  1.50000000E+00  8.00000000E-01  8.00000000E-01  1.50000000E+00  1.50000000E+00
  8.00000000E-01  8.00000000E-01  1.50000000E+00  1.50000000E+00  8.00000000E-01
  8.00000000E-01  1.50000000E+00  1.50000000E+00  8.00000000E-01  8.00000000E-01
  1.50000000E+00  1.50000000E+00  8.00000000E-01  8.00000000E-01  1.50000000E+00
  1.50000000E+00  8.00000000E-01  8.00000000E-01  1.50000000E+00  1.50000000E+00
  8.00000000E-01  8.00000000E-01  1.50000000E+00  1.50000000E+00  8.00000000E-01
  8.00000000E-01  1.50000000E+00  1.50000000E+00  8.00000000E-01  8.00000000E-01
  1.50000000E+00  1.50000000E+00  8.00000000E-01  8.00000000E-01  1.50000000E+00
  1.50000000E+00  8.00000000E-01  8.00000000E-01  1.50000000E+00  1.50000000E+00
  8.00000000E-01  8.00000000E-01  1.50000000E+00  1.50000000E+00  8.00000000E-01
  8.00000000E-01  1.50000000E+00  1.50000000E+00  8.00000000E-01  8.00000000E-01
  1.50000000E+00  1.50000000E+00  8.00000000E-01  8.00000000E-01  1.50000000E+00
  1.50000000E+00  8.00000000E-01  8.00000000E-01  1.50000000E+00  1.50000000E+00
  8.00000000E-01  8.00000000E-01  1.50000000E+00  1.50000000E+00  8.00000000E-01
  8.00000000E-01  1.50000000E+00  1.50000000E+00  8.00000000E-01  8.00000000E-01
  1.50000000E+00  1.50000000E+00  8.00000000E-01  8.00000000E-01  1.50000000E+00
  1.50000000E+00  8.00000000E-01  8.00000000E-01  1.50000000E+00  1.50000000E+00
  8.00000000E-01  8.00000000E-01  1.50000000E+00  1.50000000E+00  8.00000000E-01
  8.00000000E-01  1.50000000E+00  1.50000000E+00  8.00000000E-01  8.00000000E-01
  1.50000000E+00  1.50000000E+00  8.00000000E-01  8.00000000E-01  1.50000000E+00
  1.50000000E+00  8.00000000E-01  8.00000000E-01  1.50000000E+00  1.50000000E+00
  8.00000000E-01  8.00000000E-01  1.50000000E+00  1.50000000E+00  8.00000000E-01
  8.00000000E-01  1.50000000E+00  1.50000000E+00  8.00000000E-01  8.00000000E-01
  1.50000000E+00  1.50000000E+00  8.00000000E-01  8.00000000E-01  1.50000000E+00
  1.50000000E+00  8.00000000E-01  8.00000000E-01  1.50000000E+00  1.50000000E+00
  8.00000000E-01  8.00000000E-01  1.50000000E+00  1.50000000E+00  8.00000000E-01
  8.00000000E-01  1.50000000E+00  1.50000000E+00  8.00000000E-01  8.00000000E-01
  1.50000000E+00  1.50000000E+00  8.00000000E-01  8.00000000E-01  1.50000000E+00
  1.50000000E+00  8.00000000E-01  8.00000000E-01  1.50000000E+00  1.50000000E+00
  8.00000000E-01  8.00000000E-01  1.50000000E+00  1.50000000E+00  8.00000000E-01
  8.00000000E-01  1.50000000E+00  1.50000000E+00  8.00000000E-01  8.00000000E-01
  1.50000000E+00  1.50000000E+00  8.00000000E-01  8.00000000E-01  1.50000000E+00
  1.50000000E+00  8.00000000E-01  8.00000000E-01  1.50000000E+00  1.50000000E+00
  8.00000000E-01  8.00000000E-01  1.50000000E+00  1.50000000E+00  8.00000000E-01
  8.00000000E-01  1.50000000E+00  1.50000000E+00  8.00000000E-01  8.00000000E-01
  1.50000000E+00  1.50000000E+00  8.00000000E-01  8.00000000E-01  1.50000000E+00
  1.50000000E+00  8.00000000E-01  8.00000000E-01  1.50000000E+00  1.50000000E+00
  8.00000000E-01  8.00000000E-01  1.50000000E+00  1.50000000E+00  8.00000000E-01
  8.00000000E-01  1.50000000E+00  1.50000000E+00  8.00000000E-01  8.00000000E-01
  1.50000000E+00  1.50000000E+00  8.00000000E-01  8.00000000E-01  1.50000000E+00
  1.50000000E+00  8.00000000E-01  8.00000000E-01  1.50000000E+00  1.50000000E+00
  8.00000000E-01  8.00000000E-01  1.50000000E+00  1.50000000E+00  8.00000000E-01
  8.00000000E-01  1.50000000E+00  1.50000000E+00  8.00000000E-01  8.00000000E-01
  1.50000000E+00  1.50000000E+00  8.00000000E-01  8.00000000E-01  1.50000000E+00
  1.50000000E+00  8.00000000E-01  8.00000000E-01  1.50000000E+00  1.50000000E+00
  8.00000000E-01  8.00000000E-01  1.50000000E+00  1.50000000E+00  8.00000000E-01
  8.00000000E-01  1.50000000E+00  1.50000000E+00  8.00000000E-01  8.00000000E-01
  1.50000000E+00  1.50000000E+00  8.00000000E-01  8.00000000E-01  1.50000000E+00
  1.50000000E+00  8.00000000E-01  8.00000000E-01  1.50000000E+00  1.50000000E+00
  8.00000000E-01  8.00000000E-01  1.50000000E+00  1.50000000E+00  8.00000000E-01
  8.00000000E-01  1.50000000E+00  1.50000000E+00  8.00000000E-01  8.00000000E-01
  1.50000000E+00  1.50000000E+00  8.00000000E-01  8.00000000E-01  1.50000000E+00
  1.50000000E+00  8.00000000E-01  8.00000000E-01  1.50000000E+00  1.50000000E+00
  8.00000000E-01  8.00000000E-01  1.50000000E+00  1.50000000E+00  8.00000000E-01
  8.00000000E-01  1.50000000E+00  1.50000000E+00  8.00000000E-01  8.00000000E-01
  1.50000000E+00  1.50000000E+00  8.00000000E-01  8.00000000E-01  1.50000000E+00
  1.50000000E+00  8.00000000E-01  8.00000000E-01  1.50000000E+00  1.50000000E+00
  8.00000000E-01  8.00000000E-01  1.50000000E+00  1.50000000E+00  8.00000000E-01
  8.00000000E-01  1.50000000E+00  1.50000000E+00  8.00000000E-01  8.00000000E-01
  1.50000000E+00  1.50000000E+00  8.00000000E-01  8.00000000E-01  1.50000000E+00
  1.50000000E+00  8.00000000E-01  8.00000000E-01  1.50000000E+00  1.50000000E+00
  8.00000000E-01  8.00000000E-01  1.50000000E+00  1.50000000E+00  8.00000000E-01
  8.00000000E-01  1.50000000E+00  1.50000000E+00  8.00000000E-01  8.00000000E-01
  1.50000000E+00  1.50000000E+00  8.00000000E-01  8.00000000E-01  1.50000000E+00
  1.50000000E+00  8.00000000E-01  8.00000000E-01  1.50000000E+00  1.50000000E+00
  8.00000000E-01  8.00000000E-01  1.50000000E+00  1.50000000E+00  8.00000000E-01
  8.00000000E-01  1.50000000E+00  1.50000000E+00  8.00000000E-01  8.00000000E-01
  1.50000000E+00  1.50000000E+00  8.00000000E-01  8.00000000E-01  1.50000000E+00
  1.50000000E+00  8.00000000E-01  8.00000000E-01  1.50000000E+00  1.50000000E+00
  8.00000000E-01  8.00000000E-01  1.50000000E+00  1.50000000E+00  8.00000000E-01
  8.00000000E-01  1.50000000E+00  1.50000000E+00  8.00000000E-01  8.00000000E-01
  1.50000000E+00  1.50000000E+00  8.00000000E-01  8.00000000E-01  1.50000000E+00
  1.50000000E+00  8.00000000E-01  8.00000000E-01  1.50000000E+00  1.50000000E+00
  8.00000000E-01  8.00000000E-01  1.50000000E+00  1.50000000E+00  8.00000000E-01
  8.00000000E-01  1.50000000E+00  1.50000000E+00  8.00000000E-01  8.00000000E-01
  1.50000000E+00  1.50000000E+00  8.00000000E-01  8.00000000E-01  1.50000000E+00
  1.50000000E+00  8.00000000E-01  8.00000000E-01  1.50000000E+00  1.50000000E+00
  8.00000000E-01  8.00000000E-01  1.50000000E+00  1.50000000E+00  8.00000000E-01
  8.00000000E-01  1.50000000E+00  1.50000000E+00  8.00000000E-01  8.00000000E-01
  1.50000000E+00  1.50000000E+00  8.00000000E-01  8.00000000E-01  1.50000000E+00
  1.50000000E+00  8.00000000E-01  8.00000000E-01  1.50000000E+00  1.50000000E+00
  8.00000000E-01  8.00000000E-01  1.50000000E+00  1.50000000E+00  8.00000000E-01
  8.00000000E-01  1.50000000E+00  1.50000000E+00  8.00000000E-01  8.00000000E-01
  1.50000000E+00  1.50000000E+00  8.00000000E-01  8.00000000E-01  1.50000000E+00
  1.50000000E+00  8.00000000E-01  8.00000000E-01  1.50000000E+00  1.50000000E+00
  8.00000000E-01  8.00000000E-01  1.50000000E+00  1.50000000E+00  8.00000000E-01
  8.00000000E-01  1.50000000E+00  1.50000000E+00  8.00000000E-01  8.00000000E-01
  1.50000000E+00  1.50000000E+00  8.00000000E-01  8.00000000E-01  1.50000000E+00
  1.50000000E+00  8.00000000E-01  8.00000000E-01  1.50000000E+00  1.50000000E+00
  8.00000000E-01  8.00000000E-01  1.50000000E+00  1.50000000E+00  8.00000000E-01
  8.00000000E-01  1.50000000E+00  1.50000000E+00  8.00000000E-01  8.00000000E-01
  1.50000000E+00  1.50000000E+00  8.00000000E-01  8.00000000E-01  1.50000000E+00
  1.50000000E+00  8.00000000E-01  8.00000000E-01  1.50000000E+00  1.50000000E+00
  8.00000000E-01  8.00000000E-01  1.50000000E+00  1.50000000E+00  8.00000000E-01
  8.00000000E-01  1.50000000E+00  1.50000000E+00  8.00000000E-01  8.00000000E-01
  1.50000000E+00  1.50000000E+00  8.00000000E-01  8.00000000E-01  1.50000000E+00
  1.50000000E+00  8.00000000E-01  8.00000000E-01  1.50000000E+00  1.50000000E+00
  8.00000000E-01  8.00000000E-01  1.50000000E+00  1.50000000E+00  8.00000000E-01
  8.00000000E-01  1.50000000E+00  1.50000000E+00  8.00000000E-01  8.00000000E-01
  1.50000000E+00  1.50000000E+00  8.00000000E-01  8.00000000E-01  1.50000000E+00
  1.50000000E+00  8.00000000E-01  8.00000000E-01  1.50000000E+00  1.50000000E+00
  8.00000000E-01  8.00000000E-01  1.50000000E+00  1.50000000E+00  8.00000000E-01
  8.00000000E-01  1.50000000E+00  1.50000000E+00  8.00000000E-01  8.00000000E-01
  1.50000000E+00  1.50000000E+00  8.00000000E-01  8.00000000E-01  1.50000000E+00
  1.50000000E+00  8.00000000E-01  8.00000000E-01  1.50000000E+00  1.50000000E+00
  8.00000000E-01  8.00000000E-01  1.50000000E+00  1.50000000E+00  8.00000000E-01
  8.00000000E-01  1.50000000E+00  1.50000000E+00  8.00000000E-01  8.00000000E-01
  1.50000000E+00  1.50000000E+00  8.00000000E-01  8.00000000E-01  1.50000000E+00
  1.50000000E+00  8.00000000E-01  8.00000000E-01  1.50000000E+00  1.50000000E+00
  8.00000000E-01  8.00000000E-01  1.50000000E+00  1.50000000E+00  8.00000000E-01
  8.00000000E-01  1.50000000E+00  1.50000000E+00  8.00000000E-01  8.00000000E-01
  1.50000000E+00  1.50000000E+00  8.00000000E-01  8.00000000E-01  1.50000000E+00
  1.50000000E+00  8.00000000E-01  8.00000000E-01  1.50000000E+00  1.50000000E+00
  8.00000000E-01  8.00000000E-01  1.50000000E+00  1.50000000E+00  8.00000000E-01
  8.00000000E-01  1.50000000E+00  1.50000000E+00  8.00000000E-01  8.00000000E-01
  1.50000000E+00  1.50000000E+00  8.00000000E-01  8.00000000E-01  1.50000000E+00
  1.50000000E+00  8.00000000E-01  8.00000000E-01  1.50000000E+00  1.50000000E+00
  8.00000000E-01  8.00000000E-01  1.50000000E+00  1.50000000E+00  8.00000000E-01
  8.00000000E-01  1.50000000E+00  1.50000000E+00  8.00000000E-01  8.00000000E-01
  1.50000000E+00  1.50000000E+00  8.00000000E-01  8.00000000E-01  1.50000000E+00
  1.50000000E+00  8.00000000E-01  8.00000000E-01  1.50000000E+00  1.50000000E+00
  8.00000000E-01  8.00000000E-01  1.50000000E+00  1.50000000E+00  8.00000000E-01
  8.00000000E-01  1.50000000E+00  1.50000000E+00  8.00000000E-01  8.00000000E-01
  1.50000000E+00  1.50000000E+00  8.00000000E-01  8.00000000E-01  1.50000000E+00
  1.50000000E+00  8.00000000E-01  8.00000000E-01  1.50000000E+00  1.50000000E+00
  8.00000000E-01  8.00000000E-01  1.50000000E+00  1.50000000E+00  8.00000000E-01
  8.00000000E-01  1.50000000E+00  1.50000000E+00  8.00000000E-01  8.00000000E-01
  1.50000000E+00  1.50000000E+00  8.00000000E-01  8.00000000E-01  1.50000000E+00
  1.50000000E+00  8.00000000E-01  8.00000000E-01  1.50000000E+00  1.50000000E+00
  8.00000000E-01  8.00000000E-01  1.50000000E+00  1.50000000E+00  8.00000000E-01
  8.00000000E-01  1.50000000E+00  1.50000000E+00  8.00000000E-01  8.00000000E-01
  1.50000000E+00  1.50000000E+00  8.00000000E-01  8.00000000E-01  1.50000000E+00
  1.50000000E+00  8.00000000E-01  8.00000000E-01  1.50000000E+00  1.50000000E+00
  8.00000000E-01  8.00000000E-01  1.50000000E+00  1.50000000E+00  8.00000000E-01
  8.00000000E-01  1.50000000E+00  1.50000000E+00  8.00000000E-01  8.00000000E-01
  1.50000000E+00  1.50000000E+00  8.00000000E-01  8.00000000E-01  1.50000000E+00
  1.50000000E+00  8.00000000E-01  8.00000000E-01  1.50000000E+00  1.50000000E+00
  8.00000000E-01  8.00000000E-01  1.50000000E+00  1.50000000E+00  8.00000000E-01
  8.00000000E-01  1.50000000E+00  1.50000000E+00  8.00000000E-01  8.00000000E-01
  1.50000000E+00  1.50000000E+00  8.00000000E-01  8.00000000E-01  1.50000000E+00
  1.50000000E+00  8.00000000E-01  8.00000000E-01  1.50000000E+00  1.50000000E+00
  8.00000000E-01  8.00000000E-01  1.50000000E+00  1.50000000E+00  8.00000000E-01
  8.00000000E-01  1.50000000E+00  1.50000000E+00  8.00000000E-01  8.00000000E-01
  1.50000000E+00  1.50000000E+00  8.00000000E-01  8.00000000E-01  1.50000000E+00
  1.50000000E+00  8.00000000E-01  8.00000000E-01  1.50000000E+00  1.50000000E+00
  8.00000000E-01  8.00000000E-01  1.50000000E+00  1.50000000E+00  8.00000000E-01
  8.00000000E-01  1.50000000E+00  1.50000000E+00  8.00000000E-01  8.00000000E-01
  1.50000000E+00  1.50000000E+00  8.00000000E-01  8.00000000E-01  1.50000000E+00
  1.50000000E+00  8.00000000E-01  8.00000000E-01  1.50000000E+00  1.50000000E+00
  8.00000000E-01  8.00000000E-01  1.50000000E+00  1.50000000E+00  8.00000000E-01
  8.00000000E-01  1.50000000E+00  1.50000000E+00  8.00000000E-01  8.00000000E-01
  1.50000000E+00  1.50000000E+00  8.00000000E-01  8.00000000E-01  1.50000000E+00
  1.50000000E+00  8.00000000E-01  8.00000000E-01  1.50000000E+00  1.50000000E+00
  8.00000000E-01  8.00000000E-01  1.50000000E+00  1.50000000E+00  8.00000000E-01
  8.00000000E-01  1.50000000E+00  1.50000000E+00  8.00000000E-01  8.00000000E-01
  1.50000000E+00  1.50000000E+00  8.00000000E-01  8.00000000E-01  1.50000000E+00
  1.50000000E+00  8.00000000E-01  8.00000000E-01  1.50000000E+00  1.50000000E+00
  8.00000000E-01  8.00000000E-01  1.50000000E+00  1.50000000E+00  8.00000000E-01
  8.00000000E-01  1.50000000E+00  1.50000000E+00  8.00000000E-01  8.00000000E-01
  1.50000000E+00  1.50000000E+00  8.00000000E-01  8.00000000E-01  1.50000000E+00
  1.50000000E+00  8.00000000E-01  8.00000000E-01  1.50000000E+00  1.50000000E+00
  8.00000000E-01  8.00000000E-01  1.50000000E+00  1.50000000E+00  8.00000000E-01
  8.00000000E-01  1.50000000E+00  1.50000000E+00  8.00000000E-01  8.00000000E-01
  1.50000000E+00  1.50000000E+00  8.00000000E-01  8.00000000E-01  1.50000000E+00
  1.50000000E+00  8.00000000E-01  8.00000000E-01  1.50000000E+00  1.50000000E+00
  8.00000000E-01  8.00000000E-01  1.50000000E+00  1.50000000E+00  8.00000000E-01
  8.00000000E-01  1.50000000E+00  1.50000000E+00  8.00000000E-01  8.00000000E-01
  1.50000000E+00  1.50000000E+00  8.00000000E-01  8.00000000E-01  1.50000000E+00
  1.50000000E+00  8.00000000E-01  8.00000000E-01  1.50000000E+00  1.50000000E+00
  8.00000000E-01  8.00000000E-01  1.50000000E+00  1.50000000E+00  8.00000000E-01
  8.00000000E-01  1.50000000E+00  1.50000000E+00  8.00000000E-01  8.00000000E-01
  1.50000000E+00  1.50000000E+00  8.00000000E-01  8.00000000E-01  1.50000000E+00
  1.50000000E+00  8.00000000E-01  8.00000000E-01  1.50000000E+00  1.50000000E+00
  8.00000000E-01  8.00000000E-01  1.50000000E+00  1.50000000E+00  8.00000000E-01
  8.00000000E-01  1.50000000E+00  1.50000000E+00  8.00000000E-01  8.00000000E-01
  1.50000000E+00  1.50000000E+00  8.00000000E-01  8.00000000E-01  1.50000000E+00
  1.50000000E+00  8.00000000E-01  8.00000000E-01  1.50000000E+00  1.50000000E+00
  8.00000000E-01  8.00000000E-01  1.50000000E+00  1.50000000E+00  8.00000000E-01
  8.00000000E-01  1.50000000E+00  1.50000000E+00  8.00000000E-01  8.00000000E-01
  1.50000000E+00  1.50000000E+00  8.00000000E-01  8.00000000E-01  1.50000000E+00
  1.50000000E+00  8.00000000E-01  8.00000000E-01  1.50000000E+00  1.50000000E+00
  8.00000000E-01  8.00000000E-01  1.50000000E+00  1.50000000E+00  8.00000000E-01
  8.00000000E-01  1.50000000E+00  1.50000000E+00  8.00000000E-01  8.00000000E-01
  1.50000000E+00  1.50000000E+00  8.00000000E-01  8.00000000E-01  1.50000000E+00
  1.50000000E+00  8.00000000E-01  8.00000000E-01  1.50000000E+00  1.50000000E+00
  8.00000000E-01  8.00000000E-01  1.50000000E+00  1.50000000E+00  8.00000000E-01
  8.00000000E-01  1.50000000E+00  1.50000000E+00  8.00000000E-01  8.00000000E-01
  1.50000000E+00  1.50000000E+00  8.00000000E-01  8.00000000E-01  1.50000000E+00
  1.50000000E+00  8.00000000E-01  8.00000000E-01  1.50000000E+00  1.50000000E+00
  8.00000000E-01  8.00000000E-01  1.50000000E+00  1.50000000E+00  8.00000000E-01
  8.00000000E-01  1.50000000E+00  1.50000000E+00  8.00000000E-01  8.00000000E-01
  1.50000000E+00  1.50000000E+00  8.00000000E-01  8.00000000E-01  1.50000000E+00
  1.50000000E+00  8.00000000E-01  8.00000000E-01  1.50000000E+00  1.50000000E+00
  8.00000000E-01  8.00000000E-01  1.50000000E+00  1.50000000E+00  8.00000000E-01
  8.00000000E-01  1.50000000E+00  1.50000000E+00  8.00000000E-01  8.00000000E-01
  1.50000000E+00  1.50000000E+00  8.00000000E-01  8.00000000E-01  1.50000000E+00
  1.50000000E+00  8.00000000E-01  8.00000000E-01  1.50000000E+00  1.50000000E+00
  8.00000000E-01  8.00000000E-01  1.50000000E+00  1.50000000E+00  8.00000000E-01
  8.00000000E-01  1.50000000E+00  1.50000000E+00  8.00000000E-01  8.00000000E-01
  1.50000000E+00  1.50000000E+00  8.00000000E-01  8.00000000E-01  1.50000000E+00
  1.50000000E+00  8.00000000E-01  8.00000000E-01  1.50000000E+00  1.50000000E+00
  8.00000000E-01  8.00000000E-01  1.50000000E+00  1.50000000E+00  8.00000000E-01
  8.00000000E-01  1.50000000E+00  1.50000000E+00  8.00000000E-01  8.00000000E-01
  1.50000000E+00  1.50000000E+00  8.00000000E-01  8.00000000E-01  1.50000000E+00
  1.50000000E+00  8.00000000E-01  8.00000000E-01  1.50000000E+00  1.50000000E+00
  8.00000000E-01  8.00000000E-01  1.50000000E+00  1.50000000E+00  8.00000000E-01
  8.00000000E-01  1.50000000E+00  1.50000000E+00  8.00000000E-01  8.00000000E-01
  1.50000000E+00  1.50000000E+00  8.00000000E-01  8.00000000E-01  1.50000000E+00
  1.50000000E+00  8.00000000E-01  8.00000000E-01  1.50000000E+00  1.50000000E+00
  8.00000000E-01  8.00000000E-01  1.50000000E+00  1.50000000E+00  8.00000000E-01
  8.00000000E-01  1.50000000E+00  1.50000000E+00  8.00000000E-01  8.00000000E-01
  1.50000000E+00  1.50000000E+00  8.00000000E-01  8.00000000E-01  1.50000000E+00
  1.50000000E+00  8.00000000E-01  8.00000000E-01  1.50000000E+00  1.50000000E+00
  8.00000000E-01  8.00000000E-01  1.50000000E+00  1.50000000E+00  8.00000000E-01
  8.00000000E-01  1.50000000E+00  1.50000000E+00  8.00000000E-01  8.00000000E-01
  1.50000000E+00  1.50000000E+00  8.00000000E-01  8.00000000E-01  1.50000000E+00
  1.50000000E+00  8.00000000E-01  8.00000000E-01  1.50000000E+00  1.50000000E+00
  8.00000000E-01  8.00000000E-01  1.50000000E+00  1.50000000E+00  8.00000000E-01
  8.00000000E-01  1.50000000E+00  1.50000000E+00  8.00000000E-01  8.00000000E-01
  1.50000000E+00  1.50000000E+00  8.00000000E-01  8.00000000E-01  1.50000000E+00
  1.50000000E+00  8.00000000E-01  8.00000000E-01  1.50000000E+00  1.50000000E+00
  8.00000000E-01  8.00000000E-01  1.50000000E+00  1.50000000E+00  8.00000000E-01
  8.00000000E-01  1.50000000E+00  1.50000000E+00  8.00000000E-01  8.00000000E-01
  1.50000000E+00  1.50000000E+00  8.00000000E-01  8.00000000E-01  1.50000000E+00
  1.50000000E+00  8.00000000E-01  8.00000000E-01  1.50000000E+00  1.50000000E+00
  8.00000000E-01  8.00000000E-01  1.50000000E+00  1.50000000E+00  8.00000000E-01
  8.00000000E-01  1.50000000E+00  1.50000000E+00  8.00000000E-01  8.00000000E-01
  1.50000000E+00  1.50000000E+00  8.00000000E-01  8.00000000E-01  1.50000000E+00
  1.50000000E+00  8.00000000E-01  8.00000000E-01  1.50000000E+00  1.50000000E+00
  8.00000000E-01  8.00000000E-01  1.50000000E+00  1.50000000E+00  8.00000000E-01
  8.00000000E-01  1.50000000E+00  1.50000000E+00  8.00000000E-01  8.00000000E-01
  1.50000000E+00  1.50000000E+00  8.00000000E-01  8.00000000E-01  1.50000000E+00
  1.50000000E+00  8.00000000E-01  8.00000000E-01  1.50000000E+00  1.50000000E+00
  8.00000000E-01  8.00000000E-01  1.50000000E+00  1.50000000E+00  8.00000000E-01
  8.00000000E-01  1.50000000E+00  1.50000000E+00  8.00000000E-01  8.00000000E-01
  1.50000000E+00  1.50000000E+00  8.00000000E-01  8.00000000E-01  1.50000000E+00
  1.50000000E+00  8.00000000E-01  8.00000000E-01  1.50000000E+00  1.50000000E+00
  8.00000000E-01  8.00000000E-01  1.50000000E+00  1.50000000E+00  8.00000000E-01
  8.00000000E-01  1.50000000E+00  1.50000000E+00  8.00000000E-01  8.00000000E-01
  1.50000000E+00  1.50000000E+00  8.00000000E-01  8.00000000E-01  1.50000000E+00
  1.50000000E+00  8.00000000E-01  8.00000000E-01  1.50000000E+00  1.50000000E+00
  8.00000000E-01  8.00000000E-01  1.50000000E+00  1.50000000E+00  8.00000000E-01
  8.00000000E-01  1.50000000E+00  1.50000000E+00  8.00000000E-01  8.00000000E-01
  1.50000000E+00  1.50000000E+00  8.00000000E-01  8.00000000E-01  1.50000000E+00
  1.50000000E+00  8.00000000E-01  8.00000000E-01  1.50000000E+00  1.50000000E+00
  8.00000000E-01  8.00000000E-01  1.50000000E+00  1.50000000E+00  8.00000000E-01
  8.00000000E-01  1.50000000E+00  1.50000000E+00  8.00000000E-01  8.00000000E-01
  1.50000000E+00  1.50000000E+00  8.00000000E-01  8.00000000E-01  1.50000000E+00
  1.50000000E+00  8.00000000E-01  8.00000000E-01  1.50000000E+00  1.50000000E+00
  8.00000000E-01  8.00000000E-01  1.50000000E+00  1.50000000E+00  8.00000000E-01
  8.00000000E-01  1.50000000E+00  1.50000000E+00  8.00000000E-01  8.00000000E-01
  1.50000000E+00  1.50000000E+00  8.00000000E-01  8.00000000E-01  1.50000000E+00
  1.50000000E+00  8.00000000E-01  8.00000000E-01  1.50000000E+00  1.50000000E+00
  8.00000000E-01  8.00000000E-01  1.50000000E+00  1.50000000E+00  8.00000000E-01
  8.00000000E-01  1.50000000E+00  1.50000000E+00  8.00000000E-01  8.00000000E-01
  1.50000000E+00  1.50000000E+00  8.00000000E-01  8.00000000E-01  1.50000000E+00
  1.50000000E+00  8.00000000E-01  8.00000000E-01  1.50000000E+00  1.50000000E+00
  8.00000000E-01  8.00000000E-01  1.50000000E+00  1.50000000E+00  8.00000000E-01
  8.00000000E-01  1.50000000E+00  1.50000000E+00  8.00000000E-01  8.00000000E-01
  1.50000000E+00  1.50000000E+00  8.00000000E-01  8.00000000E-01  1.50000000E+00
  1.50000000E+00  8.00000000E-01  8.00000000E-01  1.50000000E+00  1.50000000E+00
  8.00000000E-01  8.00000000E-01  1.50000000E+00  1.50000000E+00  8.00000000E-01
  8.00000000E-01  1.50000000E+00  1.50000000E+00  8.00000000E-01  8.00000000E-01
  1.50000000E+00  1.50000000E+00  8.00000000E-01  8.00000000E-01  1.50000000E+00
  1.50000000E+00  8.00000000E-01  8.00000000E-01  1.50000000E+00  1.50000000E+00
  8.00000000E-01  8.00000000E-01  1.50000000E+00  1.50000000E+00  8.00000000E-01
  8.00000000E-01  1.50000000E+00  1.50000000E+00  8.00000000E-01  8.00000000E-01
  1.50000000E+00  1.50000000E+00  8.00000000E-01  8.00000000E-01  1.50000000E+00
  1.50000000E+00  8.00000000E-01  8.00000000E-01  1.50000000E+00  1.50000000E+00
  8.00000000E-01  8.00000000E-01  1.50000000E+00  1.50000000E+00  8.00000000E-01
  8.00000000E-01  1.50000000E+00  1.50000000E+00  8.00000000E-01  8.00000000E-01
  1.50000000E+00  1.50000000E+00  8.00000000E-01  8.00000000E-01  1.50000000E+00
  1.50000000E+00  8.00000000E-01  8.00000000E-01  1.50000000E+00  1.50000000E+00
  8.00000000E-01  8.00000000E-01  1.50000000E+00  1.50000000E+00  8.00000000E-01
  8.00000000E-01  1.50000000E+00  1.50000000E+00  8.00000000E-01  8.00000000E-01
  1.50000000E+00  1.50000000E+00  8.00000000E-01  8.00000000E-01  1.50000000E+00
  1.50000000E+00  8.00000000E-01  8.00000000E-01  1.50000000E+00  1.50000000E+00
  8.00000000E-01  8.00000000E-01  1.50000000E+00  1.50000000E+00  8.00000000E-01
  8.00000000E-01  1.50000000E+00  1.50000000E+00  8.00000000E-01  8.00000000E-01
  1.50000000E+00  1.50000000E+00  8.00000000E-01  8.00000000E-01  1.50000000E+00
  1.50000000E+00  8.00000000E-01  8.00000000E-01  1.50000000E+00  1.50000000E+00
  8.00000000E-01  8.00000000E-01  1.50000000E+00  1.50000000E+00  8.00000000E-01
  8.00000000E-01  1.50000000E+00  1.50000000E+00  8.00000000E-01  8.00000000E-01
  1.50000000E+00  1.50000000E+00  8.00000000E-01  8.00000000E-01  1.50000000E+00
  1.50000000E+00  8.00000000E-01  8.00000000E-01  1.50000000E+00  1.50000000E+00
  8.00000000E-01  8.00000000E-01  1.50000000E+00  1.50000000E+00  8.00000000E-01
  8.00000000E-01  1.50000000E+00  1.50000000E+00  8.00000000E-01  8.00000000E-01
  1.50000000E+00  1.50000000E+00  8.00000000E-01  8.00000000E-01  1.50000000E+00
  1.50000000E+00  8.00000000E-01  8.00000000E-01  1.50000000E+00  1.50000000E+00
  8.00000000E-01  8.00000000E-01  1.50000000E+00  1.50000000E+00  8.00000000E-01
  8.00000000E-01  1.50000000E+00  1.50000000E+00  8.00000000E-01  8.00000000E-01
  1.50000000E+00  1.50000000E+00  8.00000000E-01  8.00000000E-01  1.50000000E+00
  1.50000000E+00  8.00000000E-01  8.00000000E-01  1.50000000E+00  1.50000000E+00
  8.00000000E-01  8.00000000E-01  1.50000000E+00  1.50000000E+00  8.00000000E-01
  8.00000000E-01  1.50000000E+00  1.50000000E+00  8.00000000E-01  8.00000000E-01
  1.50000000E+00  1.50000000E+00  8.00000000E-01  8.00000000E-01  1.50000000E+00
  1.50000000E+00  8.00000000E-01  8.00000000E-01  1.50000000E+00  1.50000000E+00
  8.00000000E-01  8.00000000E-01  1.50000000E+00  1.50000000E+00  8.00000000E-01
  8.00000000E-01  1.50000000E+00  1.50000000E+00  8.00000000E-01  8.00000000E-01
  1.50000000E+00  1.50000000E+00  8.00000000E-01  8.00000000E-01  1.50000000E+00
  1.50000000E+00  8.00000000E-01  8.00000000E-01  1.50000000E+00  1.50000000E+00
  8.00000000E-01  8.00000000E-01  1.50000000E+00  1.50000000E+00  8.00000000E-01
  8.00000000E-01  1.50000000E+00  1.50000000E+00  8.00000000E-01  8.00000000E-01
  1.50000000E+00  1.50000000E+00  8.00000000E-01  8.00000000E-01  1.50000000E+00
  1.50000000E+00  8.00000000E-01  8.00000000E-01  1.50000000E+00  1.50000000E+00
  8.00000000E-01  8.00000000E-01  1.50000000E+00  1.50000000E+00  8.00000000E-01
  8.00000000E-01  1.50000000E+00  1.50000000E+00  8.00000000E-01  8.00000000E-01
  1.50000000E+00  1.50000000E+00  8.00000000E-01  8.00000000E-01  1.50000000E+00
  1.50000000E+00  8.00000000E-01  8.00000000E-01  1.50000000E+00  1.50000000E+00
  8.00000000E-01  8.00000000E-01  1.50000000E+00  1.50000000E+00  8.00000000E-01
  8.00000000E-01  1.50000000E+00  1.50000000E+00  8.00000000E-01  8.00000000E-01
  1.50000000E+00  1.50000000E+00  8.00000000E-01  8.00000000E-01  1.50000000E+00
  1.50000000E+00  8.00000000E-01  8.00000000E-01  1.50000000E+00  1.50000000E+00
  8.00000000E-01  8.00000000E-01  1.50000000E+00  1.50000000E+00  8.00000000E-01
  8.00000000E-01  1.50000000E+00  1.50000000E+00  8.00000000E-01  8.00000000E-01
  1.50000000E+00  1.50000000E+00  8.00000000E-01  8.00000000E-01  1.50000000E+00
  1.50000000E+00  8.00000000E-01  8.00000000E-01  1.50000000E+00  1.50000000E+00
  8.00000000E-01  8.00000000E-01  1.50000000E+00  1.50000000E+00  8.00000000E-01
  8.00000000E-01  1.50000000E+00  1.50000000E+00  8.00000000E-01  8.00000000E-01
  1.50000000E+00  1.50000000E+00  8.00000000E-01  8.00000000E-01  1.50000000E+00
  1.50000000E+00  8.00000000E-01  8.00000000E-01  1.50000000E+00  1.50000000E+00
  8.00000000E-01  8.00000000E-01  1.50000000E+00  1.50000000E+00  8.00000000E-01
  8.00000000E-01  1.50000000E+00  1.50000000E+00  8.00000000E-01  8.00000000E-01
  1.50000000E+00  1.50000000E+00  8.00000000E-01  8.00000000E-01  1.50000000E+00
  1.50000000E+00  8.00000000E-01  8.00000000E-01  1.50000000E+00  1.50000000E+00
  8.00000000E-01  8.00000000E-01  1.50000000E+00  1.50000000E+00  8.00000000E-01
  8.00000000E-01  1.50000000E+00  1.50000000E+00  8.00000000E-01  8.00000000E-01
  1.50000000E+00  1.50000000E+00  8.00000000E-01  8.00000000E-01  1.50000000E+00
  1.50000000E+00  8.00000000E-01  8.00000000E-01  1.50000000E+00  1.50000000E+00
  8.00000000E-01  8.00000000E-01  1.50000000E+00  1.50000000E+00  8.00000000E-01
  8.00000000E-01  1.50000000E+00  1.50000000E+00  8.00000000E-01  8.00000000E-01
  1.50000000E+00  1.50000000E+00  8.00000000E-01  8.00000000E-01  1.50000000E+00
  1.50000000E+00  8.00000000E-01  8.00000000E-01  1.50000000E+00  1.50000000E+00
  8.00000000E-01  8.00000000E-01  1.50000000E+00  1.50000000E+00  8.00000000E-01
  8.00000000E-01  1.50000000E+00  1.50000000E+00  8.00000000E-01  8.00000000E-01
  1.50000000E+00  1.50000000E+00  8.00000000E-01  8.00000000E-01  1.50000000E+00
  1.50000000E+00  8.00000000E-01  8.00000000E-01  1.50000000E+00  1.50000000E+00
  8.00000000E-01  8.00000000E-01  1.50000000E+00  1.50000000E+00  8.00000000E-01
  8.00000000E-01  1.50000000E+00  1.50000000E+00  8.00000000E-01  8.00000000E-01
  1.50000000E+00  1.50000000E+00  8.00000000E-01  8.00000000E-01  1.50000000E+00
  1.50000000E+00  8.00000000E-01  8.00000000E-01  1.50000000E+00  1.50000000E+00
  8.00000000E-01  8.00000000E-01  1.50000000E+00  1.50000000E+00  8.00000000E-01
  8.00000000E-01  1.50000000E+00  1.50000000E+00  8.00000000E-01  8.00000000E-01
  1.50000000E+00  1.50000000E+00  8.00000000E-01  8.00000000E-01  1.50000000E+00
  1.50000000E+00  8.00000000E-01  8.00000000E-01  1.50000000E+00  1.50000000E+00
  8.00000000E-01  8.00000000E-01  1.50000000E+00  1.50000000E+00  8.00000000E-01
  8.00000000E-01  1.50000000E+00  1.50000000E+00  8.00000000E-01  8.00000000E-01
  1.50000000E+00  1.50000000E+00  8.00000000E-01  8.00000000E-01  1.50000000E+00
  1.50000000E+00  8.00000000E-01  8.00000000E-01  1.50000000E+00  1.50000000E+00
  8.00000000E-01  8.00000000E-01  1.50000000E+00  1.50000000E+00  8.00000000E-01
  8.00000000E-01  1.50000000E+00  1.50000000E+00  8.00000000E-01  8.00000000E-01
  1.50000000E+00  1.50000000E+00  8.00000000E-01  8.00000000E-01  1.50000000E+00
  1.50000000E+00  8.00000000E-01  8.00000000E-01  1.50000000E+00  1.50000000E+00
  8.00000000E-01  8.00000000E-01  1.50000000E+00  1.50000000E+00  8.00000000E-01
  8.00000000E-01  1.50000000E+00  1.50000000E+00  8.00000000E-01  8.00000000E-01
  1.50000000E+00  1.50000000E+00  8.00000000E-01  8.00000000E-01  1.50000000E+00
  1.50000000E+00  8.00000000E-01  8.00000000E-01  1.50000000E+00  1.50000000E+00
  8.00000000E-01  8.00000000E-01  1.50000000E+00  1.50000000E+00  8.00000000E-01
  8.00000000E-01  1.50000000E+00  1.50000000E+00  8.00000000E-01  8.00000000E-01
  1.50000000E+00  1.50000000E+00  8.00000000E-01  8.00000000E-01  1.50000000E+00
  1.50000000E+00  8.00000000E-01  8.00000000E-01  1.50000000E+00  1.50000000E+00
  8.00000000E-01  8.00000000E-01  1.50000000E+00  1.50000000E+00  8.00000000E-01
  8.00000000E-01  1.50000000E+00  1.50000000E+00  8.00000000E-01  8.00000000E-01
  1.50000000E+00  1.50000000E+00  8.00000000E-01  8.00000000E-01  1.50000000E+00
  1.50000000E+00  8.00000000E-01  8.00000000E-01  1.50000000E+00  1.50000000E+00
  8.00000000E-01  8.00000000E-01  1.50000000E+00  1.50000000E+00  8.00000000E-01
  8.00000000E-01  1.50000000E+00  1.50000000E+00  8.00000000E-01  8.00000000E-01
  1.50000000E+00  1.50000000E+00  8.00000000E-01  8.00000000E-01  1.50000000E+00
  1.50000000E+00  8.00000000E-01  8.00000000E-01  1.50000000E+00  1.50000000E+00
  8.00000000E-01  8.00000000E-01  1.50000000E+00  1.50000000E+00  8.00000000E-01
  8.00000000E-01  1.50000000E+00  1.50000000E+00  8.00000000E-01  8.00000000E-01
  1.50000000E+00  1.50000000E+00  8.00000000E-01  8.00000000E-01  1.50000000E+00
  1.50000000E+00  8.00000000E-01  8.00000000E-01  1.50000000E+00  1.50000000E+00
  8.00000000E-01  8.00000000E-01  1.50000000E+00  1.50000000E+00  8.00000000E-01
  8.00000000E-01  1.50000000E+00  1.50000000E+00  8.00000000E-01  8.00000000E-01
  1.50000000E+00  1.50000000E+00  8.00000000E-01  8.00000000E-01  1.50000000E+00
  1.50000000E+00  8.00000000E-01  8.00000000E-01  1.50000000E+00  1.50000000E+00
  8.00000000E-01  8.00000000E-01  1.50000000E+00  1.50000000E+00  8.00000000E-01
  8.00000000E-01  1.50000000E+00  1.50000000E+00  8.00000000E-01  8.00000000E-01
  1.50000000E+00  1.50000000E+00  8.00000000E-01  8.00000000E-01  1.50000000E+00
  1.50000000E+00  8.00000000E-01  8.00000000E-01  1.50000000E+00  1.50000000E+00
  8.00000000E-01  8.00000000E-01  1.50000000E+00  1.50000000E+00  8.00000000E-01
  8.00000000E-01  1.50000000E+00  1.50000000E+00  8.00000000E-01  8.00000000E-01
  1.50000000E+00  1.50000000E+00  8.00000000E-01  8.00000000E-01  1.50000000E+00
  1.50000000E+00  8.00000000E-01  8.00000000E-01  1.50000000E+00  1.50000000E+00
  8.00000000E-01  8.00000000E-01  1.50000000E+00  1.50000000E+00  8.00000000E-01
  8.00000000E-01  1.50000000E+00  1.50000000E+00  8.00000000E-01  8.00000000E-01
  1.50000000E+00  1.50000000E+00  8.00000000E-01  8.00000000E-01  1.50000000E+00
  1.50000000E+00  8.00000000E-01  8.00000000E-01  1.50000000E+00  1.50000000E+00
  8.00000000E-01  8.00000000E-01  1.50000000E+00  1.50000000E+00  8.00000000E-01
  8.00000000E-01  1.50000000E+00  1.50000000E+00  8.00000000E-01  8.00000000E-01
  1.50000000E+00  1.50000000E+00  8.00000000E-01  8.00000000E-01  1.50000000E+00
  1.50000000E+00  8.00000000E-01  8.00000000E-01  1.50000000E+00  1.50000000E+00
  8.00000000E-01  8.00000000E-01  1.50000000E+00  1.50000000E+00  8.00000000E-01
  8.00000000E-01  1.50000000E+00  1.50000000E+00  8.00000000E-01  8.00000000E-01
  1.50000000E+00  1.50000000E+00  8.00000000E-01  8.00000000E-01  1.50000000E+00
  1.50000000E+00  8.00000000E-01  8.00000000E-01  1.50000000E+00  1.50000000E+00
  8.00000000E-01  8.00000000E-01  1.50000000E+00  1.50000000E+00  8.00000000E-01
  8.00000000E-01  1.50000000E+00  1.50000000E+00  8.00000000E-01  8.00000000E-01
  1.50000000E+00  1.50000000E+00  8.00000000E-01  8.00000000E-01  1.50000000E+00
  1.50000000E+00  8.00000000E-01  8.00000000E-01  1.50000000E+00  1.50000000E+00
  8.00000000E-01  8.00000000E-01  1.50000000E+00  1.50000000E+00  8.00000000E-01
  8.00000000E-01  1.50000000E+00  1.50000000E+00  8.00000000E-01  8.00000000E-01
  1.50000000E+00  1.50000000E+00  8.00000000E-01  8.00000000E-01  1.50000000E+00
  1.50000000E+00  8.00000000E-01  8.00000000E-01  1.50000000E+00  1.50000000E+00
  8.00000000E-01  8.00000000E-01  1.50000000E+00  1.50000000E+00  8.00000000E-01
  8.00000000E-01  1.50000000E+00  1.50000000E+00  8.00000000E-01  8.00000000E-01
  1.50000000E+00  1.50000000E+00  8.00000000E-01  8.00000000E-01  1.50000000E+00
  1.50000000E+00  8.00000000E-01  8.00000000E-01  1.50000000E+00  1.50000000E+00
  8.00000000E-01  8.00000000E-01  1.50000000E+00  1.50000000E+00  8.00000000E-01
  8.00000000E-01  1.50000000E+00  1.50000000E+00  8.00000000E-01  8.00000000E-01
  1.50000000E+00  1.50000000E+00  8.00000000E-01  8.00000000E-01  1.50000000E+00
  1.50000000E+00  8.00000000E-01  8.00000000E-01  1.50000000E+00  1.50000000E+00
  8.00000000E-01  8.00000000E-01  1.50000000E+00  1.50000000E+00  8.00000000E-01
  8.00000000E-01  1.50000000E+00  1.50000000E+00  8.00000000E-01  8.00000000E-01
  1.50000000E+00  1.50000000E+00  8.00000000E-01  8.00000000E-01  1.50000000E+00
  1.50000000E+00  8.00000000E-01  8.00000000E-01  1.50000000E+00  1.50000000E+00
  8.00000000E-01  8.00000000E-01  1.50000000E+00  1.50000000E+00  8.00000000E-01
  8.00000000E-01  1.50000000E+00  1.50000000E+00  8.00000000E-01  8.00000000E-01
  1.50000000E+00  1.50000000E+00  8.00000000E-01  8.00000000E-01  1.50000000E+00
  1.50000000E+00  8.00000000E-01  8.00000000E-01  1.50000000E+00  1.50000000E+00
  8.00000000E-01  8.00000000E-01  1.50000000E+00  1.50000000E+00  8.00000000E-01
  8.00000000E-01  1.50000000E+00  1.50000000E+00  8.00000000E-01  8.00000000E-01
  1.50000000E+00  1.50000000E+00  8.00000000E-01  8.00000000E-01  1.50000000E+00
  1.50000000E+00  8.00000000E-01  8.00000000E-01  1.50000000E+00  1.50000000E+00
  8.00000000E-01  8.00000000E-01  1.50000000E+00  1.50000000E+00  8.00000000E-01
  8.00000000E-01  1.50000000E+00  1.50000000E+00  8.00000000E-01  8.00000000E-01
  1.50000000E+00  1.50000000E+00  8.00000000E-01  8.00000000E-01  1.50000000E+00
  1.50000000E+00  8.00000000E-01  8.00000000E-01  1.50000000E+00  1.50000000E+00
  8.00000000E-01  8.00000000E-01  1.50000000E+00  1.50000000E+00  8.00000000E-01
  8.00000000E-01  1.50000000E+00  1.50000000E+00  8.00000000E-01  8.00000000E-01
  1.50000000E+00  1.50000000E+00  8.00000000E-01  8.00000000E-01  1.50000000E+00
  1.50000000E+00  8.00000000E-01  8.00000000E-01  1.50000000E+00  1.50000000E+00
  8.00000000E-01  8.00000000E-01  1.50000000E+00  1.50000000E+00  8.00000000E-01
  8.00000000E-01  1.50000000E+00  1.50000000E+00  8.00000000E-01  8.00000000E-01
  1.50000000E+00  1.50000000E+00  8.00000000E-01  8.00000000E-01  1.50000000E+00
  1.50000000E+00  8.00000000E-01  8.00000000E-01  1.50000000E+00  1.50000000E+00
  8.00000000E-01  8.00000000E-01  1.50000000E+00  1.50000000E+00  8.00000000E-01
  8.00000000E-01  1.50000000E+00  1.50000000E+00  8.00000000E-01  8.00000000E-01
  1.50000000E+00  1.50000000E+00  8.00000000E-01  8.00000000E-01  1.50000000E+00
  1.50000000E+00  8.00000000E-01  8.00000000E-01  1.50000000E+00  1.50000000E+00
  8.00000000E-01  8.00000000E-01  1.50000000E+00  1.50000000E+00  8.00000000E-01
  8.00000000E-01  1.50000000E+00  1.50000000E+00  8.00000000E-01  8.00000000E-01
  1.50000000E+00  1.50000000E+00  8.00000000E-01  8.00000000E-01  1.50000000E+00
  1.50000000E+00  8.00000000E-01  8.00000000E-01  1.50000000E+00  1.50000000E+00
  8.00000000E-01  8.00000000E-01  1.50000000E+00  1.50000000E+00  8.00000000E-01
  8.00000000E-01  1.50000000E+00  1.50000000E+00  8.00000000E-01  8.00000000E-01
  1.50000000E+00  1.50000000E+00  8.00000000E-01  8.00000000E-01  1.50000000E+00
  1.50000000E+00  8.00000000E-01  8.00000000E-01  1.50000000E+00  1.50000000E+00
  8.00000000E-01  8.00000000E-01  1.50000000E+00  1.50000000E+00  8.00000000E-01
  8.00000000E-01  1.50000000E+00  1.50000000E+00  8.00000000E-01  8.00000000E-01
  1.50000000E+00  1.50000000E+00  8.00000000E-01  8.00000000E-01  1.50000000E+00
  1.50000000E+00  8.00000000E-01  8.00000000E-01  1.50000000E+00  1.50000000E+00
  8.00000000E-01  8.00000000E-01  1.50000000E+00  1.50000000E+00  8.00000000E-01
  8.00000000E-01  1.50000000E+00  1.50000000E+00  8.00000000E-01  8.00000000E-01
  1.50000000E+00  1.50000000E+00  8.00000000E-01  8.00000000E-01  1.50000000E+00
  1.50000000E+00  8.00000000E-01  8.00000000E-01  1.50000000E+00  1.50000000E+00
  8.00000000E-01  8.00000000E-01  1.50000000E+00  1.50000000E+00  8.00000000E-01
  8.00000000E-01  1.50000000E+00  1.50000000E+00  8.00000000E-01  8.00000000E-01
  1.50000000E+00  1.50000000E+00  8.00000000E-01  8.00000000E-01  1.50000000E+00
  1.50000000E+00  8.00000000E-01  8.00000000E-01  1.50000000E+00  1.50000000E+00
  8.00000000E-01  8.00000000E-01  1.50000000E+00  1.50000000E+00  8.00000000E-01
  8.00000000E-01  1.50000000E+00  1.50000000E+00  8.00000000E-01  8.00000000E-01
  1.50000000E+00  1.50000000E+00  8.00000000E-01  8.00000000E-01  1.50000000E+00
  1.50000000E+00  8.00000000E-01  8.00000000E-01  1.50000000E+00  1.50000000E+00
  8.00000000E-01  8.00000000E-01  1.50000000E+00  1.50000000E+00  8.00000000E-01
  8.00000000E-01  1.50000000E+00  1.50000000E+00  8.00000000E-01  8.00000000E-01
  1.50000000E+00  1.50000000E+00  8.00000000E-01  8.00000000E-01  1.50000000E+00
  1.50000000E+00  8.00000000E-01  8.00000000E-01  1.50000000E+00  1.50000000E+00
  8.00000000E-01  8.00000000E-01  1.50000000E+00  1.50000000E+00  8.00000000E-01
  8.00000000E-01  1.50000000E+00  1.50000000E+00  8.00000000E-01  8.00000000E-01
  1.50000000E+00  1.50000000E+00  8.00000000E-01  8.00000000E-01  1.50000000E+00
  1.50000000E+00  8.00000000E-01  8.00000000E-01  1.50000000E+00  1.50000000E+00
  8.00000000E-01  8.00000000E-01  1.50000000E+00  1.50000000E+00  8.00000000E-01
  8.00000000E-01  1.50000000E+00  1.50000000E+00  8.00000000E-01  8.00000000E-01
  1.50000000E+00  1.50000000E+00  8.00000000E-01  8.00000000E-01  1.50000000E+00
  1.50000000E+00  8.00000000E-01  8.00000000E-01  1.50000000E+00  1.50000000E+00
  8.00000000E-01  8.00000000E-01  1.50000000E+00  1.50000000E+00  8.00000000E-01
  8.00000000E-01  1.50000000E+00  1.50000000E+00  8.00000000E-01  8.00000000E-01
  1.50000000E+00  1.50000000E+00  8.00000000E-01  8.00000000E-01  1.50000000E+00
  1.50000000E+00  8.00000000E-01  8.00000000E-01  1.50000000E+00  1.50000000E+00
  8.00000000E-01  8.00000000E-01  1.50000000E+00  1.50000000E+00  8.00000000E-01
  8.00000000E-01  1.50000000E+00  1.50000000E+00  8.00000000E-01  8.00000000E-01
  1.50000000E+00  1.50000000E+00  8.00000000E-01  8.00000000E-01  1.50000000E+00
  1.50000000E+00  8.00000000E-01  8.00000000E-01  1.50000000E+00  1.50000000E+00
  8.00000000E-01  8.00000000E-01  1.50000000E+00  1.50000000E+00  8.00000000E-01
  8.00000000E-01  1.50000000E+00  1.50000000E+00  8.00000000E-01  8.00000000E-01
  1.50000000E+00  1.50000000E+00  8.00000000E-01  8.00000000E-01  1.50000000E+00
  1.50000000E+00  8.00000000E-01  8.00000000E-01  1.50000000E+00  1.50000000E+00
  8.00000000E-01  8.00000000E-01  1.50000000E+00  1.50000000E+00  8.00000000E-01
  8.00000000E-01  1.50000000E+00  1.50000000E+00  8.00000000E-01  8.00000000E-01
  1.50000000E+00  1.50000000E+00  8.00000000E-01  8.00000000E-01  1.50000000E+00
  1.50000000E+00  8.00000000E-01  8.00000000E-01  1.50000000E+00  1.50000000E+00
  8.00000000E-01  8.00000000E-01  1.50000000E+00  1.50000000E+00  8.00000000E-01
  8.00000000E-01  1.50000000E+00  1.50000000E+00  8.00000000E-01  8.00000000E-01
  1.50000000E+00  1.50000000E+00  8.00000000E-01  8.00000000E-01  1.50000000E+00
  1.50000000E+00  8.00000000E-01  8.00000000E-01  1.50000000E+00  1.50000000E+00
  8.00000000E-01  8.00000000E-01  1.50000000E+00  1.50000000E+00  8.00000000E-01
  8.00000000E-01  1.50000000E+00  1.50000000E+00  8.00000000E-01  8.00000000E-01
  1.50000000E+00  1.50000000E+00  8.00000000E-01  8.00000000E-01  1.50000000E+00
  1.50000000E+00  8.00000000E-01  8.00000000E-01  1.50000000E+00  1.50000000E+00
  8.00000000E-01  8.00000000E-01  1.50000000E+00  1.50000000E+00  8.00000000E-01
  8.00000000E-01  1.50000000E+00  1.50000000E+00  8.00000000E-01  8.00000000E-01
  1.50000000E+00  1.50000000E+00  8.00000000E-01  8.00000000E-01  1.50000000E+00
  1.50000000E+00  8.00000000E-01  8.00000000E-01  1.50000000E+00  1.50000000E+00
  8.00000000E-01  8.00000000E-01  1.50000000E+00  1.50000000E+00  8.00000000E-01
  8.00000000E-01  1.50000000E+00  1.50000000E+00  8.00000000E-01  8.00000000E-01
  1.50000000E+00  1.50000000E+00  8.00000000E-01  8.00000000E-01  1.50000000E+00
  1.50000000E+00  8.00000000E-01  8.00000000E-01  1.50000000E+00  1.50000000E+00
  8.00000000E-01  8.00000000E-01  1.50000000E+00  1.50000000E+00  8.00000000E-01
  8.00000000E-01  1.50000000E+00  1.50000000E+00  8.00000000E-01  8.00000000E-01
  1.50000000E+00  1.50000000E+00  8.00000000E-01  8.00000000E-01  1.50000000E+00
  1.50000000E+00  8.00000000E-01  8.00000000E-01  1.50000000E+00  1.50000000E+00
  8.00000000E-01  8.00000000E-01  1.50000000E+00  1.50000000E+00  8.00000000E-01
  8.00000000E-01  1.50000000E+00  1.50000000E+00  8.00000000E-01  8.00000000E-01
  1.50000000E+00  1.50000000E+00  8.00000000E-01  8.00000000E-01  1.50000000E+00
  1.50000000E+00  8.00000000E-01  8.00000000E-01  1.50000000E+00  1.50000000E+00
  8.00000000E-01  8.00000000E-01  1.50000000E+00  1.50000000E+00  8.00000000E-01
  8.00000000E-01  1.50000000E+00  1.50000000E+00  8.00000000E-01  8.00000000E-01
  1.50000000E+00  1.50000000E+00  8.00000000E-01  8.00000000E-01  1.50000000E+00
  1.50000000E+00  8.00000000E-01  8.00000000E-01  1.50000000E+00  1.50000000E+00
  8.00000000E-01  8.00000000E-01  1.50000000E+00  1.50000000E+00  8.00000000E-01
  8.00000000E-01  1.50000000E+00  1.50000000E+00  8.00000000E-01  8.00000000E-01
  1.50000000E+00  1.50000000E+00  8.00000000E-01  8.00000000E-01  1.50000000E+00
  1.50000000E+00  8.00000000E-01  8.00000000E-01  1.50000000E+00  1.50000000E+00
  8.00000000E-01  8.00000000E-01  1.50000000E+00  1.50000000E+00  8.00000000E-01
  8.00000000E-01  1.50000000E+00  1.50000000E+00  8.00000000E-01  8.00000000E-01
  1.50000000E+00  1.50000000E+00  8.00000000E-01  8.00000000E-01  1.50000000E+00
  1.50000000E+00  8.00000000E-01  8.00000000E-01  1.50000000E+00  1.50000000E+00
  8.00000000E-01  8.00000000E-01  1.50000000E+00  1.50000000E+00  8.00000000E-01
  8.00000000E-01  1.50000000E+00  1.50000000E+00  8.00000000E-01  8.00000000E-01
  1.50000000E+00  1.50000000E+00  8.00000000E-01  8.00000000E-01  1.50000000E+00
  1.50000000E+00  8.00000000E-01  8.00000000E-01  1.50000000E+00  1.50000000E+00
  8.00000000E-01  8.00000000E-01  1.50000000E+00  1.50000000E+00  8.00000000E-01
  8.00000000E-01  1.50000000E+00  1.50000000E+00  8.00000000E-01  8.00000000E-01
  1.50000000E+00  1.50000000E+00  8.00000000E-01  8.00000000E-01  1.50000000E+00
  1.50000000E+00  8.00000000E-01  8.00000000E-01  1.50000000E+00  1.50000000E+00
  8.00000000E-01  8.00000000E-01  1.50000000E+00  1.50000000E+00  8.00000000E-01
  8.00000000E-01  1.50000000E+00  1.50000000E+00  8.00000000E-01  8.00000000E-01
  1.50000000E+00  1.50000000E+00  8.00000000E-01  8.00000000E-01  1.50000000E+00
  1.50000000E+00  8.00000000E-01  8.00000000E-01  1.50000000E+00  1.50000000E+00
  8.00000000E-01  8.00000000E-01  1.50000000E+00  1.50000000E+00  8.00000000E-01
  8.00000000E-01  1.50000000E+00  1.50000000E+00  8.00000000E-01  8.00000000E-01
  1.50000000E+00  1.50000000E+00  8.00000000E-01  8.00000000E-01  1.50000000E+00
  1.50000000E+00  8.00000000E-01  8.00000000E-01  1.50000000E+00  1.50000000E+00
  8.00000000E-01  8.00000000E-01  1.50000000E+00  1.50000000E+00  8.00000000E-01
  8.00000000E-01  1.50000000E+00  1.50000000E+00  8.00000000E-01  8.00000000E-01
  1.50000000E+00  1.50000000E+00  8.00000000E-01  8.00000000E-01  1.50000000E+00
  1.50000000E+00  8.00000000E-01  8.00000000E-01  1.50000000E+00  1.50000000E+00
  8.00000000E-01  8.00000000E-01  1.50000000E+00  1.50000000E+00  8.00000000E-01
  8.00000000E-01  1.50000000E+00  1.50000000E+00  8.00000000E-01  8.00000000E-01
  1.50000000E+00  1.50000000E+00  8.00000000E-01  8.00000000E-01  1.50000000E+00
  1.50000000E+00  8.00000000E-01  8.00000000E-01  1.50000000E+00  1.50000000E+00
  8.00000000E-01  8.00000000E-01  1.50000000E+00  1.50000000E+00  8.00000000E-01
  8.00000000E-01  1.50000000E+00  1.50000000E+00  8.00000000E-01  8.00000000E-01
  1.50000000E+00  1.50000000E+00  8.00000000E-01  8.00000000E-01  1.50000000E+00
  1.50000000E+00  8.00000000E-01  8.00000000E-01  1.50000000E+00  1.50000000E+00
  8.00000000E-01  8.00000000E-01  1.50000000E+00  1.50000000E+00  8.00000000E-01
  8.00000000E-01  1.50000000E+00  1.50000000E+00  8.00000000E-01  8.00000000E-01
  1.50000000E+00  1.50000000E+00  8.00000000E-01  8.00000000E-01  1.50000000E+00
  1.50000000E+00  8.00000000E-01  8.00000000E-01  1.50000000E+00  1.50000000E+00
  8.00000000E-01  8.00000000E-01  1.50000000E+00  1.50000000E+00  8.00000000E-01
  8.00000000E-01  1.50000000E+00  1.50000000E+00  8.00000000E-01  8.00000000E-01
  1.50000000E+00  1.50000000E+00  8.00000000E-01  8.00000000E-01  1.50000000E+00
  1.50000000E+00  8.00000000E-01  8.00000000E-01  1.50000000E+00  1.50000000E+00
  8.00000000E-01  8.00000000E-01  1.50000000E+00  1.50000000E+00  8.00000000E-01
  8.00000000E-01  1.50000000E+00  1.50000000E+00  8.00000000E-01  8.00000000E-01
  1.50000000E+00  1.50000000E+00  8.00000000E-01  8.00000000E-01  1.50000000E+00
  1.50000000E+00  8.00000000E-01  8.00000000E-01  1.50000000E+00  1.50000000E+00
  8.00000000E-01  8.00000000E-01  1.50000000E+00  1.50000000E+00  8.00000000E-01
  8.00000000E-01  1.50000000E+00  1.50000000E+00  8.00000000E-01  8.00000000E-01
  1.50000000E+00  1.50000000E+00  8.00000000E-01  8.00000000E-01  1.50000000E+00
  1.50000000E+00  8.00000000E-01  8.00000000E-01  1.50000000E+00  1.50000000E+00
  8.00000000E-01  8.00000000E-01  1.50000000E+00  1.50000000E+00  8.00000000E-01
  8.00000000E-01  1.50000000E+00  1.50000000E+00  8.00000000E-01  8.00000000E-01
  1.50000000E+00  1.50000000E+00  8.00000000E-01  8.00000000E-01  1.50000000E+00
  1.50000000E+00  8.00000000E-01  8.00000000E-01  1.50000000E+00  1.50000000E+00
  8.00000000E-01  8.00000000E-01  1.50000000E+00  1.50000000E+00  8.00000000E-01
  8.00000000E-01  1.50000000E+00  1.50000000E+00  8.00000000E-01  8.00000000E-01
  1.50000000E+00  1.50000000E+00  8.00000000E-01  8.00000000E-01  1.50000000E+00
  1.50000000E+00  8.00000000E-01  8.00000000E-01  1.50000000E+00  1.50000000E+00
  8.00000000E-01  8.00000000E-01  1.50000000E+00  1.50000000E+00  8.00000000E-01
  8.00000000E-01  1.50000000E+00  1.50000000E+00  8.00000000E-01  8.00000000E-01
  1.50000000E+00  1.50000000E+00  8.00000000E-01  8.00000000E-01  1.50000000E+00
  1.50000000E+00  8.00000000E-01  8.00000000E-01  1.50000000E+00  1.50000000E+00
  8.00000000E-01  8.00000000E-01  1.50000000E+00  1.50000000E+00  8.00000000E-01
  8.00000000E-01  1.50000000E+00  1.50000000E+00  8.00000000E-01  8.00000000E-01
  1.50000000E+00  1.50000000E+00  8.00000000E-01  8.00000000E-01  1.50000000E+00
  1.50000000E+00  8.00000000E-01  8.00000000E-01  1.50000000E+00  1.50000000E+00
  8.00000000E-01  8.00000000E-01  1.50000000E+00  1.50000000E+00  8.00000000E-01
  8.00000000E-01  1.50000000E+00  1.50000000E+00  8.00000000E-01  8.00000000E-01
  1.50000000E+00  1.50000000E+00  8.00000000E-01  8.00000000E-01  1.50000000E+00
  1.50000000E+00  8.00000000E-01  8.00000000E-01  1.50000000E+00  1.50000000E+00
  8.00000000E-01  8.00000000E-01  1.50000000E+00  1.50000000E+00  8.00000000E-01
  8.00000000E-01  1.50000000E+00  1.50000000E+00  8.00000000E-01  8.00000000E-01
  1.50000000E+00  1.50000000E+00  8.00000000E-01  8.00000000E-01  1.50000000E+00
  1.50000000E+00  8.00000000E-01  8.00000000E-01  1.50000000E+00  1.50000000E+00
  8.00000000E-01  8.00000000E-01  1.50000000E+00  1.50000000E+00  8.00000000E-01
  8.00000000E-01  1.50000000E+00  1.50000000E+00  8.00000000E-01  8.00000000E-01
  1.50000000E+00  1.50000000E+00  8.00000000E-01  8.00000000E-01  1.50000000E+00
  1.50000000E+00  8.00000000E-01  8.00000000E-01  1.50000000E+00  1.50000000E+00
  8.00000000E-01  8.00000000E-01  1.50000000E+00  1.50000000E+00  8.00000000E-01
  8.00000000E-01  1.50000000E+00  1.50000000E+00  8.00000000E-01  8.00000000E-01
  1.50000000E+00  1.50000000E+00  8.00000000E-01  8.00000000E-01  1.50000000E+00
  1.50000000E+00  8.00000000E-01  8.00000000E-01  1.50000000E+00  1.50000000E+00
  8.00000000E-01  8.00000000E-01  1.50000000E+00  1.50000000E+00  8.00000000E-01
  8.00000000E-01  1.50000000E+00  1.50000000E+00  8.00000000E-01  8.00000000E-01
  1.50000000E+00  1.50000000E+00  8.00000000E-01  8.00000000E-01  1.50000000E+00
  1.50000000E+00  8.00000000E-01  8.00000000E-01  1.50000000E+00  1.50000000E+00
  8.00000000E-01  8.00000000E-01  1.50000000E+00  1.50000000E+00  8.00000000E-01
  8.00000000E-01  1.50000000E+00  1.50000000E+00  8.00000000E-01  8.00000000E-01
  1.50000000E+00  1.50000000E+00  8.00000000E-01  8.00000000E-01  1.50000000E+00
  1.50000000E+00  8.00000000E-01  8.00000000E-01  1.50000000E+00  1.50000000E+00
  8.00000000E-01  8.00000000E-01  1.50000000E+00  1.50000000E+00  8.00000000E-01
  8.00000000E-01  1.50000000E+00  1.50000000E+00  8.00000000E-01  8.00000000E-01
  1.50000000E+00  1.50000000E+00  8.00000000E-01  8.00000000E-01  1.50000000E+00
  1.50000000E+00  8.00000000E-01  8.00000000E-01  1.50000000E+00  1.50000000E+00
  8.00000000E-01  8.00000000E-01  1.50000000E+00  1.50000000E+00  8.00000000E-01
  8.00000000E-01  1.50000000E+00  1.50000000E+00  8.00000000E-01  8.00000000E-01
  1.50000000E+00  1.50000000E+00  8.00000000E-01  8.00000000E-01  1.50000000E+00
  1.50000000E+00  8.00000000E-01  8.00000000E-01  1.50000000E+00  1.50000000E+00
  8.00000000E-01  8.00000000E-01  1.50000000E+00  1.50000000E+00  8.00000000E-01
  8.00000000E-01  1.50000000E+00  1.50000000E+00  8.00000000E-01  8.00000000E-01
  1.50000000E+00  1.50000000E+00  8.00000000E-01  8.00000000E-01  1.50000000E+00
  1.50000000E+00  8.00000000E-01  8.00000000E-01  1.50000000E+00  1.50000000E+00
  8.00000000E-01  8.00000000E-01  1.50000000E+00  1.50000000E+00  8.00000000E-01
  8.00000000E-01  1.50000000E+00  1.50000000E+00  8.00000000E-01  8.00000000E-01
  1.50000000E+00  1.50000000E+00  8.00000000E-01  8.00000000E-01  1.50000000E+00
  1.50000000E+00  8.00000000E-01  8.00000000E-01  1.50000000E+00  1.50000000E+00
  8.00000000E-01  8.00000000E-01  1.50000000E+00  1.50000000E+00  8.00000000E-01
  8.00000000E-01  1.50000000E+00  1.50000000E+00  8.00000000E-01  8.00000000E-01
  1.50000000E+00  1.50000000E+00  8.00000000E-01  8.00000000E-01  1.50000000E+00
  1.50000000E+00  8.00000000E-01  8.00000000E-01  1.50000000E+00  1.50000000E+00
  8.00000000E-01  8.00000000E-01  1.50000000E+00  1.50000000E+00  8.00000000E-01
  8.00000000E-01  1.50000000E+00  1.50000000E+00  8.00000000E-01  8.00000000E-01
  1.50000000E+00  1.50000000E+00  8.00000000E-01  8.00000000E-01  1.50000000E+00
  1.50000000E+00  8.00000000E-01  8.00000000E-01  1.50000000E+00  1.50000000E+00
  8.00000000E-01  8.00000000E-01  1.50000000E+00  1.50000000E+00  8.00000000E-01
  8.00000000E-01  1.50000000E+00  1.50000000E+00  8.00000000E-01  8.00000000E-01
  1.50000000E+00  1.50000000E+00  8.00000000E-01  8.00000000E-01  1.50000000E+00
  1.50000000E+00  8.00000000E-01  8.00000000E-01  1.50000000E+00  1.50000000E+00
  8.00000000E-01  8.00000000E-01  1.50000000E+00  1.50000000E+00  8.00000000E-01
  8.00000000E-01  1.50000000E+00  1.50000000E+00  8.00000000E-01  8.00000000E-01
  1.50000000E+00  1.50000000E+00  8.00000000E-01  8.00000000E-01  1.50000000E+00
  1.50000000E+00  8.00000000E-01  8.00000000E-01  1.50000000E+00  1.50000000E+00
  8.00000000E-01  8.00000000E-01  1.50000000E+00  1.50000000E+00  8.00000000E-01
  8.00000000E-01  1.50000000E+00  1.50000000E+00  8.00000000E-01  8.00000000E-01
  1.50000000E+00  1.50000000E+00  8.00000000E-01  8.00000000E-01  1.50000000E+00
  1.50000000E+00  8.00000000E-01  8.00000000E-01  1.50000000E+00  1.50000000E+00
  8.00000000E-01  8.00000000E-01  1.50000000E+00  1.50000000E+00  8.00000000E-01
  8.00000000E-01  1.50000000E+00  1.50000000E+00  8.00000000E-01  8.00000000E-01
  1.50000000E+00  1.50000000E+00  8.00000000E-01  8.00000000E-01  1.50000000E+00
  1.50000000E+00  8.00000000E-01  8.00000000E-01  1.50000000E+00  1.50000000E+00
  8.00000000E-01  8.00000000E-01  1.50000000E+00  1.50000000E+00  8.00000000E-01
  8.00000000E-01  1.50000000E+00  1.50000000E+00  8.00000000E-01  8.00000000E-01
  1.50000000E+00  1.50000000E+00  8.00000000E-01  8.00000000E-01  1.50000000E+00
  1.50000000E+00  8.00000000E-01  8.00000000E-01  1.50000000E+00  1.50000000E+00
  8.00000000E-01  8.00000000E-01  1.50000000E+00  1.50000000E+00  8.00000000E-01
  8.00000000E-01  1.50000000E+00  1.50000000E+00  8.00000000E-01  8.00000000E-01
  1.50000000E+00  1.50000000E+00  8.00000000E-01  8.00000000E-01  1.50000000E+00
  1.50000000E+00  8.00000000E-01  8.00000000E-01  1.50000000E+00  1.50000000E+00
  8.00000000E-01  8.00000000E-01  1.50000000E+00  1.50000000E+00  8.00000000E-01
  8.00000000E-01  1.50000000E+00  1.50000000E+00  8.00000000E-01  8.00000000E-01
  1.50000000E+00  1.50000000E+00  8.00000000E-01  8.00000000E-01  1.50000000E+00
  1.50000000E+00  8.00000000E-01  8.00000000E-01  1.50000000E+00  1.50000000E+00
  8.00000000E-01  8.00000000E-01  1.50000000E+00  1.50000000E+00  8.00000000E-01
  8.00000000E-01  1.50000000E+00  1.50000000E+00  8.00000000E-01  8.00000000E-01
  1.50000000E+00  1.50000000E+00  8.00000000E-01  8.00000000E-01  1.50000000E+00
  1.50000000E+00  8.00000000E-01  8.00000000E-01  1.50000000E+00  1.50000000E+00
  8.00000000E-01  8.00000000E-01  1.50000000E+00  1.50000000E+00  8.00000000E-01
  8.00000000E-01  1.50000000E+00  1.50000000E+00  8.00000000E-01  8.00000000E-01
  1.50000000E+00  1.50000000E+00  8.00000000E-01  8.00000000E-01  1.50000000E+00
  1.50000000E+00  8.00000000E-01  8.00000000E-01  1.50000000E+00  1.50000000E+00
  8.00000000E-01  8.00000000E-01  1.50000000E+00  1.50000000E+00  8.00000000E-01
  8.00000000E-01  1.50000000E+00  1.50000000E+00  8.00000000E-01  8.00000000E-01
  1.50000000E+00  1.50000000E+00  8.00000000E-01  8.00000000E-01  1.50000000E+00
  1.50000000E+00  8.00000000E-01  8.00000000E-01  1.50000000E+00  1.50000000E+00
  8.00000000E-01  8.00000000E-01  1.50000000E+00  1.50000000E+00  8.00000000E-01
  8.00000000E-01  1.50000000E+00  1.50000000E+00  8.00000000E-01  8.00000000E-01
  1.50000000E+00  1.50000000E+00  8.00000000E-01  8.00000000E-01  1.50000000E+00
  1.50000000E+00  8.00000000E-01  8.00000000E-01  1.50000000E+00  1.50000000E+00
  8.00000000E-01  8.00000000E-01  1.50000000E+00  1.50000000E+00  8.00000000E-01
  8.00000000E-01  1.50000000E+00  1.50000000E+00  8.00000000E-01  8.00000000E-01
  1.50000000E+00  1.50000000E+00  8.00000000E-01  8.00000000E-01  1.50000000E+00
  1.50000000E+00  8.00000000E-01  8.00000000E-01  1.50000000E+00  1.50000000E+00
  8.00000000E-01  8.00000000E-01  1.50000000E+00  1.50000000E+00  8.00000000E-01
  8.00000000E-01  1.50000000E+00  1.50000000E+00  8.00000000E-01  8.00000000E-01
  1.50000000E+00  1.50000000E+00  8.00000000E-01  8.00000000E-01  1.50000000E+00
  1.50000000E+00  8.00000000E-01  8.00000000E-01  1.50000000E+00  1.50000000E+00
  8.00000000E-01  8.00000000E-01  1.50000000E+00  1.50000000E+00  8.00000000E-01
  8.00000000E-01  1.50000000E+00  1.50000000E+00  8.00000000E-01  8.00000000E-01
  1.50000000E+00  1.50000000E+00  8.00000000E-01  8.00000000E-01  1.50000000E+00
  1.50000000E+00  8.00000000E-01  8.00000000E-01  1.50000000E+00  1.50000000E+00
  8.00000000E-01  8.00000000E-01  1.50000000E+00  1.50000000E+00  8.00000000E-01
  8.00000000E-01  1.50000000E+00  1.50000000E+00  8.00000000E-01  8.00000000E-01
  1.50000000E+00  1.50000000E+00  8.00000000E-01  8.00000000E-01  1.50000000E+00
  1.50000000E+00  8.00000000E-01  8.00000000E-01  1.50000000E+00  1.50000000E+00
  8.00000000E-01  8.00000000E-01  1.50000000E+00  1.50000000E+00  8.00000000E-01
  8.00000000E-01  1.50000000E+00  1.50000000E+00  8.00000000E-01  8.00000000E-01
  1.50000000E+00  1.50000000E+00  8.00000000E-01  8.00000000E-01  1.50000000E+00
  1.50000000E+00  8.00000000E-01  8.00000000E-01  1.50000000E+00  1.50000000E+00
  8.00000000E-01  8.00000000E-01  1.50000000E+00  1.50000000E+00  8.00000000E-01
  8.00000000E-01  1.50000000E+00  1.50000000E+00  8.00000000E-01  8.00000000E-01
  1.50000000E+00  1.50000000E+00  8.00000000E-01  8.00000000E-01  1.50000000E+00
  1.50000000E+00  8.00000000E-01  8.00000000E-01  1.50000000E+00  1.50000000E+00
  8.00000000E-01  8.00000000E-01  1.50000000E+00  1.50000000E+00  8.00000000E-01
  8.00000000E-01  1.50000000E+00  1.50000000E+00  8.00000000E-01  8.00000000E-01
  1.50000000E+00  1.50000000E+00  8.00000000E-01  8.00000000E-01  1.50000000E+00
  1.50000000E+00  8.00000000E-01  8.00000000E-01  1.50000000E+00  1.50000000E+00
  8.00000000E-01  8.00000000E-01  1.50000000E+00  1.50000000E+00  8.00000000E-01
  8.00000000E-01  1.50000000E+00  1.50000000E+00  8.00000000E-01  8.00000000E-01
  1.50000000E+00  1.50000000E+00  8.00000000E-01  8.00000000E-01  1.50000000E+00
  1.50000000E+00  8.00000000E-01  8.00000000E-01  1.50000000E+00  1.50000000E+00
  8.00000000E-01  8.00000000E-01  1.50000000E+00  1.50000000E+00  8.00000000E-01
  8.00000000E-01  1.50000000E+00  1.50000000E+00  8.00000000E-01  8.00000000E-01
  1.50000000E+00  1.50000000E+00  8.00000000E-01  8.00000000E-01  1.50000000E+00
  1.50000000E+00  8.00000000E-01  8.00000000E-01  1.50000000E+00  1.50000000E+00
  8.00000000E-01  8.00000000E-01  1.50000000E+00  1.50000000E+00  8.00000000E-01
  8.00000000E-01  1.50000000E+00  1.50000000E+00  8.00000000E-01  8.00000000E-01
  1.50000000E+00  1.50000000E+00  8.00000000E-01  8.00000000E-01  1.50000000E+00
  1.50000000E+00  8.00000000E-01  8.00000000E-01  1.50000000E+00  1.50000000E+00
  8.00000000E-01  8.00000000E-01  1.50000000E+00  1.50000000E+00  8.00000000E-01
  8.00000000E-01  1.50000000E+00  1.50000000E+00  8.00000000E-01  8.00000000E-01
  1.50000000E+00  1.50000000E+00  8.00000000E-01  8.00000000E-01  1.50000000E+00
  1.50000000E+00  8.00000000E-01  8.00000000E-01  1.50000000E+00  1.50000000E+00
  8.00000000E-01  8.00000000E-01  1.50000000E+00  1.50000000E+00  8.00000000E-01
  8.00000000E-01  1.50000000E+00  1.50000000E+00  8.00000000E-01  8.00000000E-01
  1.50000000E+00  1.50000000E+00  8.00000000E-01  8.00000000E-01  1.50000000E+00
  1.50000000E+00  8.00000000E-01  8.00000000E-01  1.50000000E+00  1.50000000E+00
  8.00000000E-01  8.00000000E-01  1.50000000E+00  1.50000000E+00  8.00000000E-01
  8.00000000E-01  1.50000000E+00  1.50000000E+00  8.00000000E-01  8.00000000E-01
  1.50000000E+00  1.50000000E+00  8.00000000E-01  8.00000000E-01  1.50000000E+00
  1.50000000E+00  8.00000000E-01  8.00000000E-01  1.50000000E+00  1.50000000E+00
  8.00000000E-01  8.00000000E-01  1.50000000E+00  1.50000000E+00  8.00000000E-01
  8.00000000E-01  1.50000000E+00  1.50000000E+00  8.00000000E-01  8.00000000E-01
  1.50000000E+00  1.50000000E+00  8.00000000E-01  8.00000000E-01  1.50000000E+00
  1.50000000E+00  8.00000000E-01  8.00000000E-01  1.50000000E+00  1.50000000E+00
  8.00000000E-01  8.00000000E-01  1.50000000E+00  1.50000000E+00  8.00000000E-01
  8.00000000E-01  1.50000000E+00  1.50000000E+00  8.00000000E-01  8.00000000E-01
  1.50000000E+00  1.50000000E+00  8.00000000E-01  8.00000000E-01  1.50000000E+00
  1.50000000E+00  8.00000000E-01  8.00000000E-01  1.50000000E+00  1.50000000E+00
  8.00000000E-01  8.00000000E-01  1.50000000E+00  1.50000000E+00  8.00000000E-01
  8.00000000E-01  1.50000000E+00  1.50000000E+00  8.00000000E-01  8.00000000E-01
  1.50000000E+00  1.50000000E+00  8.00000000E-01  8.00000000E-01  1.50000000E+00
  1.50000000E+00  8.00000000E-01  8.00000000E-01  1.50000000E+00  1.50000000E+00
  8.00000000E-01  8.00000000E-01  1.50000000E+00  1.50000000E+00  8.00000000E-01
  8.00000000E-01  1.50000000E+00  1.50000000E+00  8.00000000E-01  8.00000000E-01
  1.50000000E+00  1.50000000E+00  8.00000000E-01  8.00000000E-01  1.50000000E+00
  1.50000000E+00  8.00000000E-01  8.00000000E-01  1.50000000E+00  1.50000000E+00
  8.00000000E-01  8.00000000E-01  1.50000000E+00  1.50000000E+00  8.00000000E-01
  8.00000000E-01  1.50000000E+00  1.50000000E+00  8.00000000E-01  8.00000000E-01
  1.50000000E+00  1.50000000E+00  8.00000000E-01  8.00000000E-01  1.50000000E+00
  1.50000000E+00  8.00000000E-01  8.00000000E-01  1.50000000E+00  1.50000000E+00
  8.00000000E-01  8.00000000E-01  1.50000000E+00  1.50000000E+00  8.00000000E-01
  8.00000000E-01  1.50000000E+00  1.50000000E+00  8.00000000E-01  8.00000000E-01
  1.50000000E+00  1.50000000E+00  8.00000000E-01  8.00000000E-01  1.50000000E+00
  1.50000000E+00  8.00000000E-01  8.00000000E-01  1.50000000E+00  1.50000000E+00
  8.00000000E-01  8.00000000E-01  1.50000000E+00  1.50000000E+00  8.00000000E-01
  8.00000000E-01  1.50000000E+00  1.50000000E+00  8.00000000E-01  8.00000000E-01
  1.50000000E+00  1.50000000E+00  8.00000000E-01  8.00000000E-01  1.50000000E+00
  1.50000000E+00  8.00000000E-01  8.00000000E-01  1.50000000E+00  1.50000000E+00
  8.00000000E-01  8.00000000E-01  1.50000000E+00  1.50000000E+00  8.00000000E-01
  8.00000000E-01  1.50000000E+00  1.50000000E+00  8.00000000E-01  8.00000000E-01
  1.50000000E+00  1.50000000E+00  8.00000000E-01  8.00000000E-01  1.50000000E+00
  1.50000000E+00  8.00000000E-01  8.00000000E-01  1.50000000E+00  1.50000000E+00
  8.00000000E-01  8.00000000E-01  1.50000000E+00  1.50000000E+00  8.00000000E-01
  8.00000000E-01  1.50000000E+00  1.50000000E+00  8.00000000E-01  8.00000000E-01
  1.50000000E+00  1.50000000E+00  8.00000000E-01  8.00000000E-01  1.50000000E+00
  1.50000000E+00  8.00000000E-01  8.00000000E-01  1.50000000E+00  1.50000000E+00
  8.00000000E-01  8.00000000E-01  1.50000000E+00  1.50000000E+00  8.00000000E-01
  8.00000000E-01  1.50000000E+00  1.50000000E+00  8.00000000E-01  8.00000000E-01
  1.50000000E+00  1.50000000E+00  8.00000000E-01  8.00000000E-01  1.50000000E+00
  1.50000000E+00  8.00000000E-01  8.00000000E-01  1.50000000E+00  1.50000000E+00
  8.00000000E-01  8.00000000E-01  1.50000000E+00  1.50000000E+00  8.00000000E-01
  8.00000000E-01  1.50000000E+00  1.50000000E+00  8.00000000E-01  8.00000000E-01
  1.50000000E+00  1.50000000E+00  8.00000000E-01  8.00000000E-01  1.50000000E+00
  1.50000000E+00  8.00000000E-01  8.00000000E-01  1.50000000E+00  1.50000000E+00
  8.00000000E-01  8.00000000E-01  1.50000000E+00  1.50000000E+00  8.00000000E-01
  8.00000000E-01  1.50000000E+00  1.50000000E+00  8.00000000E-01  8.00000000E-01
  1.50000000E+00  1.50000000E+00  8.00000000E-01  8.00000000E-01  1.50000000E+00
  1.50000000E+00  8.00000000E-01  8.00000000E-01  1.50000000E+00  1.50000000E+00
  8.00000000E-01  8.00000000E-01  1.50000000E+00  1.50000000E+00  8.00000000E-01
  8.00000000E-01  1.50000000E+00  1.50000000E+00  8.00000000E-01  8.00000000E-01
  1.50000000E+00  1.50000000E+00  8.00000000E-01  8.00000000E-01  1.50000000E+00
  1.50000000E+00  8.00000000E-01  8.00000000E-01  1.50000000E+00  1.50000000E+00
  8.00000000E-01  8.00000000E-01  1.50000000E+00  1.50000000E+00  8.00000000E-01
  8.00000000E-01  1.50000000E+00  1.50000000E+00  8.00000000E-01  8.00000000E-01
  1.50000000E+00  1.50000000E+00  8.00000000E-01  8.00000000E-01  1.50000000E+00
  1.50000000E+00  8.00000000E-01  8.00000000E-01  1.50000000E+00  1.50000000E+00
  8.00000000E-01  8.00000000E-01  1.50000000E+00  1.50000000E+00  8.00000000E-01
  8.00000000E-01  1.50000000E+00  1.50000000E+00  8.00000000E-01  8.00000000E-01
  1.50000000E+00  1.50000000E+00  8.00000000E-01  8.00000000E-01  1.50000000E+00
  1.50000000E+00  8.00000000E-01  8.00000000E-01  1.50000000E+00  1.50000000E+00
  8.00000000E-01  8.00000000E-01  1.50000000E+00  1.50000000E+00  8.00000000E-01
  8.00000000E-01  1.50000000E+00  1.50000000E+00  8.00000000E-01  8.00000000E-01
  1.50000000E+00  1.50000000E+00  8.00000000E-01  8.00000000E-01  1.50000000E+00
  1.50000000E+00  8.00000000E-01  8.00000000E-01  1.50000000E+00  1.50000000E+00
  8.00000000E-01  8.00000000E-01  1.50000000E+00  1.50000000E+00  8.00000000E-01
  8.00000000E-01  1.50000000E+00  1.50000000E+00  8.00000000E-01  8.00000000E-01
  1.50000000E+00  1.50000000E+00  8.00000000E-01  8.00000000E-01  1.50000000E+00
  1.50000000E+00  8.00000000E-01  8.00000000E-01  1.50000000E+00  1.50000000E+00
  8.00000000E-01  8.00000000E-01  1.50000000E+00  1.50000000E+00  8.00000000E-01
  8.00000000E-01  1.50000000E+00  1.50000000E+00  8.00000000E-01  8.00000000E-01
  1.50000000E+00  1.50000000E+00  8.00000000E-01  8.00000000E-01  1.50000000E+00
  1.50000000E+00  8.00000000E-01  8.00000000E-01  1.50000000E+00  1.50000000E+00
  8.00000000E-01  8.00000000E-01  1.50000000E+00  1.50000000E+00  8.00000000E-01
  8.00000000E-01  1.50000000E+00  1.50000000E+00  8.00000000E-01  8.00000000E-01
  1.50000000E+00  1.50000000E+00  8.00000000E-01  8.00000000E-01  1.50000000E+00
  1.50000000E+00  8.00000000E-01  8.00000000E-01  1.50000000E+00  1.50000000E+00
  8.00000000E-01  8.00000000E-01  1.50000000E+00  1.50000000E+00  8.00000000E-01
  8.00000000E-01  1.50000000E+00  1.50000000E+00  8.00000000E-01  8.00000000E-01
  1.50000000E+00  1.50000000E+00  8.00000000E-01  8.00000000E-01  1.50000000E+00
  1.50000000E+00  8.00000000E-01  8.00000000E-01  1.50000000E+00  1.50000000E+00
  8.00000000E-01  8.00000000E-01  1.50000000E+00  1.50000000E+00  8.00000000E-01
  8.00000000E-01  1.50000000E+00  1.50000000E+00  8.00000000E-01  8.00000000E-01
  1.50000000E+00  1.50000000E+00  8.00000000E-01  8.00000000E-01  1.50000000E+00
  1.50000000E+00  8.00000000E-01  8.00000000E-01  1.50000000E+00  1.50000000E+00
  8.00000000E-01  8.00000000E-01  1.50000000E+00  1.50000000E+00  8.00000000E-01
  8.00000000E-01  1.50000000E+00  1.50000000E+00  8.00000000E-01  8.00000000E-01
  1.50000000E+00  1.50000000E+00  8.00000000E-01  8.00000000E-01  1.50000000E+00
  1.50000000E+00  8.00000000E-01  8.00000000E-01  1.50000000E+00  1.50000000E+00
  8.00000000E-01  8.00000000E-01  1.50000000E+00  1.50000000E+00  8.00000000E-01
  8.00000000E-01  1.50000000E+00  1.50000000E+00  8.00000000E-01  8.00000000E-01
  1.50000000E+00  1.50000000E+00  8.00000000E-01  8.00000000E-01  1.50000000E+00
  1.50000000E+00  8.00000000E-01  8.00000000E-01  1.50000000E+00  1.50000000E+00
  8.00000000E-01  8.00000000E-01  1.50000000E+00  1.50000000E+00  8.00000000E-01
  8.00000000E-01  1.50000000E+00  1.50000000E+00  8.00000000E-01  8.00000000E-01
  1.50000000E+00  1.50000000E+00  8.00000000E-01  8.00000000E-01  1.50000000E+00
  1.50000000E+00  8.00000000E-01  8.00000000E-01  1.50000000E+00  1.50000000E+00
  8.00000000E-01  8.00000000E-01  1.50000000E+00  1.50000000E+00  8.00000000E-01
  8.00000000E-01  1.50000000E+00  1.50000000E+00  8.00000000E-01  8.00000000E-01
  1.50000000E+00  1.50000000E+00  8.00000000E-01  8.00000000E-01  1.50000000E+00
  1.50000000E+00  8.00000000E-01  8.00000000E-01  1.50000000E+00  1.50000000E+00
  8.00000000E-01  8.00000000E-01  1.50000000E+00  1.50000000E+00  8.00000000E-01
  8.00000000E-01  1.50000000E+00  1.50000000E+00  8.00000000E-01  8.00000000E-01
  1.50000000E+00  1.50000000E+00  8.00000000E-01  8.00000000E-01  1.50000000E+00
  1.50000000E+00  8.00000000E-01  8.00000000E-01  1.50000000E+00  1.50000000E+00
  8.00000000E-01  8.00000000E-01  1.50000000E+00  1.50000000E+00  8.00000000E-01
  8.00000000E-01  1.50000000E+00  1.50000000E+00  8.00000000E-01  8.00000000E-01
  1.50000000E+00  1.50000000E+00  8.00000000E-01  8.00000000E-01  1.50000000E+00
  1.50000000E+00  8.00000000E-01  8.00000000E-01  1.50000000E+00  1.50000000E+00
  8.00000000E-01  8.00000000E-01  1.50000000E+00  1.50000000E+00  8.00000000E-01
  8.00000000E-01  1.50000000E+00  1.50000000E+00  8.00000000E-01  8.00000000E-01
  1.50000000E+00  1.50000000E+00  8.00000000E-01  8.00000000E-01  1.50000000E+00
  1.50000000E+00  8.00000000E-01  8.00000000E-01  1.50000000E+00  1.50000000E+00
  8.00000000E-01  8.00000000E-01  1.50000000E+00  1.50000000E+00  8.00000000E-01
  8.00000000E-01  1.50000000E+00  1.50000000E+00  8.00000000E-01  8.00000000E-01
  1.50000000E+00  1.50000000E+00  8.00000000E-01  8.00000000E-01  1.50000000E+00
  1.50000000E+00  8.00000000E-01  8.00000000E-01  1.50000000E+00  1.50000000E+00
  8.00000000E-01  8.00000000E-01  1.50000000E+00  1.50000000E+00  8.00000000E-01
  8.00000000E-01  1.50000000E+00  1.50000000E+00  8.00000000E-01  8.00000000E-01
  1.50000000E+00  1.50000000E+00  8.00000000E-01  8.00000000E-01  1.50000000E+00
  1.50000000E+00  8.00000000E-01  8.00000000E-01  1.50000000E+00  1.50000000E+00
  8.00000000E-01  8.00000000E-01  1.50000000E+00  1.50000000E+00  8.00000000E-01
  8.00000000E-01  1.50000000E+00  1.50000000E+00  8.00000000E-01  8.00000000E-01
  1.50000000E+00  1.50000000E+00  8.00000000E-01  8.00000000E-01  1.50000000E+00
  1.50000000E+00  8.00000000E-01  8.00000000E-01  1.50000000E+00  1.50000000E+00
  8.00000000E-01  8.00000000E-01  1.50000000E+00  1.50000000E+00  8.00000000E-01
  8.00000000E-01  1.50000000E+00  1.50000000E+00  8.00000000E-01  8.00000000E-01
  1.50000000E+00  1.50000000E+00  8.00000000E-01  8.00000000E-01  1.50000000E+00
  1.50000000E+00  8.00000000E-01  8.00000000E-01  1.50000000E+00  1.50000000E+00
  8.00000000E-01  8.00000000E-01  1.50000000E+00  1.50000000E+00  8.00000000E-01
  8.00000000E-01  1.50000000E+00  1.50000000E+00  8.00000000E-01  8.00000000E-01
  1.50000000E+00  1.50000000E+00  8.00000000E-01  8.00000000E-01  1.50000000E+00
  1.50000000E+00  8.00000000E-01  8.00000000E-01  1.50000000E+00  1.50000000E+00
  8.00000000E-01  8.00000000E-01  1.50000000E+00  1.50000000E+00  8.00000000E-01
  8.00000000E-01  1.50000000E+00  1.50000000E+00  8.00000000E-01  8.00000000E-01
  1.50000000E+00  1.50000000E+00  8.00000000E-01  8.00000000E-01  1.50000000E+00
  1.50000000E+00  8.00000000E-01  8.00000000E-01  1.50000000E+00  1.50000000E+00
  8.00000000E-01  8.00000000E-01  1.50000000E+00  1.50000000E+00  8.00000000E-01
  8.00000000E-01  1.50000000E+00  1.50000000E+00  8.00000000E-01  8.00000000E-01
  1.50000000E+00  1.50000000E+00  8.00000000E-01  8.00000000E-01  1.50000000E+00
  1.50000000E+00  8.00000000E-01  8.00000000E-01  1.50000000E+00  1.50000000E+00
  8.00000000E-01  8.00000000E-01  1.50000000E+00  1.50000000E+00  8.00000000E-01
  8.00000000E-01  1.50000000E+00  1.50000000E+00  8.00000000E-01  8.00000000E-01
  1.50000000E+00  1.50000000E+00  8.00000000E-01  8.00000000E-01  1.50000000E+00
  1.50000000E+00  8.00000000E-01  8.00000000E-01  1.50000000E+00  1.50000000E+00
  8.00000000E-01  8.00000000E-01  1.50000000E+00  1.50000000E+00  8.00000000E-01
  8.00000000E-01  1.50000000E+00  1.50000000E+00  8.00000000E-01  8.00000000E-01
  1.50000000E+00  1.50000000E+00  8.00000000E-01  8.00000000E-01  1.50000000E+00
  1.50000000E+00  8.00000000E-01  8.00000000E-01  1.50000000E+00  1.50000000E+00
  8.00000000E-01  8.00000000E-01  1.50000000E+00  1.50000000E+00  8.00000000E-01
  8.00000000E-01  1.50000000E+00  1.50000000E+00  8.00000000E-01  8.00000000E-01
  1.50000000E+00  1.50000000E+00  8.00000000E-01  8.00000000E-01  1.50000000E+00
  1.50000000E+00  8.00000000E-01  8.00000000E-01  1.50000000E+00  1.50000000E+00
  8.00000000E-01  8.00000000E-01  1.50000000E+00  1.50000000E+00  8.00000000E-01
  8.00000000E-01  1.50000000E+00  1.50000000E+00  8.00000000E-01  8.00000000E-01
  1.50000000E+00  1.50000000E+00  8.00000000E-01  8.00000000E-01  1.50000000E+00
  1.50000000E+00  8.00000000E-01  8.00000000E-01  1.50000000E+00  1.50000000E+00
  8.00000000E-01  8.00000000E-01  1.50000000E+00  1.50000000E+00  8.00000000E-01
  8.00000000E-01  1.50000000E+00  1.50000000E+00  8.00000000E-01  8.00000000E-01
  1.50000000E+00  1.50000000E+00  8.00000000E-01  8.00000000E-01  1.50000000E+00
  1.50000000E+00  8.00000000E-01  8.00000000E-01  1.50000000E+00  1.50000000E+00
  8.00000000E-01  8.00000000E-01  1.50000000E+00  1.50000000E+00  8.00000000E-01
  8.00000000E-01  1.50000000E+00  1.50000000E+00  8.00000000E-01  8.00000000E-01
  1.50000000E+00  1.50000000E+00  8.00000000E-01  8.00000000E-01  1.50000000E+00
  1.50000000E+00  8.00000000E-01  8.00000000E-01  1.50000000E+00  1.50000000E+00
  8.00000000E-01  8.00000000E-01  1.50000000E+00  1.50000000E+00  8.00000000E-01
  8.00000000E-01  1.50000000E+00  1.50000000E+00  8.00000000E-01  8.00000000E-01
  1.50000000E+00  1.50000000E+00  8.00000000E-01  8.00000000E-01  1.50000000E+00
  1.50000000E+00  8.00000000E-01  8.00000000E-01  1.50000000E+00  1.50000000E+00
  8.00000000E-01  8.00000000E-01  1.50000000E+00  1.50000000E+00  8.00000000E-01
  8.00000000E-01  1.50000000E+00  1.50000000E+00  8.00000000E-01  8.00000000E-01
  1.50000000E+00  1.50000000E+00  8.00000000E-01  8.00000000E-01  1.50000000E+00
  1.50000000E+00  8.00000000E-01  8.00000000E-01  1.50000000E+00  1.50000000E+00
  8.00000000E-01  8.00000000E-01  1.50000000E+00  1.50000000E+00  8.00000000E-01
  8.00000000E-01  1.50000000E+00  1.50000000E+00  8.00000000E-01  8.00000000E-01
  1.50000000E+00  1.50000000E+00  8.00000000E-01  8.00000000E-01  1.50000000E+00
  1.50000000E+00  8.00000000E-01  8.00000000E-01  1.50000000E+00  1.50000000E+00
  8.00000000E-01  8.00000000E-01  1.50000000E+00  1.50000000E+00  8.00000000E-01
  8.00000000E-01  1.50000000E+00  1.50000000E+00  8.00000000E-01  8.00000000E-01
  1.50000000E+00  1.50000000E+00  8.00000000E-01  8.00000000E-01  1.50000000E+00
  1.50000000E+00  8.00000000E-01  8.00000000E-01  1.50000000E+00  1.50000000E+00
  8.00000000E-01  8.00000000E-01  1.50000000E+00  1.50000000E+00  8.00000000E-01
  8.00000000E-01  1.50000000E+00  1.50000000E+00  8.00000000E-01  8.00000000E-01
  1.50000000E+00  1.50000000E+00  8.00000000E-01  8.00000000E-01  1.50000000E+00
  1.50000000E+00  8.00000000E-01  8.00000000E-01  1.50000000E+00  1.50000000E+00
  8.00000000E-01  8.00000000E-01  1.50000000E+00  1.50000000E+00  8.00000000E-01
  8.00000000E-01  1.50000000E+00  1.50000000E+00  8.00000000E-01  8.00000000E-01
  1.50000000E+00  1.50000000E+00  8.00000000E-01  8.00000000E-01  1.50000000E+00
  1.50000000E+00  8.00000000E-01  8.00000000E-01  1.50000000E+00  1.50000000E+00
  8.00000000E-01  8.00000000E-01  1.50000000E+00  1.50000000E+00  8.00000000E-01
  8.00000000E-01  1.50000000E+00  1.50000000E+00  8.00000000E-01  8.00000000E-01
  1.50000000E+00  1.50000000E+00  8.00000000E-01  8.00000000E-01  1.50000000E+00
  1.50000000E+00  8.00000000E-01  8.00000000E-01  1.50000000E+00  1.50000000E+00
  8.00000000E-01  8.00000000E-01  1.50000000E+00  1.50000000E+00  8.00000000E-01
  8.00000000E-01  1.50000000E+00  1.50000000E+00  8.00000000E-01  8.00000000E-01
  1.50000000E+00  1.50000000E+00  8.00000000E-01  8.00000000E-01  1.50000000E+00
  1.50000000E+00  8.00000000E-01  8.00000000E-01  1.50000000E+00  1.50000000E+00
  8.00000000E-01  8.00000000E-01  1.50000000E+00  1.50000000E+00  8.00000000E-01
  8.00000000E-01  1.50000000E+00  1.50000000E+00  8.00000000E-01  8.00000000E-01
  1.50000000E+00  1.50000000E+00  8.00000000E-01  8.00000000E-01  1.50000000E+00
  1.50000000E+00  8.00000000E-01  8.00000000E-01  1.50000000E+00  1.50000000E+00
  8.00000000E-01  8.00000000E-01  1.50000000E+00  1.50000000E+00  8.00000000E-01
  8.00000000E-01  1.50000000E+00  1.50000000E+00  8.00000000E-01  8.00000000E-01
  1.50000000E+00  1.50000000E+00  8.00000000E-01  8.00000000E-01  1.50000000E+00
  1.50000000E+00  8.00000000E-01  8.00000000E-01  1.50000000E+00  1.50000000E+00
  8.00000000E-01  8.00000000E-01  1.50000000E+00  1.50000000E+00  8.00000000E-01
  8.00000000E-01  1.50000000E+00  1.50000000E+00  8.00000000E-01  8.00000000E-01
  1.50000000E+00  1.50000000E+00  8.00000000E-01  8.00000000E-01  1.50000000E+00
  1.50000000E+00  8.00000000E-01  8.00000000E-01  1.50000000E+00  1.50000000E+00
  8.00000000E-01  8.00000000E-01  1.50000000E+00  1.50000000E+00  8.00000000E-01
  8.00000000E-01  1.50000000E+00  1.50000000E+00  8.00000000E-01  8.00000000E-01
  1.50000000E+00  1.50000000E+00  8.00000000E-01  8.00000000E-01  1.50000000E+00
  1.50000000E+00  8.00000000E-01  8.00000000E-01  1.50000000E+00  1.50000000E+00
  8.00000000E-01  8.00000000E-01  1.50000000E+00  1.50000000E+00  8.00000000E-01
  8.00000000E-01  1.50000000E+00  1.50000000E+00  8.00000000E-01  8.00000000E-01
  1.50000000E+00  1.50000000E+00  8.00000000E-01  8.00000000E-01  1.50000000E+00
  1.50000000E+00  8.00000000E-01  8.00000000E-01  1.50000000E+00  1.50000000E+00
  8.00000000E-01  8.00000000E-01  1.50000000E+00  1.50000000E+00  8.00000000E-01
  8.00000000E-01  1.50000000E+00  1.50000000E+00  8.00000000E-01  8.00000000E-01
  1.50000000E+00  1.50000000E+00  8.00000000E-01  8.00000000E-01  1.50000000E+00
  1.50000000E+00  8.00000000E-01  8.00000000E-01  1.50000000E+00  1.50000000E+00
  8.00000000E-01  8.00000000E-01  1.50000000E+00  1.50000000E+00  8.00000000E-01
  8.00000000E-01  1.50000000E+00  1.50000000E+00  8.00000000E-01  8.00000000E-01
  1.50000000E+00  1.50000000E+00  8.00000000E-01  8.00000000E-01  1.50000000E+00
  1.50000000E+00  8.00000000E-01  8.00000000E-01  1.50000000E+00  1.50000000E+00
  8.00000000E-01  8.00000000E-01  1.50000000E+00  1.50000000E+00  8.00000000E-01
  8.00000000E-01  1.50000000E+00  1.50000000E+00  8.00000000E-01  8.00000000E-01
  1.50000000E+00  1.50000000E+00  8.00000000E-01  8.00000000E-01  1.50000000E+00
  1.50000000E+00  8.00000000E-01  8.00000000E-01  1.50000000E+00  1.50000000E+00
  8.00000000E-01  8.00000000E-01  1.50000000E+00  1.50000000E+00  8.00000000E-01
  8.00000000E-01  1.50000000E+00  1.50000000E+00  8.00000000E-01  8.00000000E-01
  1.50000000E+00  1.50000000E+00  8.00000000E-01  8.00000000E-01  1.50000000E+00
  1.50000000E+00  8.00000000E-01  8.00000000E-01  1.50000000E+00  1.50000000E+00
  8.00000000E-01  8.00000000E-01  1.50000000E+00  1.50000000E+00  8.00000000E-01
  8.00000000E-01  1.50000000E+00  1.50000000E+00  8.00000000E-01  8.00000000E-01
  1.50000000E+00  1.50000000E+00  8.00000000E-01  8.00000000E-01  1.50000000E+00
  1.50000000E+00  8.00000000E-01  8.00000000E-01  1.50000000E+00  1.50000000E+00
  8.00000000E-01  8.00000000E-01  1.50000000E+00  1.50000000E+00  8.00000000E-01
  8.00000000E-01  1.50000000E+00  1.50000000E+00  8.00000000E-01  8.00000000E-01
  1.50000000E+00  1.50000000E+00  8.00000000E-01  8.00000000E-01  1.50000000E+00
  1.50000000E+00  8.00000000E-01  8.00000000E-01  1.50000000E+00  1.50000000E+00
  8.00000000E-01  8.00000000E-01  1.50000000E+00  1.50000000E+00  8.00000000E-01
  8.00000000E-01  1.50000000E+00  1.50000000E+00  8.00000000E-01  8.00000000E-01
  1.50000000E+00  1.50000000E+00  8.00000000E-01  8.00000000E-01  1.50000000E+00
  1.50000000E+00  8.00000000E-01  8.00000000E-01  1.50000000E+00  1.50000000E+00
  8.00000000E-01  8.00000000E-01  1.50000000E+00  1.50000000E+00  8.00000000E-01
  8.00000000E-01  1.50000000E+00  1.50000000E+00  8.00000000E-01  8.00000000E-01
  1.50000000E+00  1.50000000E+00  8.00000000E-01  8.00000000E-01  1.50000000E+00
  1.50000000E+00  8.00000000E-01  8.00000000E-01  1.50000000E+00  1.50000000E+00
  8.00000000E-01  8.00000000E-01  1.50000000E+00  1.50000000E+00  8.00000000E-01
  8.00000000E-01  1.50000000E+00  1.50000000E+00  8.00000000E-01  8.00000000E-01
  1.50000000E+00  1.50000000E+00  8.00000000E-01  8.00000000E-01  1.50000000E+00
  1.50000000E+00  8.00000000E-01  8.00000000E-01  1.50000000E+00  1.50000000E+00
  8.00000000E-01  8.00000000E-01  1.50000000E+00  1.50000000E+00  8.00000000E-01
  8.00000000E-01  1.50000000E+00  1.50000000E+00  8.00000000E-01  8.00000000E-01
  1.50000000E+00  1.50000000E+00  8.00000000E-01  8.00000000E-01  1.50000000E+00
  1.50000000E+00  8.00000000E-01  8.00000000E-01  1.50000000E+00  1.50000000E+00
  8.00000000E-01  8.00000000E-01  1.50000000E+00  1.50000000E+00  8.00000000E-01
  8.00000000E-01  1.50000000E+00  1.50000000E+00  8.00000000E-01  8.00000000E-01
  1.50000000E+00  1.50000000E+00  8.00000000E-01  8.00000000E-01  1.50000000E+00
  1.50000000E+00  8.00000000E-01  8.00000000E-01  1.50000000E+00  1.50000000E+00
  8.00000000E-01  8.00000000E-01  1.50000000E+00  1.50000000E+00  8.00000000E-01
  8.00000000E-01  1.50000000E+00  1.50000000E+00  8.00000000E-01  8.00000000E-01
  1.50000000E+00  1.50000000E+00  8.00000000E-01  8.00000000E-01  1.50000000E+00
  1.50000000E+00  8.00000000E-01  8.00000000E-01  1.50000000E+00  1.50000000E+00
  8.00000000E-01  8.00000000E-01  1.50000000E+00  1.50000000E+00  8.00000000E-01
  8.00000000E-01  1.50000000E+00  1.50000000E+00  8.00000000E-01  8.00000000E-01
  1.50000000E+00  1.50000000E+00  8.00000000E-01  8.00000000E-01  1.50000000E+00
  1.50000000E+00  8.00000000E-01  8.00000000E-01  1.50000000E+00  1.50000000E+00
  8.00000000E-01  8.00000000E-01  1.50000000E+00  1.50000000E+00  8.00000000E-01
  8.00000000E-01  1.50000000E+00  1.50000000E+00  8.00000000E-01  8.00000000E-01
  1.50000000E+00  1.50000000E+00  8.00000000E-01  8.00000000E-01  1.50000000E+00
  1.50000000E+00  8.00000000E-01  8.00000000E-01  1.50000000E+00  1.50000000E+00
  8.00000000E-01  8.00000000E-01  1.50000000E+00  1.50000000E+00  8.00000000E-01
  8.00000000E-01  1.50000000E+00  1.50000000E+00  8.00000000E-01  8.00000000E-01
  1.50000000E+00  1.50000000E+00  8.00000000E-01  8.00000000E-01  1.50000000E+00
  1.50000000E+00  8.00000000E-01  8.00000000E-01  1.50000000E+00  1.50000000E+00
  8.00000000E-01  8.00000000E-01  1.50000000E+00  1.50000000E+00  8.00000000E-01
  8.00000000E-01  1.50000000E+00  1.50000000E+00  8.00000000E-01  8.00000000E-01
  1.50000000E+00  1.50000000E+00  8.00000000E-01  8.00000000E-01  1.50000000E+00
  1.50000000E+00  8.00000000E-01  8.00000000E-01  1.50000000E+00  1.50000000E+00
  8.00000000E-01  8.00000000E-01  1.50000000E+00  1.50000000E+00  8.00000000E-01
  8.00000000E-01  1.50000000E+00  1.50000000E+00  8.00000000E-01  8.00000000E-01
  1.50000000E+00  1.50000000E+00  8.00000000E-01  8.00000000E-01  1.50000000E+00
  1.50000000E+00  8.00000000E-01  8.00000000E-01  1.50000000E+00  1.50000000E+00
  8.00000000E-01  8.00000000E-01  1.50000000E+00  1.50000000E+00  8.00000000E-01
  8.00000000E-01  1.50000000E+00  1.50000000E+00  8.00000000E-01  8.00000000E-01
  1.50000000E+00  1.50000000E+00  8.00000000E-01  8.00000000E-01  1.50000000E+00
  1.50000000E+00  8.00000000E-01  8.00000000E-01  1.50000000E+00  1.50000000E+00
  8.00000000E-01  8.00000000E-01  1.50000000E+00  1.50000000E+00  8.00000000E-01
  8.00000000E-01  1.50000000E+00  1.50000000E+00  8.00000000E-01  8.00000000E-01
  1.50000000E+00  1.50000000E+00  8.00000000E-01  8.00000000E-01  1.50000000E+00
  1.50000000E+00  8.00000000E-01  8.00000000E-01  1.50000000E+00  1.50000000E+00
  8.00000000E-01  8.00000000E-01  1.50000000E+00  1.50000000E+00  8.00000000E-01
  8.00000000E-01  1.50000000E+00  1.50000000E+00  8.00000000E-01  8.00000000E-01
  1.50000000E+00  1.50000000E+00  8.00000000E-01  8.00000000E-01  1.50000000E+00
  1.50000000E+00  8.00000000E-01  8.00000000E-01  1.50000000E+00  1.50000000E+00
  8.00000000E-01  8.00000000E-01  1.50000000E+00  1.50000000E+00  8.00000000E-01
  8.00000000E-01  1.50000000E+00  1.50000000E+00  8.00000000E-01  8.00000000E-01
  1.50000000E+00  1.50000000E+00  8.00000000E-01  8.00000000E-01  1.50000000E+00
  1.50000000E+00  8.00000000E-01  8.00000000E-01  1.50000000E+00  1.50000000E+00
  8.00000000E-01  8.00000000E-01  1.50000000E+00  1.50000000E+00  8.00000000E-01
  8.00000000E-01  1.50000000E+00  1.50000000E+00  8.00000000E-01  8.00000000E-01
  1.50000000E+00  1.50000000E+00  8.00000000E-01  8.00000000E-01  1.50000000E+00
  1.50000000E+00  8.00000000E-01  8.00000000E-01  1.50000000E+00  1.50000000E+00
  8.00000000E-01  8.00000000E-01  1.50000000E+00  1.50000000E+00  8.00000000E-01
  8.00000000E-01  1.50000000E+00  1.50000000E+00  8.00000000E-01  8.00000000E-01
  1.50000000E+00  1.50000000E+00  8.00000000E-01  8.00000000E-01  1.50000000E+00
  1.50000000E+00  8.00000000E-01  8.00000000E-01  1.50000000E+00  1.50000000E+00
  8.00000000E-01  8.00000000E-01  1.50000000E+00  1.50000000E+00  8.00000000E-01
  8.00000000E-01  1.50000000E+00  1.50000000E+00  8.00000000E-01  8.00000000E-01
  1.50000000E+00  1.50000000E+00  8.00000000E-01  8.00000000E-01  1.50000000E+00
  1.50000000E+00  8.00000000E-01  8.00000000E-01  1.50000000E+00  1.50000000E+00
  8.00000000E-01  8.00000000E-01  1.50000000E+00  1.50000000E+00  8.00000000E-01
  8.00000000E-01  1.50000000E+00  1.50000000E+00  8.00000000E-01  8.00000000E-01
  1.50000000E+00  1.50000000E+00  8.00000000E-01  8.00000000E-01  1.50000000E+00
  1.50000000E+00  8.00000000E-01  8.00000000E-01  1.50000000E+00  1.50000000E+00
  8.00000000E-01  8.00000000E-01  1.50000000E+00  1.50000000E+00  8.00000000E-01
  8.00000000E-01  1.50000000E+00  1.50000000E+00  8.00000000E-01  8.00000000E-01
  1.50000000E+00  1.50000000E+00  8.00000000E-01  8.00000000E-01  1.50000000E+00
  1.50000000E+00  8.00000000E-01  8.00000000E-01  1.50000000E+00  1.50000000E+00
  8.00000000E-01  8.00000000E-01  1.50000000E+00  1.50000000E+00  8.00000000E-01
  8.00000000E-01  1.50000000E+00  1.50000000E+00  8.00000000E-01  8.00000000E-01
  1.50000000E+00  1.50000000E+00  8.00000000E-01  8.00000000E-01  1.50000000E+00
  1.50000000E+00  8.00000000E-01  8.00000000E-01  1.50000000E+00  1.50000000E+00
  8.00000000E-01  8.00000000E-01  1.50000000E+00  1.50000000E+00  8.00000000E-01
  8.00000000E-01  1.50000000E+00  1.50000000E+00  8.00000000E-01  8.00000000E-01
  1.50000000E+00  1.50000000E+00  8.00000000E-01  8.00000000E-01  1.50000000E+00
  1.50000000E+00  8.00000000E-01  8.00000000E-01  1.50000000E+00  1.50000000E+00
  8.00000000E-01  8.00000000E-01  1.50000000E+00  1.50000000E+00  8.00000000E-01
  8.00000000E-01  1.50000000E+00  1.50000000E+00  8.00000000E-01  8.00000000E-01
  1.50000000E+00  1.50000000E+00  8.00000000E-01  8.00000000E-01  1.50000000E+00
  1.50000000E+00  8.00000000E-01  8.00000000E-01  1.50000000E+00  1.50000000E+00
  8.00000000E-01  8.00000000E-01  1.50000000E+00  1.50000000E+00  8.00000000E-01
  8.00000000E-01  1.50000000E+00  1.50000000E+00  8.00000000E-01  8.00000000E-01
  1.50000000E+00  1.50000000E+00  8.00000000E-01  8.00000000E-01  1.50000000E+00
  1.50000000E+00  8.00000000E-01  8.00000000E-01  1.50000000E+00  1.50000000E+00
  8.00000000E-01  8.00000000E-01  1.50000000E+00  1.50000000E+00  8.00000000E-01
  8.00000000E-01  1.50000000E+00  1.50000000E+00  8.00000000E-01  8.00000000E-01
  1.50000000E+00  1.50000000E+00  8.00000000E-01  8.00000000E-01  1.50000000E+00
  1.50000000E+00  8.00000000E-01  8.00000000E-01  1.50000000E+00  1.50000000E+00
  8.00000000E-01  8.00000000E-01  1.50000000E+00  1.50000000E+00  8.00000000E-01
  8.00000000E-01  1.50000000E+00  1.50000000E+00  8.00000000E-01  8.00000000E-01
  1.50000000E+00  1.50000000E+00  8.00000000E-01  8.00000000E-01  1.50000000E+00
  1.50000000E+00  8.00000000E-01  8.00000000E-01  1.50000000E+00  1.50000000E+00
  8.00000000E-01  8.00000000E-01  1.50000000E+00  1.50000000E+00  8.00000000E-01
  8.00000000E-01  1.50000000E+00  1.50000000E+00  8.00000000E-01  8.00000000E-01
  1.50000000E+00  1.50000000E+00  8.00000000E-01  8.00000000E-01  1.50000000E+00
  1.50000000E+00  8.00000000E-01  8.00000000E-01  1.50000000E+00  1.50000000E+00
  8.00000000E-01  8.00000000E-01  1.50000000E+00  1.50000000E+00  8.00000000E-01
  8.00000000E-01  1.50000000E+00  1.50000000E+00  8.00000000E-01  8.00000000E-01
  1.50000000E+00  1.50000000E+00  8.00000000E-01  8.00000000E-01  1.50000000E+00
  1.50000000E+00  8.00000000E-01  8.00000000E-01  1.50000000E+00  1.50000000E+00
  8.00000000E-01  8.00000000E-01  1.50000000E+00  1.50000000E+00  8.00000000E-01
  8.00000000E-01  1.50000000E+00  1.50000000E+00  8.00000000E-01  8.00000000E-01
  1.50000000E+00  1.50000000E+00  8.00000000E-01  8.00000000E-01  1.50000000E+00
  1.50000000E+00  8.00000000E-01  8.00000000E-01  1.50000000E+00  1.50000000E+00
  8.00000000E-01  8.00000000E-01  1.50000000E+00  1.50000000E+00  8.00000000E-01
  8.00000000E-01  1.50000000E+00  1.50000000E+00  8.00000000E-01  8.00000000E-01
  1.50000000E+00  1.50000000E+00  8.00000000E-01  8.00000000E-01  1.50000000E+00
  1.50000000E+00  8.00000000E-01  8.00000000E-01  1.50000000E+00  1.50000000E+00
  8.00000000E-01  8.00000000E-01  1.50000000E+00  1.50000000E+00  8.00000000E-01
  8.00000000E-01  1.50000000E+00  1.50000000E+00  8.00000000E-01  8.00000000E-01
  1.50000000E+00  1.50000000E+00  8.00000000E-01  8.00000000E-01  1.50000000E+00
  1.50000000E+00  8.00000000E-01  8.00000000E-01  1.50000000E+00  1.50000000E+00
  8.00000000E-01  8.00000000E-01  1.50000000E+00  1.50000000E+00  8.00000000E-01
  8.00000000E-01  1.50000000E+00  1.50000000E+00  8.00000000E-01  8.00000000E-01
  1.50000000E+00  1.50000000E+00  8.00000000E-01  8.00000000E-01  1.50000000E+00
  1.50000000E+00  8.00000000E-01  8.00000000E-01  1.50000000E+00  1.50000000E+00
  8.00000000E-01  8.00000000E-01  1.50000000E+00  1.50000000E+00  8.00000000E-01
  8.00000000E-01  1.50000000E+00  1.50000000E+00  8.00000000E-01  8.00000000E-01
  1.50000000E+00  1.50000000E+00  8.00000000E-01  8.00000000E-01  1.50000000E+00
  1.50000000E+00  8.00000000E-01  8.00000000E-01  1.50000000E+00  1.50000000E+00
  8.00000000E-01  8.00000000E-01  1.50000000E+00  1.50000000E+00  8.00000000E-01
  8.00000000E-01  1.50000000E+00  1.50000000E+00  8.00000000E-01  8.00000000E-01
  1.50000000E+00  1.50000000E+00  8.00000000E-01  8.00000000E-01  1.50000000E+00
  1.50000000E+00  8.00000000E-01  8.00000000E-01  1.50000000E+00  1.50000000E+00
  8.00000000E-01  8.00000000E-01  1.50000000E+00  1.50000000E+00  8.00000000E-01
  8.00000000E-01  1.50000000E+00  1.50000000E+00  8.00000000E-01  8.00000000E-01
  1.50000000E+00  1.50000000E+00  8.00000000E-01  8.00000000E-01  1.50000000E+00
  1.50000000E+00  8.00000000E-01  8.00000000E-01  1.50000000E+00  1.50000000E+00
  8.00000000E-01  8.00000000E-01  1.50000000E+00  1.50000000E+00  8.00000000E-01
  8.00000000E-01  1.50000000E+00  1.50000000E+00  8.00000000E-01  8.00000000E-01
  1.50000000E+00  1.50000000E+00  8.00000000E-01  8.00000000E-01  1.50000000E+00
  1.50000000E+00  8.00000000E-01  8.00000000E-01  1.50000000E+00  1.50000000E+00
  8.00000000E-01  8.00000000E-01  1.50000000E+00  1.50000000E+00  8.00000000E-01
  8.00000000E-01  1.50000000E+00  1.50000000E+00  8.00000000E-01  8.00000000E-01
  1.50000000E+00  1.50000000E+00  8.00000000E-01  8.00000000E-01  1.50000000E+00
  1.50000000E+00  8.00000000E-01  8.00000000E-01  1.50000000E+00  1.50000000E+00
  8.00000000E-01  8.00000000E-01  1.50000000E+00  1.50000000E+00  8.00000000E-01
  8.00000000E-01  1.50000000E+00  1.50000000E+00  8.00000000E-01  8.00000000E-01
  1.50000000E+00  1.50000000E+00  8.00000000E-01  8.00000000E-01  1.50000000E+00
  1.50000000E+00  8.00000000E-01  8.00000000E-01  1.50000000E+00  1.50000000E+00
  8.00000000E-01  8.00000000E-01  1.50000000E+00  1.50000000E+00  8.00000000E-01
  8.00000000E-01  1.50000000E+00  1.50000000E+00  8.00000000E-01  8.00000000E-01
  1.50000000E+00  1.50000000E+00  8.00000000E-01  8.00000000E-01  1.50000000E+00
  1.50000000E+00  8.00000000E-01  8.00000000E-01  1.50000000E+00  1.50000000E+00
  8.00000000E-01  8.00000000E-01  1.50000000E+00  1.50000000E+00  8.00000000E-01
  8.00000000E-01  1.50000000E+00  1.50000000E+00  8.00000000E-01  8.00000000E-01
  1.50000000E+00  1.50000000E+00  8.00000000E-01  8.00000000E-01  1.50000000E+00
  1.50000000E+00  8.00000000E-01  8.00000000E-01  1.50000000E+00  1.50000000E+00
  8.00000000E-01  8.00000000E-01  1.50000000E+00  1.50000000E+00  8.00000000E-01
  8.00000000E-01  1.50000000E+00  1.50000000E+00  8.00000000E-01  8.00000000E-01
  1.50000000E+00  1.50000000E+00  8.00000000E-01  8.00000000E-01  1.50000000E+00
  1.50000000E+00  8.00000000E-01  8.00000000E-01  1.50000000E+00  1.50000000E+00
  8.00000000E-01  8.00000000E-01  1.50000000E+00  1.50000000E+00  8.00000000E-01
  8.00000000E-01  1.50000000E+00  1.50000000E+00  8.00000000E-01  8.00000000E-01
  1.50000000E+00  1.50000000E+00  8.00000000E-01  8.00000000E-01  1.50000000E+00
  1.50000000E+00  8.00000000E-01  8.00000000E-01  1.50000000E+00  1.50000000E+00
  8.00000000E-01  8.00000000E-01  1.50000000E+00  1.50000000E+00  8.00000000E-01
  8.00000000E-01  1.50000000E+00  1.50000000E+00  8.00000000E-01  8.00000000E-01
  1.50000000E+00  1.50000000E+00  8.00000000E-01  8.00000000E-01  1.50000000E+00
  1.50000000E+00  8.00000000E-01  8.00000000E-01  1.50000000E+00  1.50000000E+00
  8.00000000E-01  8.00000000E-01  1.50000000E+00  1.50000000E+00  8.00000000E-01
  8.00000000E-01  1.50000000E+00  1.50000000E+00  8.00000000E-01  8.00000000E-01
  1.50000000E+00  1.50000000E+00  8.00000000E-01  8.00000000E-01  1.50000000E+00
  1.50000000E+00  8.00000000E-01  8.00000000E-01  1.50000000E+00  1.50000000E+00
  8.00000000E-01  8.00000000E-01  1.50000000E+00  1.50000000E+00  8.00000000E-01
  8.00000000E-01  1.50000000E+00  1.50000000E+00  8.00000000E-01  8.00000000E-01
  1.50000000E+00  1.50000000E+00  8.00000000E-01  8.00000000E-01  1.50000000E+00
  1.50000000E+00  8.00000000E-01  8.00000000E-01  1.50000000E+00  1.50000000E+00
  8.00000000E-01  8.00000000E-01  1.50000000E+00  1.50000000E+00  8.00000000E-01
  8.00000000E-01  1.50000000E+00  1.50000000E+00  8.00000000E-01  8.00000000E-01
  1.50000000E+00  1.50000000E+00  8.00000000E-01  8.00000000E-01  1.50000000E+00
  1.50000000E+00  8.00000000E-01  8.00000000E-01  1.50000000E+00  1.50000000E+00
  8.00000000E-01  8.00000000E-01  1.50000000E+00  1.50000000E+00  8.00000000E-01
  8.00000000E-01  1.50000000E+00  1.50000000E+00  8.00000000E-01  8.00000000E-01
  1.50000000E+00  1.50000000E+00  8.00000000E-01  8.00000000E-01  1.50000000E+00
  1.50000000E+00  8.00000000E-01  8.00000000E-01  1.50000000E+00  1.50000000E+00
  8.00000000E-01  8.00000000E-01  1.50000000E+00  1.50000000E+00  8.00000000E-01
  8.00000000E-01  1.50000000E+00  1.50000000E+00  8.00000000E-01  8.00000000E-01
  1.50000000E+00  1.50000000E+00  8.00000000E-01  8.00000000E-01  1.50000000E+00
  1.50000000E+00  8.00000000E-01  8.00000000E-01  1.50000000E+00  1.50000000E+00
  8.00000000E-01  8.00000000E-01  1.50000000E+00  1.50000000E+00  8.00000000E-01
  8.00000000E-01  1.50000000E+00  1.50000000E+00  8.00000000E-01  8.00000000E-01
  1.50000000E+00  1.50000000E+00  8.00000000E-01  8.00000000E-01  1.50000000E+00
  1.50000000E+00  8.00000000E-01  8.00000000E-01  1.50000000E+00  1.50000000E+00
  8.00000000E-01  8.00000000E-01  1.50000000E+00  1.50000000E+00  8.00000000E-01
  8.00000000E-01  1.50000000E+00  1.50000000E+00  8.00000000E-01  8.00000000E-01
  1.50000000E+00  1.50000000E+00  8.00000000E-01  8.00000000E-01  1.50000000E+00
  1.50000000E+00  8.00000000E-01  8.00000000E-01  1.50000000E+00  1.50000000E+00
  8.00000000E-01  8.00000000E-01  1.50000000E+00  1.50000000E+00  8.00000000E-01
  8.00000000E-01  1.50000000E+00  1.50000000E+00  8.00000000E-01  8.00000000E-01
  1.50000000E+00  1.50000000E+00  8.00000000E-01  8.00000000E-01  1.50000000E+00
  1.50000000E+00  8.00000000E-01  8.00000000E-01  1.50000000E+00  1.50000000E+00
  8.00000000E-01  8.00000000E-01  1.50000000E+00  1.50000000E+00  8.00000000E-01
  8.00000000E-01  1.50000000E+00  1.50000000E+00  8.00000000E-01  8.00000000E-01
  1.50000000E+00  1.50000000E+00  8.00000000E-01  8.00000000E-01  1.50000000E+00
  1.50000000E+00  8.00000000E-01  8.00000000E-01  1.50000000E+00  1.50000000E+00
  8.00000000E-01  8.00000000E-01  1.50000000E+00  1.50000000E+00  8.00000000E-01
  8.00000000E-01  1.50000000E+00  1.50000000E+00  8.00000000E-01  8.00000000E-01
  1.50000000E+00  1.50000000E+00  8.00000000E-01  8.00000000E-01  1.50000000E+00
  1.50000000E+00  8.00000000E-01  8.00000000E-01  1.50000000E+00  1.50000000E+00
  8.00000000E-01  8.00000000E-01  1.50000000E+00  1.50000000E+00  8.00000000E-01
  8.00000000E-01  1.50000000E+00  1.50000000E+00  8.00000000E-01  8.00000000E-01
  1.50000000E+00  1.50000000E+00  8.00000000E-01  8.00000000E-01  1.50000000E+00
  1.50000000E+00  8.00000000E-01  8.00000000E-01  1.50000000E+00  1.50000000E+00
  8.00000000E-01  8.00000000E-01  1.50000000E+00  1.50000000E+00  8.00000000E-01
  8.00000000E-01  1.50000000E+00  1.50000000E+00  8.00000000E-01  8.00000000E-01
  1.50000000E+00  1.50000000E+00  8.00000000E-01  8.00000000E-01  1.50000000E+00
  1.50000000E+00  8.00000000E-01  8.00000000E-01  1.50000000E+00  1.50000000E+00
  8.00000000E-01  8.00000000E-01  1.50000000E+00  1.50000000E+00  8.00000000E-01
  8.00000000E-01  1.50000000E+00  1.50000000E+00  8.00000000E-01  8.00000000E-01
  1.50000000E+00  1.50000000E+00  8.00000000E-01  8.00000000E-01  1.50000000E+00
  1.50000000E+00  8.00000000E-01  8.00000000E-01  1.50000000E+00  1.50000000E+00
  8.00000000E-01  8.00000000E-01  1.50000000E+00  1.50000000E+00  8.00000000E-01
  8.00000000E-01  1.50000000E+00  1.50000000E+00  8.00000000E-01  8.00000000E-01
  1.50000000E+00  1.50000000E+00  8.00000000E-01  8.00000000E-01  1.50000000E+00
  1.50000000E+00  8.00000000E-01  8.00000000E-01  1.50000000E+00  1.50000000E+00
  8.00000000E-01  8.00000000E-01  1.50000000E+00  1.50000000E+00  8.00000000E-01
  8.00000000E-01  1.50000000E+00  1.50000000E+00  8.00000000E-01  8.00000000E-01
  1.50000000E+00  1.50000000E+00  8.00000000E-01  8.00000000E-01  1.50000000E+00
  1.50000000E+00  8.00000000E-01  8.00000000E-01  1.50000000E+00  1.50000000E+00
  8.00000000E-01  8.00000000E-01  1.50000000E+00  1.50000000E+00  8.00000000E-01
  8.00000000E-01  1.50000000E+00  1.50000000E+00  8.00000000E-01  8.00000000E-01
  1.50000000E+00  1.50000000E+00  8.00000000E-01  8.00000000E-01  1.50000000E+00
  1.50000000E+00  8.00000000E-01  8.00000000E-01  1.50000000E+00  1.50000000E+00
  8.00000000E-01  8.00000000E-01  1.50000000E+00  1.50000000E+00  8.00000000E-01
  8.00000000E-01  1.50000000E+00  1.50000000E+00  8.00000000E-01  8.00000000E-01
  1.50000000E+00  1.50000000E+00  8.00000000E-01  8.00000000E-01  1.50000000E+00
  1.50000000E+00  8.00000000E-01  8.00000000E-01  1.50000000E+00  1.50000000E+00
  8.00000000E-01  8.00000000E-01  1.50000000E+00  1.50000000E+00  8.00000000E-01
  8.00000000E-01  1.50000000E+00  1.50000000E+00  8.00000000E-01  8.00000000E-01
  1.50000000E+00  1.50000000E+00  8.00000000E-01  8.00000000E-01  1.50000000E+00
  1.50000000E+00  8.00000000E-01  8.00000000E-01  1.50000000E+00  1.50000000E+00
  8.00000000E-01  8.00000000E-01  1.50000000E+00  1.50000000E+00  8.00000000E-01
  8.00000000E-01  1.50000000E+00  1.50000000E+00  8.00000000E-01  8.00000000E-01
  1.50000000E+00  1.50000000E+00  8.00000000E-01  8.00000000E-01  1.50000000E+00
  1.50000000E+00  8.00000000E-01  8.00000000E-01  1.50000000E+00  1.50000000E+00
  8.00000000E-01  8.00000000E-01  1.50000000E+00  1.50000000E+00  8.00000000E-01
  8.00000000E-01  1.50000000E+00  1.50000000E+00  8.00000000E-01  8.00000000E-01
  1.50000000E+00  1.50000000E+00  8.00000000E-01  8.00000000E-01  1.50000000E+00
  1.50000000E+00  8.00000000E-01  8.00000000E-01  1.50000000E+00  1.50000000E+00
  8.00000000E-01  8.00000000E-01  1.50000000E+00  1.50000000E+00  8.00000000E-01
  8.00000000E-01  1.50000000E+00  1.50000000E+00  8.00000000E-01  8.00000000E-01
  1.50000000E+00  1.50000000E+00  8.00000000E-01  8.00000000E-01  1.50000000E+00
  1.50000000E+00  8.00000000E-01  8.00000000E-01  1.50000000E+00  1.50000000E+00
  8.00000000E-01  8.00000000E-01  1.50000000E+00  1.50000000E+00  8.00000000E-01
  8.00000000E-01  1.50000000E+00  1.50000000E+00  8.00000000E-01  8.00000000E-01
  1.50000000E+00  1.50000000E+00  8.00000000E-01  8.00000000E-01  1.50000000E+00
  1.50000000E+00  8.00000000E-01  8.00000000E-01  1.50000000E+00  1.50000000E+00
  8.00000000E-01  8.00000000E-01  1.50000000E+00  1.50000000E+00  8.00000000E-01
  8.00000000E-01  1.50000000E+00  1.50000000E+00  8.00000000E-01  8.00000000E-01
  1.50000000E+00  1.50000000E+00  8.00000000E-01  8.00000000E-01  1.50000000E+00
  1.50000000E+00  8.00000000E-01  8.00000000E-01  1.50000000E+00  1.50000000E+00
  8.00000000E-01  8.00000000E-01  1.50000000E+00  1.50000000E+00  8.00000000E-01
  8.00000000E-01  1.50000000E+00  1.50000000E+00  8.00000000E-01  8.00000000E-01
  1.50000000E+00  1.50000000E+00  8.00000000E-01  8.00000000E-01  1.50000000E+00
  1.50000000E+00  8.00000000E-01  8.00000000E-01  1.50000000E+00  1.50000000E+00
  8.00000000E-01  8.00000000E-01  1.50000000E+00  1.50000000E+00  8.00000000E-01
  8.00000000E-01  1.50000000E+00  1.50000000E+00  8.00000000E-01  8.00000000E-01
  1.50000000E+00  1.50000000E+00  8.00000000E-01  8.00000000E-01  1.50000000E+00
  1.50000000E+00  8.00000000E-01  8.00000000E-01  1.50000000E+00  1.50000000E+00
  8.00000000E-01  8.00000000E-01  1.50000000E+00  1.50000000E+00  8.00000000E-01
  8.00000000E-01  1.50000000E+00  1.50000000E+00  8.00000000E-01  8.00000000E-01
  1.50000000E+00  1.50000000E+00  8.00000000E-01  8.00000000E-01  1.50000000E+00
  1.50000000E+00  8.00000000E-01  8.00000000E-01  1.50000000E+00  1.50000000E+00
  8.00000000E-01  8.00000000E-01  1.50000000E+00  1.50000000E+00  8.00000000E-01
  8.00000000E-01  1.50000000E+00  1.50000000E+00  8.00000000E-01  8.00000000E-01
  1.50000000E+00  1.50000000E+00  8.00000000E-01  8.00000000E-01  1.50000000E+00
  1.50000000E+00  8.00000000E-01  8.00000000E-01  1.50000000E+00  1.50000000E+00
  8.00000000E-01  8.00000000E-01  1.50000000E+00  1.50000000E+00  8.00000000E-01
  8.00000000E-01  1.50000000E+00  1.50000000E+00  8.00000000E-01  8.00000000E-01
  1.50000000E+00  1.50000000E+00  8.00000000E-01  8.00000000E-01  1.50000000E+00
  1.50000000E+00  8.00000000E-01  8.00000000E-01  1.50000000E+00  1.50000000E+00
  8.00000000E-01  8.00000000E-01  1.50000000E+00  1.50000000E+00  8.00000000E-01
  8.00000000E-01  1.50000000E+00  1.50000000E+00  8.00000000E-01  8.00000000E-01
  1.50000000E+00  1.50000000E+00  8.00000000E-01  8.00000000E-01  1.50000000E+00
  1.50000000E+00  8.00000000E-01  8.00000000E-01  1.50000000E+00  1.50000000E+00
  8.00000000E-01  8.00000000E-01  1.50000000E+00  1.50000000E+00  8.00000000E-01
  8.00000000E-01  1.50000000E+00  1.50000000E+00  8.00000000E-01  8.00000000E-01
  1.50000000E+00  1.50000000E+00  8.00000000E-01  8.00000000E-01  1.50000000E+00
  1.50000000E+00  8.00000000E-01  8.00000000E-01  1.50000000E+00  1.50000000E+00
  8.00000000E-01  8.00000000E-01  1.50000000E+00  1.50000000E+00  8.00000000E-01
  8.00000000E-01  1.50000000E+00  1.50000000E+00  8.00000000E-01  8.00000000E-01
  1.50000000E+00  1.50000000E+00  8.00000000E-01  8.00000000E-01  1.50000000E+00
  1.50000000E+00  8.00000000E-01  8.00000000E-01  1.50000000E+00  1.50000000E+00
  8.00000000E-01  8.00000000E-01  1.50000000E+00  1.50000000E+00  8.00000000E-01
  8.00000000E-01  1.50000000E+00  1.50000000E+00  8.00000000E-01  8.00000000E-01
  1.50000000E+00  1.50000000E+00  8.00000000E-01  8.00000000E-01  1.50000000E+00
  1.50000000E+00  8.00000000E-01  8.00000000E-01  1.50000000E+00  1.50000000E+00
  8.00000000E-01  8.00000000E-01  1.50000000E+00  1.50000000E+00  8.00000000E-01
  8.00000000E-01  1.50000000E+00  1.50000000E+00  8.00000000E-01  8.00000000E-01
  1.50000000E+00  1.50000000E+00  8.00000000E-01  8.00000000E-01  1.50000000E+00
  1.50000000E+00  8.00000000E-01  8.00000000E-01  1.50000000E+00  1.50000000E+00
  8.00000000E-01  8.00000000E-01  1.50000000E+00  1.50000000E+00  8.00000000E-01
  8.00000000E-01  1.50000000E+00  1.50000000E+00  8.00000000E-01  8.00000000E-01
  1.50000000E+00  1.50000000E+00  8.00000000E-01  8.00000000E-01  1.50000000E+00
  1.50000000E+00  8.00000000E-01  8.00000000E-01  1.50000000E+00  1.50000000E+00
  8.00000000E-01  8.00000000E-01  1.50000000E+00  1.50000000E+00  8.00000000E-01
  8.00000000E-01  1.50000000E+00  1.50000000E+00  8.00000000E-01  8.00000000E-01
  1.50000000E+00  1.50000000E+00  8.00000000E-01  8.00000000E-01  1.50000000E+00
  1.50000000E+00  8.00000000E-01  8.00000000E-01  1.50000000E+00  1.50000000E+00
  8.00000000E-01  8.00000000E-01  1.50000000E+00  1.50000000E+00  8.00000000E-01
  8.00000000E-01  1.50000000E+00  1.50000000E+00  8.00000000E-01  8.00000000E-01
  1.50000000E+00  1.50000000E+00  8.00000000E-01  8.00000000E-01  1.50000000E+00
  1.50000000E+00  8.00000000E-01  8.00000000E-01  1.50000000E+00  1.50000000E+00
  8.00000000E-01  8.00000000E-01  1.50000000E+00  1.50000000E+00  8.00000000E-01
  8.00000000E-01  1.50000000E+00  1.50000000E+00  8.00000000E-01  8.00000000E-01
  1.50000000E+00  1.50000000E+00  8.00000000E-01  8.00000000E-01  1.50000000E+00
  1.50000000E+00  8.00000000E-01  8.00000000E-01  1.50000000E+00  1.50000000E+00
  8.00000000E-01  8.00000000E-01  1.50000000E+00  1.50000000E+00  8.00000000E-01
  8.00000000E-01  1.50000000E+00  1.50000000E+00  8.00000000E-01  8.00000000E-01
  1.50000000E+00  1.50000000E+00  8.00000000E-01  8.00000000E-01  1.50000000E+00
  1.50000000E+00  8.00000000E-01  8.00000000E-01  1.50000000E+00  1.50000000E+00
  8.00000000E-01  8.00000000E-01  1.50000000E+00  1.50000000E+00  8.00000000E-01
  8.00000000E-01  1.50000000E+00  1.50000000E+00  8.00000000E-01  8.00000000E-01
  1.50000000E+00  1.50000000E+00  8.00000000E-01  8.00000000E-01  1.50000000E+00
  1.50000000E+00  8.00000000E-01  8.00000000E-01  1.50000000E+00  1.50000000E+00
  8.00000000E-01  8.00000000E-01  1.50000000E+00  1.50000000E+00  8.00000000E-01
  8.00000000E-01  1.50000000E+00  1.50000000E+00  8.00000000E-01  8.00000000E-01
  1.50000000E+00  1.50000000E+00  8.00000000E-01  8.00000000E-01  1.50000000E+00
  1.50000000E+00  8.00000000E-01  8.00000000E-01  1.50000000E+00  1.50000000E+00
  8.00000000E-01  8.00000000E-01  1.50000000E+00  1.50000000E+00  8.00000000E-01
  8.00000000E-01  1.50000000E+00  1.50000000E+00  8.00000000E-01  8.00000000E-01
  1.50000000E+00  1.50000000E+00  8.00000000E-01  8.00000000E-01  1.50000000E+00
  1.50000000E+00  8.00000000E-01  8.00000000E-01  1.50000000E+00  1.50000000E+00
  8.00000000E-01  8.00000000E-01  1.50000000E+00  1.50000000E+00  8.00000000E-01
  8.00000000E-01  1.50000000E+00  1.50000000E+00  8.00000000E-01  8.00000000E-01
  1.50000000E+00  1.50000000E+00  8.00000000E-01  8.00000000E-01  1.50000000E+00
  1.50000000E+00  8.00000000E-01  8.00000000E-01  1.50000000E+00  1.50000000E+00
  8.00000000E-01  8.00000000E-01  1.50000000E+00  1.50000000E+00  8.00000000E-01
  8.00000000E-01  1.50000000E+00  1.50000000E+00  8.00000000E-01  8.00000000E-01
  1.50000000E+00  1.50000000E+00  8.00000000E-01  8.00000000E-01  1.50000000E+00
  1.50000000E+00  8.00000000E-01  8.00000000E-01  1.50000000E+00  1.50000000E+00
  8.00000000E-01  8.00000000E-01  1.50000000E+00  1.50000000E+00  8.00000000E-01
  8.00000000E-01  1.50000000E+00  1.50000000E+00  8.00000000E-01  8.00000000E-01
  1.50000000E+00  1.50000000E+00  8.00000000E-01  8.00000000E-01  1.50000000E+00
  1.50000000E+00  8.00000000E-01  8.00000000E-01  1.50000000E+00  1.50000000E+00
  8.00000000E-01  8.00000000E-01  1.50000000E+00  1.50000000E+00  8.00000000E-01
  8.00000000E-01  1.50000000E+00  1.50000000E+00  8.00000000E-01  8.00000000E-01
  1.50000000E+00  1.50000000E+00  8.00000000E-01  8.00000000E-01  1.50000000E+00
  1.50000000E+00  8.00000000E-01  8.00000000E-01  1.50000000E+00  1.50000000E+00
  8.00000000E-01  8.00000000E-01  1.50000000E+00  1.50000000E+00  8.00000000E-01
  8.00000000E-01  1.50000000E+00  1.50000000E+00  8.00000000E-01  8.00000000E-01
  1.50000000E+00  1.50000000E+00  8.00000000E-01  8.00000000E-01  1.50000000E+00
  1.50000000E+00  8.00000000E-01  8.00000000E-01  1.50000000E+00  1.50000000E+00
  8.00000000E-01  8.00000000E-01  1.50000000E+00  1.50000000E+00  8.00000000E-01
  8.00000000E-01  1.50000000E+00  1.50000000E+00  8.00000000E-01  8.00000000E-01
  1.50000000E+00  1.50000000E+00  8.00000000E-01  8.00000000E-01  1.50000000E+00
  1.50000000E+00  8.00000000E-01  8.00000000E-01  1.50000000E+00  1.50000000E+00
  8.00000000E-01  8.00000000E-01  1.50000000E+00  1.50000000E+00  8.00000000E-01
  8.00000000E-01  1.50000000E+00  1.50000000E+00  8.00000000E-01  8.00000000E-01
  1.50000000E+00  1.50000000E+00  8.00000000E-01  8.00000000E-01  1.50000000E+00
  1.50000000E+00  8.00000000E-01  8.00000000E-01  1.50000000E+00  1.50000000E+00
  8.00000000E-01  8.00000000E-01  1.50000000E+00  1.50000000E+00  8.00000000E-01
  8.00000000E-01  1.50000000E+00  1.50000000E+00  8.00000000E-01  8.00000000E-01
  1.50000000E+00  1.50000000E+00  8.00000000E-01  8.00000000E-01  1.50000000E+00
  1.50000000E+00  8.00000000E-01  8.00000000E-01  1.50000000E+00  1.50000000E+00
  8.00000000E-01  8.00000000E-01  1.50000000E+00  1.50000000E+00  8.00000000E-01
  8.00000000E-01  1.50000000E+00  1.50000000E+00  8.00000000E-01  8.00000000E-01
  1.50000000E+00  1.50000000E+00  8.00000000E-01  8.00000000E-01  1.50000000E+00
  1.50000000E+00  8.00000000E-01  8.00000000E-01  1.50000000E+00  1.50000000E+00
  8.00000000E-01  8.00000000E-01  1.50000000E+00  1.50000000E+00  8.00000000E-01
  8.00000000E-01  1.50000000E+00  1.50000000E+00  8.00000000E-01  8.00000000E-01
  1.50000000E+00  1.50000000E+00  8.00000000E-01  8.00000000E-01  1.50000000E+00
  1.50000000E+00  8.00000000E-01  8.00000000E-01  1.50000000E+00  1.50000000E+00
  8.00000000E-01  8.00000000E-01  1.50000000E+00  1.50000000E+00  8.00000000E-01
  8.00000000E-01  1.50000000E+00  1.50000000E+00  8.00000000E-01  8.00000000E-01
  1.50000000E+00  1.50000000E+00  8.00000000E-01  8.00000000E-01  1.50000000E+00
  1.50000000E+00  8.00000000E-01  8.00000000E-01  1.50000000E+00  1.50000000E+00
  8.00000000E-01  8.00000000E-01  1.50000000E+00  1.50000000E+00  8.00000000E-01
  8.00000000E-01  1.50000000E+00  1.50000000E+00  8.00000000E-01  8.00000000E-01
  1.50000000E+00  1.50000000E+00  8.00000000E-01  8.00000000E-01  1.50000000E+00
  1.50000000E+00  8.00000000E-01  8.00000000E-01  1.50000000E+00  1.50000000E+00
  8.00000000E-01  8.00000000E-01  1.50000000E+00  1.50000000E+00  8.00000000E-01
  8.00000000E-01  1.50000000E+00  1.50000000E+00  8.00000000E-01  8.00000000E-01
  1.50000000E+00  1.50000000E+00  8.00000000E-01  8.00000000E-01  1.50000000E+00
  1.50000000E+00  8.00000000E-01  8.00000000E-01  1.50000000E+00  1.50000000E+00
  8.00000000E-01  8.00000000E-01  1.50000000E+00  1.50000000E+00  8.00000000E-01
  8.00000000E-01  1.50000000E+00  1.50000000E+00  8.00000000E-01  8.00000000E-01
  1.50000000E+00  1.50000000E+00  8.00000000E-01  8.00000000E-01  1.50000000E+00
  1.50000000E+00  8.00000000E-01  8.00000000E-01  1.50000000E+00  1.50000000E+00
  8.00000000E-01  8.00000000E-01  1.50000000E+00  1.50000000E+00  8.00000000E-01
  8.00000000E-01  1.50000000E+00  1.50000000E+00  8.00000000E-01  8.00000000E-01
  1.50000000E+00  1.50000000E+00  8.00000000E-01  8.00000000E-01  1.50000000E+00
  1.50000000E+00  8.00000000E-01  8.00000000E-01  1.50000000E+00  1.50000000E+00
  8.00000000E-01  8.00000000E-01  1.50000000E+00  1.50000000E+00  8.00000000E-01
  8.00000000E-01  1.50000000E+00  1.50000000E+00  8.00000000E-01  8.00000000E-01
  1.50000000E+00  1.50000000E+00  8.00000000E-01  8.00000000E-01  1.50000000E+00
  1.50000000E+00  8.00000000E-01  8.00000000E-01  1.50000000E+00  1.50000000E+00
  8.00000000E-01  8.00000000E-01  1.50000000E+00  1.50000000E+00  8.00000000E-01
  8.00000000E-01  1.50000000E+00  1.50000000E+00  8.00000000E-01  8.00000000E-01
  1.50000000E+00  1.50000000E+00  8.00000000E-01  8.00000000E-01  1.50000000E+00
  1.50000000E+00  8.00000000E-01  8.00000000E-01  1.50000000E+00  1.50000000E+00
  8.00000000E-01  8.00000000E-01  1.50000000E+00  1.50000000E+00  8.00000000E-01
  8.00000000E-01  1.50000000E+00  1.50000000E+00  8.00000000E-01  8.00000000E-01
  1.50000000E+00  1.50000000E+00  8.00000000E-01  8.00000000E-01  1.50000000E+00
  1.50000000E+00  8.00000000E-01  8.00000000E-01  1.50000000E+00  1.50000000E+00
  8.00000000E-01  8.00000000E-01  1.50000000E+00  1.50000000E+00  8.00000000E-01
  8.00000000E-01  1.50000000E+00  1.50000000E+00  8.00000000E-01  8.00000000E-01
  1.50000000E+00  1.50000000E+00  8.00000000E-01  8.00000000E-01  1.50000000E+00
  1.50000000E+00  8.00000000E-01  8.00000000E-01  1.50000000E+00  1.50000000E+00
  8.00000000E-01  8.00000000E-01  1.50000000E+00  1.50000000E+00  8.00000000E-01
  8.00000000E-01  1.50000000E+00  1.50000000E+00  8.00000000E-01  8.00000000E-01
  1.50000000E+00  1.50000000E+00  8.00000000E-01  8.00000000E-01  1.50000000E+00
  1.50000000E+00  8.00000000E-01  8.00000000E-01  1.50000000E+00  1.50000000E+00
  8.00000000E-01  8.00000000E-01  1.50000000E+00  1.50000000E+00  8.00000000E-01
  8.00000000E-01  1.50000000E+00  1.50000000E+00  8.00000000E-01  8.00000000E-01
  1.50000000E+00  1.50000000E+00  8.00000000E-01  8.00000000E-01  1.50000000E+00
  1.50000000E+00  8.00000000E-01  8.00000000E-01  1.50000000E+00  1.50000000E+00
  8.00000000E-01  8.00000000E-01  1.50000000E+00  1.50000000E+00  8.00000000E-01
  8.00000000E-01  1.50000000E+00  1.50000000E+00  8.00000000E-01  8.00000000E-01
  1.50000000E+00  1.50000000E+00  8.00000000E-01  8.00000000E-01  1.50000000E+00
  1.50000000E+00  8.00000000E-01  8.00000000E-01  1.50000000E+00  1.50000000E+00
  8.00000000E-01  8.00000000E-01  1.50000000E+00  1.50000000E+00  8.00000000E-01
  8.00000000E-01  1.50000000E+00  1.50000000E+00  8.00000000E-01  8.00000000E-01
  1.50000000E+00  1.50000000E+00  8.00000000E-01  8.00000000E-01  1.50000000E+00
  1.50000000E+00  8.00000000E-01  8.00000000E-01  1.50000000E+00  1.50000000E+00
  8.00000000E-01  8.00000000E-01  1.50000000E+00  1.50000000E+00  8.00000000E-01
  8.00000000E-01  1.50000000E+00  1.50000000E+00  8.00000000E-01  8.00000000E-01
  1.50000000E+00  1.50000000E+00  8.00000000E-01  8.00000000E-01  1.50000000E+00
  1.50000000E+00  8.00000000E-01  8.00000000E-01  1.50000000E+00  1.50000000E+00
  8.00000000E-01  8.00000000E-01  1.50000000E+00  1.50000000E+00  8.00000000E-01
  8.00000000E-01  1.50000000E+00  1.50000000E+00  8.00000000E-01  8.00000000E-01
  1.50000000E+00  1.50000000E+00  8.00000000E-01  8.00000000E-01  1.50000000E+00
  1.50000000E+00  8.00000000E-01  8.00000000E-01  1.50000000E+00  1.50000000E+00
  8.00000000E-01  8.00000000E-01  1.50000000E+00  1.50000000E+00  8.00000000E-01
  8.00000000E-01  1.50000000E+00  1.50000000E+00  8.00000000E-01  8.00000000E-01
  1.50000000E+00  1.50000000E+00  8.00000000E-01  8.00000000E-01  1.50000000E+00
  1.50000000E+00  8.00000000E-01  8.00000000E-01  1.50000000E+00  1.50000000E+00
  8.00000000E-01  8.00000000E-01  1.50000000E+00  1.50000000E+00  8.00000000E-01
  8.00000000E-01  1.50000000E+00  1.50000000E+00  8.00000000E-01  8.00000000E-01
  1.50000000E+00  1.50000000E+00  8.00000000E-01  8.00000000E-01  1.50000000E+00
  1.50000000E+00  8.00000000E-01  8.00000000E-01  1.50000000E+00  1.50000000E+00
  8.00000000E-01  8.00000000E-01  1.50000000E+00  1.50000000E+00  8.00000000E-01
  8.00000000E-01  1.50000000E+00  1.50000000E+00  8.00000000E-01  8.00000000E-01
  1.50000000E+00  1.50000000E+00  8.00000000E-01  8.00000000E-01  1.50000000E+00
  1.50000000E+00  8.00000000E-01  8.00000000E-01  1.50000000E+00  1.50000000E+00
  8.00000000E-01  8.00000000E-01  1.50000000E+00  1.50000000E+00  8.00000000E-01
  8.00000000E-01  1.50000000E+00  1.50000000E+00  8.00000000E-01  8.00000000E-01
  1.50000000E+00  1.50000000E+00  8.00000000E-01  8.00000000E-01  1.50000000E+00
  1.50000000E+00  8.00000000E-01  8.00000000E-01  1.50000000E+00  1.50000000E+00
  8.00000000E-01  8.00000000E-01  1.50000000E+00  1.50000000E+00  8.00000000E-01
  8.00000000E-01  1.50000000E+00  1.50000000E+00  8.00000000E-01  8.00000000E-01
  1.50000000E+00  1.50000000E+00  8.00000000E-01  8.00000000E-01  1.50000000E+00
  1.50000000E+00  8.00000000E-01  8.00000000E-01  1.50000000E+00  1.50000000E+00
  8.00000000E-01  8.00000000E-01  1.50000000E+00  1.50000000E+00  8.00000000E-01
  8.00000000E-01  1.50000000E+00  1.50000000E+00  8.00000000E-01  8.00000000E-01
  1.50000000E+00  1.50000000E+00  8.00000000E-01  8.00000000E-01  1.50000000E+00
  1.50000000E+00  8.00000000E-01  8.00000000E-01  1.50000000E+00  1.50000000E+00
  8.00000000E-01  8.00000000E-01  1.50000000E+00  1.50000000E+00  8.00000000E-01
  8.00000000E-01  1.50000000E+00  1.50000000E+00  8.00000000E-01  8.00000000E-01
  1.50000000E+00  1.50000000E+00  8.00000000E-01  8.00000000E-01  1.50000000E+00
  1.50000000E+00  8.00000000E-01  8.00000000E-01  1.50000000E+00  1.50000000E+00
  8.00000000E-01  8.00000000E-01  1.50000000E+00  1.50000000E+00  8.00000000E-01
  8.00000000E-01  1.50000000E+00  1.50000000E+00  8.00000000E-01  8.00000000E-01
  1.50000000E+00  1.50000000E+00  8.00000000E-01  8.00000000E-01  1.50000000E+00
  1.50000000E+00  8.00000000E-01  8.00000000E-01  1.50000000E+00  1.50000000E+00
  8.00000000E-01  8.00000000E-01  1.50000000E+00  1.50000000E+00  8.00000000E-01
  8.00000000E-01  1.50000000E+00  1.50000000E+00  8.00000000E-01  8.00000000E-01
  1.50000000E+00  1.50000000E+00  8.00000000E-01  8.00000000E-01  1.50000000E+00
  1.50000000E+00  8.00000000E-01  8.00000000E-01  1.50000000E+00  1.50000000E+00
  8.00000000E-01  8.00000000E-01  1.50000000E+00  1.50000000E+00  8.00000000E-01
  8.00000000E-01  1.50000000E+00  1.50000000E+00  8.00000000E-01  8.00000000E-01
  1.50000000E+00  1.50000000E+00  8.00000000E-01  8.00000000E-01  1.50000000E+00
  1.50000000E+00  8.00000000E-01  8.00000000E-01  1.50000000E+00  1.50000000E+00
  8.00000000E-01  8.00000000E-01  1.50000000E+00  1.50000000E+00  8.00000000E-01
  8.00000000E-01  1.50000000E+00  1.50000000E+00  8.00000000E-01  8.00000000E-01
  1.50000000E+00  1.50000000E+00  8.00000000E-01  8.00000000E-01  1.50000000E+00
  1.50000000E+00  8.00000000E-01  8.00000000E-01  1.50000000E+00  1.50000000E+00
  8.00000000E-01  8.00000000E-01  1.50000000E+00  1.50000000E+00  8.00000000E-01
  8.00000000E-01  1.50000000E+00  1.50000000E+00  8.00000000E-01  8.00000000E-01
  1.50000000E+00  1.50000000E+00  8.00000000E-01  8.00000000E-01  1.50000000E+00
  1.50000000E+00  8.00000000E-01  8.00000000E-01  1.50000000E+00  1.50000000E+00
  8.00000000E-01  8.00000000E-01  1.50000000E+00  1.50000000E+00  8.00000000E-01
  8.00000000E-01  1.50000000E+00  1.50000000E+00  8.00000000E-01  8.00000000E-01
  1.50000000E+00  1.50000000E+00  8.00000000E-01  8.00000000E-01  1.50000000E+00
  1.50000000E+00  8.00000000E-01  8.00000000E-01  1.50000000E+00  1.50000000E+00
  8.00000000E-01  8.00000000E-01  1.50000000E+00  1.50000000E+00  8.00000000E-01
  8.00000000E-01  1.50000000E+00  1.50000000E+00  8.00000000E-01  8.00000000E-01
  1.50000000E+00  1.50000000E+00  8.00000000E-01  8.00000000E-01  1.50000000E+00
  1.50000000E+00  8.00000000E-01  8.00000000E-01  1.50000000E+00  1.50000000E+00
  8.00000000E-01  8.00000000E-01  1.50000000E+00  1.50000000E+00  8.00000000E-01
  8.00000000E-01  1.50000000E+00  1.50000000E+00  8.00000000E-01  8.00000000E-01
  1.50000000E+00  1.50000000E+00  8.00000000E-01  8.00000000E-01  1.50000000E+00
  1.50000000E+00  8.00000000E-01  8.00000000E-01  1.50000000E+00  1.50000000E+00
  8.00000000E-01  8.00000000E-01  1.50000000E+00  1.50000000E+00  8.00000000E-01
  8.00000000E-01  1.50000000E+00  1.50000000E+00  8.00000000E-01  8.00000000E-01
  1.50000000E+00  1.50000000E+00  8.00000000E-01  8.00000000E-01  1.50000000E+00
  1.50000000E+00  8.00000000E-01  8.00000000E-01  1.50000000E+00  1.50000000E+00
  8.00000000E-01  8.00000000E-01  1.50000000E+00  1.50000000E+00  8.00000000E-01
  8.00000000E-01  1.50000000E+00  1.50000000E+00  8.00000000E-01  8.00000000E-01
  1.50000000E+00  1.50000000E+00  8.00000000E-01  8.00000000E-01  1.50000000E+00
  1.50000000E+00  8.00000000E-01  8.00000000E-01  1.50000000E+00  1.50000000E+00
  8.00000000E-01  8.00000000E-01  1.50000000E+00  1.50000000E+00  8.00000000E-01
  8.00000000E-01  1.50000000E+00  1.50000000E+00  8.00000000E-01  8.00000000E-01
  1.50000000E+00  1.50000000E+00  8.00000000E-01  8.00000000E-01  1.50000000E+00
  1.50000000E+00  8.00000000E-01  8.00000000E-01  1.50000000E+00  1.50000000E+00
  8.00000000E-01  8.00000000E-01  1.50000000E+00  1.50000000E+00  8.00000000E-01
  8.00000000E-01  1.50000000E+00  1.50000000E+00  8.00000000E-01  8.00000000E-01
  1.50000000E+00  1.50000000E+00  8.00000000E-01  8.00000000E-01  1.50000000E+00
  1.50000000E+00  8.00000000E-01  8.00000000E-01  1.50000000E+00  1.50000000E+00
  8.00000000E-01  8.00000000E-01  1.50000000E+00  1.50000000E+00  8.00000000E-01
  8.00000000E-01  1.50000000E+00  1.50000000E+00  8.00000000E-01  8.00000000E-01
  1.50000000E+00  1.50000000E+00  8.00000000E-01  8.00000000E-01  1.50000000E+00
  1.50000000E+00  8.00000000E-01  8.00000000E-01  1.50000000E+00  1.50000000E+00
  8.00000000E-01  8.00000000E-01  1.50000000E+00  1.50000000E+00  8.00000000E-01
  8.00000000E-01  1.50000000E+00  1.50000000E+00  8.00000000E-01  8.00000000E-01
  1.50000000E+00  1.50000000E+00  8.00000000E-01  8.00000000E-01  1.50000000E+00
  1.50000000E+00  8.00000000E-01  8.00000000E-01  1.50000000E+00  1.50000000E+00
  8.00000000E-01  8.00000000E-01  1.50000000E+00  1.50000000E+00  8.00000000E-01
  8.00000000E-01  1.50000000E+00  1.50000000E+00  8.00000000E-01  8.00000000E-01
  1.50000000E+00  1.50000000E+00  8.00000000E-01  8.00000000E-01  1.50000000E+00
  1.50000000E+00  8.00000000E-01  8.00000000E-01  1.50000000E+00  1.50000000E+00
  8.00000000E-01  8.00000000E-01  1.50000000E+00  1.50000000E+00  8.00000000E-01
  8.00000000E-01  1.50000000E+00  1.50000000E+00  8.00000000E-01  8.00000000E-01
  1.50000000E+00  1.50000000E+00  8.00000000E-01  8.00000000E-01  1.50000000E+00
  1.50000000E+00  8.00000000E-01  8.00000000E-01  1.50000000E+00  1.50000000E+00
  8.00000000E-01  8.00000000E-01  1.50000000E+00  1.50000000E+00  8.00000000E-01
  8.00000000E-01  1.50000000E+00  1.50000000E+00  8.00000000E-01  8.00000000E-01
  1.50000000E+00  1.50000000E+00  8.00000000E-01  8.00000000E-01  1.50000000E+00
  1.50000000E+00  8.00000000E-01  8.00000000E-01  1.50000000E+00  1.50000000E+00
  8.00000000E-01  8.00000000E-01  1.50000000E+00  1.50000000E+00  8.00000000E-01
  8.00000000E-01  1.50000000E+00  1.50000000E+00  8.00000000E-01  8.00000000E-01
  1.50000000E+00  1.50000000E+00  8.00000000E-01  8.00000000E-01  1.50000000E+00
  1.50000000E+00  8.00000000E-01  8.00000000E-01  1.50000000E+00  1.50000000E+00
  8.00000000E-01  8.00000000E-01  1.50000000E+00  1.50000000E+00  8.00000000E-01
  8.00000000E-01  1.50000000E+00  1.50000000E+00  8.00000000E-01  8.00000000E-01
  1.50000000E+00  1.50000000E+00  8.00000000E-01  8.00000000E-01  1.50000000E+00
  1.50000000E+00  8.00000000E-01  8.00000000E-01  1.50000000E+00  1.50000000E+00
  8.00000000E-01  8.00000000E-01  1.50000000E+00  1.50000000E+00  8.00000000E-01
  8.00000000E-01  1.50000000E+00  1.50000000E+00  8.00000000E-01  8.00000000E-01
  1.50000000E+00  1.50000000E+00  8.00000000E-01  8.00000000E-01  1.50000000E+00
  1.50000000E+00  8.00000000E-01  8.00000000E-01  1.50000000E+00  1.50000000E+00
  8.00000000E-01  8.00000000E-01  1.50000000E+00  1.50000000E+00  8.00000000E-01
  8.00000000E-01  1.50000000E+00  1.50000000E+00  8.00000000E-01  8.00000000E-01
  1.50000000E+00  1.50000000E+00  8.00000000E-01  8.00000000E-01  1.50000000E+00
  1.50000000E+00  8.00000000E-01  8.00000000E-01  1.50000000E+00  1.50000000E+00
  8.00000000E-01  8.00000000E-01  1.50000000E+00  1.50000000E+00  8.00000000E-01
  8.00000000E-01  1.50000000E+00  1.50000000E+00  8.00000000E-01  8.00000000E-01
  1.50000000E+00  1.50000000E+00  8.00000000E-01  8.00000000E-01  1.50000000E+00
  1.50000000E+00  8.00000000E-01  8.00000000E-01  1.50000000E+00  1.50000000E+00
  8.00000000E-01  8.00000000E-01  1.50000000E+00  1.50000000E+00  8.00000000E-01
  8.00000000E-01  1.50000000E+00  1.50000000E+00  8.00000000E-01  8.00000000E-01
  1.50000000E+00  1.50000000E+00  8.00000000E-01  8.00000000E-01  1.50000000E+00
  1.50000000E+00  8.00000000E-01  8.00000000E-01  1.50000000E+00  1.50000000E+00
  8.00000000E-01  8.00000000E-01  1.50000000E+00  1.50000000E+00  8.00000000E-01
  8.00000000E-01  1.50000000E+00  1.50000000E+00  8.00000000E-01  8.00000000E-01
  1.50000000E+00  1.50000000E+00  8.00000000E-01  8.00000000E-01  1.50000000E+00
  1.50000000E+00  8.00000000E-01  8.00000000E-01  1.50000000E+00  1.50000000E+00
  8.00000000E-01  8.00000000E-01  1.50000000E+00  1.50000000E+00  8.00000000E-01
  8.00000000E-01  1.50000000E+00  1.50000000E+00  8.00000000E-01  8.00000000E-01
  1.50000000E+00  1.50000000E+00  8.00000000E-01  8.00000000E-01  1.50000000E+00
  1.50000000E+00  8.00000000E-01  8.00000000E-01  1.50000000E+00  1.50000000E+00
  8.00000000E-01  8.00000000E-01  1.50000000E+00  1.50000000E+00  8.00000000E-01
  8.00000000E-01  1.50000000E+00  1.50000000E+00  8.00000000E-01  8.00000000E-01
  1.50000000E+00  1.50000000E+00  8.00000000E-01  8.00000000E-01  1.50000000E+00
  1.50000000E+00  8.00000000E-01  8.00000000E-01  1.50000000E+00  1.50000000E+00
  8.00000000E-01  8.00000000E-01  1.50000000E+00  1.50000000E+00  8.00000000E-01
  8.00000000E-01  1.50000000E+00  1.50000000E+00  8.00000000E-01  8.00000000E-01
  1.50000000E+00  1.50000000E+00  8.00000000E-01  8.00000000E-01  1.50000000E+00
  1.50000000E+00  8.00000000E-01  8.00000000E-01  1.50000000E+00  1.50000000E+00
  8.00000000E-01  8.00000000E-01  1.50000000E+00  1.50000000E+00  8.00000000E-01
  8.00000000E-01  1.50000000E+00  1.50000000E+00  8.00000000E-01  8.00000000E-01
  1.50000000E+00  1.50000000E+00  8.00000000E-01  8.00000000E-01  1.50000000E+00
  1.50000000E+00  8.00000000E-01  8.00000000E-01  1.50000000E+00  1.50000000E+00
  8.00000000E-01  8.00000000E-01  1.50000000E+00  1.50000000E+00  8.00000000E-01
  8.00000000E-01  1.50000000E+00  1.50000000E+00  8.00000000E-01  8.00000000E-01
  1.50000000E+00  1.50000000E+00  8.00000000E-01  8.00000000E-01  1.50000000E+00
  1.50000000E+00  8.00000000E-01  8.00000000E-01  1.50000000E+00  1.50000000E+00
  8.00000000E-01  8.00000000E-01  1.50000000E+00  1.50000000E+00  8.00000000E-01
  8.00000000E-01  1.50000000E+00  1.50000000E+00  8.00000000E-01  8.00000000E-01
  1.50000000E+00  1.50000000E+00  8.00000000E-01  8.00000000E-01  1.50000000E+00
  1.50000000E+00  8.00000000E-01  8.00000000E-01  1.50000000E+00  1.50000000E+00
  8.00000000E-01  8.00000000E-01  1.50000000E+00  1.50000000E+00  8.00000000E-01
  8.00000000E-01  1.50000000E+00  1.50000000E+00  8.00000000E-01  8.00000000E-01
  1.50000000E+00  1.50000000E+00  8.00000000E-01  8.00000000E-01  1.50000000E+00
  1.50000000E+00  8.00000000E-01  8.00000000E-01  1.50000000E+00  1.50000000E+00
  8.00000000E-01  8.00000000E-01  1.50000000E+00  1.50000000E+00  8.00000000E-01
  8.00000000E-01  1.50000000E+00  1.50000000E+00  8.00000000E-01  8.00000000E-01
  1.50000000E+00  1.50000000E+00  8.00000000E-01  8.00000000E-01  1.50000000E+00
  1.50000000E+00  8.00000000E-01  8.00000000E-01  1.50000000E+00  1.50000000E+00
  8.00000000E-01  8.00000000E-01  1.50000000E+00  1.50000000E+00  8.00000000E-01
  8.00000000E-01  1.50000000E+00  1.50000000E+00  8.00000000E-01  8.00000000E-01
  1.50000000E+00  1.50000000E+00  8.00000000E-01  8.00000000E-01  1.50000000E+00
  1.50000000E+00  8.00000000E-01  8.00000000E-01  1.50000000E+00  1.50000000E+00
  8.00000000E-01  8.00000000E-01  1.50000000E+00  1.50000000E+00  8.00000000E-01
  8.00000000E-01  1.50000000E+00  1.50000000E+00  8.00000000E-01  8.00000000E-01
  1.50000000E+00  1.50000000E+00  8.00000000E-01  8.00000000E-01  1.50000000E+00
  1.50000000E+00  8.00000000E-01  8.00000000E-01  1.50000000E+00  1.50000000E+00
  8.00000000E-01  8.00000000E-01  1.50000000E+00  1.50000000E+00  8.00000000E-01
  8.00000000E-01  1.50000000E+00  1.50000000E+00  8.00000000E-01  8.00000000E-01
  1.50000000E+00  1.50000000E+00  8.00000000E-01  8.00000000E-01  1.50000000E+00
  1.50000000E+00  8.00000000E-01  8.00000000E-01  1.50000000E+00  1.50000000E+00
  8.00000000E-01  8.00000000E-01  1.50000000E+00  1.50000000E+00  8.00000000E-01
  8.00000000E-01  1.50000000E+00  1.50000000E+00  8.00000000E-01  8.00000000E-01
  1.50000000E+00  1.50000000E+00  8.00000000E-01  8.00000000E-01  1.50000000E+00
  1.50000000E+00  8.00000000E-01  8.00000000E-01  1.50000000E+00  1.50000000E+00
  8.00000000E-01  8.00000000E-01  1.50000000E+00  1.50000000E+00  8.00000000E-01
  8.00000000E-01  1.50000000E+00  1.50000000E+00  8.00000000E-01  8.00000000E-01
  1.50000000E+00  1.50000000E+00  8.00000000E-01  8.00000000E-01  1.50000000E+00
  1.50000000E+00  8.00000000E-01  8.00000000E-01  1.50000000E+00  1.50000000E+00
  8.00000000E-01  8.00000000E-01  1.50000000E+00  1.50000000E+00  8.00000000E-01
  8.00000000E-01  1.50000000E+00  1.50000000E+00  8.00000000E-01  8.00000000E-01
  1.50000000E+00  1.50000000E+00  8.00000000E-01  8.00000000E-01  1.50000000E+00
  1.50000000E+00  8.00000000E-01  8.00000000E-01  1.50000000E+00  1.50000000E+00
  8.00000000E-01  8.00000000E-01  1.50000000E+00  1.50000000E+00  8.00000000E-01
  8.00000000E-01  1.50000000E+00  1.50000000E+00  8.00000000E-01  8.00000000E-01
  1.50000000E+00  1.50000000E+00  8.00000000E-01  8.00000000E-01  1.50000000E+00
  1.50000000E+00  8.00000000E-01  8.00000000E-01  1.50000000E+00  1.50000000E+00
  8.00000000E-01  8.00000000E-01  1.50000000E+00  1.50000000E+00  8.00000000E-01
  8.00000000E-01  1.50000000E+00  1.50000000E+00  8.00000000E-01  8.00000000E-01
  1.50000000E+00  1.50000000E+00  8.00000000E-01  8.00000000E-01  1.50000000E+00
  1.50000000E+00  8.00000000E-01  8.00000000E-01  1.50000000E+00  1.50000000E+00
  8.00000000E-01  8.00000000E-01  1.50000000E+00  1.50000000E+00  8.00000000E-01
  8.00000000E-01  1.50000000E+00  1.50000000E+00  8.00000000E-01  8.00000000E-01
  1.50000000E+00  1.50000000E+00  8.00000000E-01  8.00000000E-01  1.50000000E+00
  1.50000000E+00  8.00000000E-01  8.00000000E-01  1.50000000E+00  1.50000000E+00
  8.00000000E-01  8.00000000E-01  1.50000000E+00  1.50000000E+00  8.00000000E-01
  8.00000000E-01  1.50000000E+00  1.50000000E+00  8.00000000E-01  8.00000000E-01
  1.50000000E+00  1.50000000E+00  8.00000000E-01  8.00000000E-01  1.50000000E+00
  1.50000000E+00  8.00000000E-01  8.00000000E-01  1.50000000E+00  1.50000000E+00
  8.00000000E-01  8.00000000E-01  1.50000000E+00  1.50000000E+00  8.00000000E-01
  8.00000000E-01  1.50000000E+00  1.50000000E+00  8.00000000E-01  8.00000000E-01
  1.50000000E+00  1.50000000E+00  8.00000000E-01  8.00000000E-01  1.50000000E+00
  1.50000000E+00  8.00000000E-01  8.00000000E-01  1.50000000E+00  1.50000000E+00
  8.00000000E-01  8.00000000E-01  1.50000000E+00  1.50000000E+00  8.00000000E-01
  8.00000000E-01  1.50000000E+00  1.50000000E+00  8.00000000E-01  8.00000000E-01
  1.50000000E+00  1.50000000E+00  8.00000000E-01  8.00000000E-01  1.50000000E+00
  1.50000000E+00  8.00000000E-01  8.00000000E-01  1.50000000E+00  1.50000000E+00
  8.00000000E-01  8.00000000E-01  1.50000000E+00  1.50000000E+00  8.00000000E-01
  8.00000000E-01  1.50000000E+00  1.50000000E+00  8.00000000E-01  8.00000000E-01
  1.50000000E+00  1.50000000E+00  8.00000000E-01  8.00000000E-01  1.50000000E+00
  1.50000000E+00  8.00000000E-01  8.00000000E-01  1.50000000E+00  1.50000000E+00
  8.00000000E-01  8.00000000E-01  1.50000000E+00  1.50000000E+00  8.00000000E-01
  8.00000000E-01  1.50000000E+00  1.50000000E+00  8.00000000E-01  8.00000000E-01
  1.50000000E+00  1.50000000E+00  8.00000000E-01  8.00000000E-01  1.50000000E+00
  1.50000000E+00  8.00000000E-01  8.00000000E-01  1.50000000E+00  1.50000000E+00
  8.00000000E-01  8.00000000E-01  1.50000000E+00  1.50000000E+00  8.00000000E-01
  8.00000000E-01  1.50000000E+00  1.50000000E+00  8.00000000E-01  8.00000000E-01
  1.50000000E+00  1.50000000E+00  8.00000000E-01  8.00000000E-01  1.50000000E+00
  1.50000000E+00  8.00000000E-01  8.00000000E-01  1.50000000E+00  1.50000000E+00
  8.00000000E-01  8.00000000E-01  1.50000000E+00  1.50000000E+00  8.00000000E-01
  8.00000000E-01  1.50000000E+00  1.50000000E+00  8.00000000E-01  8.00000000E-01
  1.50000000E+00  1.50000000E+00  8.00000000E-01  8.00000000E-01  1.50000000E+00
  1.50000000E+00  8.00000000E-01  8.00000000E-01  1.50000000E+00  1.50000000E+00
  8.00000000E-01  8.00000000E-01  1.50000000E+00  1.50000000E+00  8.00000000E-01
  8.00000000E-01  1.50000000E+00  1.50000000E+00  8.00000000E-01  8.00000000E-01
  1.50000000E+00  1.50000000E+00  8.00000000E-01  8.00000000E-01  1.50000000E+00
  1.50000000E+00  8.00000000E-01  8.00000000E-01  1.50000000E+00  1.50000000E+00
  8.00000000E-01  8.00000000E-01  1.50000000E+00  1.50000000E+00  8.00000000E-01
  8.00000000E-01  1.50000000E+00  1.50000000E+00  8.00000000E-01  8.00000000E-01
  1.50000000E+00  1.50000000E+00  8.00000000E-01  8.00000000E-01  1.50000000E+00
  1.50000000E+00  8.00000000E-01  8.00000000E-01  1.50000000E+00  1.50000000E+00
  8.00000000E-01  8.00000000E-01  1.50000000E+00  1.50000000E+00  8.00000000E-01
  8.00000000E-01  1.50000000E+00  1.50000000E+00  8.00000000E-01  8.00000000E-01
  1.50000000E+00  1.50000000E+00  8.00000000E-01  8.00000000E-01  1.50000000E+00
  1.50000000E+00  8.00000000E-01  8.00000000E-01  1.50000000E+00  1.50000000E+00
  8.00000000E-01  8.00000000E-01  1.50000000E+00  1.50000000E+00  8.00000000E-01
  8.00000000E-01  1.50000000E+00  1.50000000E+00  8.00000000E-01  8.00000000E-01
  1.50000000E+00  1.50000000E+00  8.00000000E-01  8.00000000E-01  1.50000000E+00
  1.50000000E+00  8.00000000E-01  8.00000000E-01  1.50000000E+00  1.50000000E+00
  8.00000000E-01  8.00000000E-01  1.50000000E+00  1.50000000E+00  8.00000000E-01
  8.00000000E-01  1.50000000E+00  1.50000000E+00  8.00000000E-01  8.00000000E-01
  1.50000000E+00  1.50000000E+00  8.00000000E-01  8.00000000E-01  1.50000000E+00
  1.50000000E+00  8.00000000E-01  8.00000000E-01  1.50000000E+00  1.50000000E+00
  8.00000000E-01  8.00000000E-01  1.50000000E+00  1.50000000E+00  8.00000000E-01
  8.00000000E-01  1.50000000E+00  1.50000000E+00  8.00000000E-01  8.00000000E-01
  1.50000000E+00  1.50000000E+00  8.00000000E-01  8.00000000E-01  1.50000000E+00
  1.50000000E+00  8.00000000E-01  8.00000000E-01  1.50000000E+00  1.50000000E+00
  8.00000000E-01  8.00000000E-01  1.50000000E+00  1.50000000E+00  8.00000000E-01
  8.00000000E-01  1.50000000E+00  1.50000000E+00  8.00000000E-01  8.00000000E-01
  1.50000000E+00  1.50000000E+00  8.00000000E-01  8.00000000E-01  1.50000000E+00
  1.50000000E+00  8.00000000E-01  8.00000000E-01  1.50000000E+00  1.50000000E+00
  8.00000000E-01  8.00000000E-01  1.50000000E+00  1.50000000E+00  8.00000000E-01
  8.00000000E-01  1.50000000E+00  1.50000000E+00  8.00000000E-01  8.00000000E-01
  1.50000000E+00  1.50000000E+00  8.00000000E-01  8.00000000E-01  1.50000000E+00
  1.50000000E+00  8.00000000E-01  8.00000000E-01  1.50000000E+00  1.50000000E+00
  8.00000000E-01  8.00000000E-01  1.50000000E+00  1.50000000E+00  8.00000000E-01
  8.00000000E-01  1.50000000E+00  1.50000000E+00  8.00000000E-01  8.00000000E-01
  1.50000000E+00  1.50000000E+00  8.00000000E-01  8.00000000E-01  1.50000000E+00
  1.50000000E+00  8.00000000E-01  8.00000000E-01  1.50000000E+00  1.50000000E+00
  8.00000000E-01  8.00000000E-01  1.50000000E+00  1.50000000E+00  8.00000000E-01
  8.00000000E-01  1.50000000E+00  1.50000000E+00  8.00000000E-01  8.00000000E-01
  1.50000000E+00  1.50000000E+00  8.00000000E-01  8.00000000E-01  1.50000000E+00
  1.50000000E+00  8.00000000E-01  8.00000000E-01  1.50000000E+00  1.50000000E+00
  8.00000000E-01  8.00000000E-01  1.50000000E+00  1.50000000E+00  8.00000000E-01
  8.00000000E-01  1.50000000E+00  1.50000000E+00  8.00000000E-01  8.00000000E-01
  1.50000000E+00  1.50000000E+00  8.00000000E-01  8.00000000E-01  1.50000000E+00
  1.50000000E+00  8.00000000E-01  8.00000000E-01  1.50000000E+00  1.50000000E+00
  8.00000000E-01  8.00000000E-01  1.50000000E+00  1.50000000E+00  8.00000000E-01
  8.00000000E-01  1.50000000E+00  1.50000000E+00  8.00000000E-01  8.00000000E-01
  1.50000000E+00  1.50000000E+00  8.00000000E-01  8.00000000E-01  1.50000000E+00
  1.50000000E+00  8.00000000E-01  8.00000000E-01  1.50000000E+00  1.50000000E+00
  8.00000000E-01  8.00000000E-01  1.50000000E+00  1.50000000E+00  8.00000000E-01
  8.00000000E-01  1.50000000E+00  1.50000000E+00  8.00000000E-01  8.00000000E-01
  1.50000000E+00  1.50000000E+00  8.00000000E-01  8.00000000E-01  1.50000000E+00
  1.50000000E+00  8.00000000E-01  8.00000000E-01  1.50000000E+00  1.50000000E+00
  8.00000000E-01  8.00000000E-01  1.50000000E+00  1.50000000E+00  8.00000000E-01
  8.00000000E-01  1.50000000E+00  1.50000000E+00  8.00000000E-01  8.00000000E-01
  1.50000000E+00  1.50000000E+00  8.00000000E-01  8.00000000E-01  1.50000000E+00
  1.50000000E+00  8.00000000E-01  8.00000000E-01  1.50000000E+00  1.50000000E+00
  8.00000000E-01  8.00000000E-01  1.50000000E+00  1.50000000E+00  8.00000000E-01
  8.00000000E-01  1.50000000E+00  1.50000000E+00  8.00000000E-01  8.00000000E-01
  1.50000000E+00  1.50000000E+00  8.00000000E-01  8.00000000E-01  1.50000000E+00
  1.50000000E+00  8.00000000E-01  8.00000000E-01  1.50000000E+00  1.50000000E+00
  8.00000000E-01  8.00000000E-01  1.50000000E+00  1.50000000E+00  8.00000000E-01
  8.00000000E-01  1.50000000E+00  1.50000000E+00  8.00000000E-01  8.00000000E-01
  1.50000000E+00  1.50000000E+00  8.00000000E-01  8.00000000E-01  1.50000000E+00
  1.50000000E+00  8.00000000E-01  8.00000000E-01  1.50000000E+00  1.50000000E+00
  8.00000000E-01  8.00000000E-01  1.50000000E+00  1.50000000E+00  8.00000000E-01
  8.00000000E-01  1.50000000E+00  1.50000000E+00  8.00000000E-01  8.00000000E-01
  1.50000000E+00  1.50000000E+00  8.00000000E-01  8.00000000E-01  1.50000000E+00
  1.50000000E+00  8.00000000E-01  8.00000000E-01  1.50000000E+00  1.50000000E+00
  8.00000000E-01  8.00000000E-01  1.50000000E+00  1.50000000E+00  8.00000000E-01
  8.00000000E-01  1.50000000E+00  1.50000000E+00  8.00000000E-01  8.00000000E-01
  1.50000000E+00  1.50000000E+00  8.00000000E-01  8.00000000E-01  1.50000000E+00
  1.50000000E+00  8.00000000E-01  8.00000000E-01  1.50000000E+00  1.50000000E+00
  8.00000000E-01  8.00000000E-01  1.50000000E+00  1.50000000E+00  8.00000000E-01
  8.00000000E-01  1.50000000E+00  1.50000000E+00  8.00000000E-01  8.00000000E-01
  1.50000000E+00  1.50000000E+00  8.00000000E-01  8.00000000E-01  1.50000000E+00
  1.50000000E+00  8.00000000E-01  8.00000000E-01  1.50000000E+00  1.50000000E+00
  8.00000000E-01  8.00000000E-01  1.50000000E+00  1.50000000E+00  8.00000000E-01
  8.00000000E-01  1.50000000E+00  1.50000000E+00  8.00000000E-01  8.00000000E-01
  1.50000000E+00  1.50000000E+00  8.00000000E-01  8.00000000E-01  1.50000000E+00
  1.50000000E+00  8.00000000E-01  8.00000000E-01  1.50000000E+00  1.50000000E+00
  8.00000000E-01  8.00000000E-01  1.50000000E+00  1.50000000E+00  8.00000000E-01
  8.00000000E-01  1.50000000E+00  1.50000000E+00  8.00000000E-01  8.00000000E-01
  1.50000000E+00  1.50000000E+00  8.00000000E-01  8.00000000E-01  1.50000000E+00
  1.50000000E+00  8.00000000E-01  8.00000000E-01  1.50000000E+00  1.50000000E+00
  8.00000000E-01  8.00000000E-01  1.50000000E+00  1.50000000E+00  8.00000000E-01
  8.00000000E-01  1.50000000E+00  1.50000000E+00  8.00000000E-01  8.00000000E-01
  1.50000000E+00  1.50000000E+00  8.00000000E-01  8.00000000E-01  1.50000000E+00
  1.50000000E+00  8.00000000E-01  8.00000000E-01  1.50000000E+00  1.50000000E+00
  8.00000000E-01  8.00000000E-01  1.50000000E+00  1.50000000E+00  8.00000000E-01
  8.00000000E-01  1.50000000E+00  1.50000000E+00  8.00000000E-01  8.00000000E-01
  1.50000000E+00  1.50000000E+00  8.00000000E-01  8.00000000E-01  1.50000000E+00
  1.50000000E+00  8.00000000E-01  8.00000000E-01  1.50000000E+00  1.50000000E+00
  8.00000000E-01  8.00000000E-01  1.50000000E+00  1.50000000E+00  8.00000000E-01
  8.00000000E-01  1.50000000E+00  1.50000000E+00  8.00000000E-01  8.00000000E-01
  1.50000000E+00  1.50000000E+00  8.00000000E-01  8.00000000E-01  1.50000000E+00
  1.50000000E+00  8.00000000E-01  8.00000000E-01  1.50000000E+00  1.50000000E+00
  8.00000000E-01  8.00000000E-01  1.50000000E+00  1.50000000E+00  8.00000000E-01
  8.00000000E-01  1.50000000E+00  1.50000000E+00  8.00000000E-01  8.00000000E-01
  1.50000000E+00  1.50000000E+00  8.00000000E-01  8.00000000E-01  1.50000000E+00
  1.50000000E+00  8.00000000E-01  8.00000000E-01  1.50000000E+00  1.50000000E+00
  8.00000000E-01  8.00000000E-01  1.50000000E+00  1.50000000E+00  8.00000000E-01
  8.00000000E-01  1.50000000E+00  1.50000000E+00  8.00000000E-01  8.00000000E-01
  1.50000000E+00  1.50000000E+00  8.00000000E-01  8.00000000E-01  1.50000000E+00
  1.50000000E+00  8.00000000E-01  8.00000000E-01  1.50000000E+00  1.50000000E+00
  8.00000000E-01  8.00000000E-01  1.50000000E+00  1.50000000E+00  8.00000000E-01
  8.00000000E-01  1.50000000E+00  1.50000000E+00  8.00000000E-01  8.00000000E-01
  1.50000000E+00  1.50000000E+00  8.00000000E-01  8.00000000E-01  1.50000000E+00
  1.50000000E+00  8.00000000E-01  8.00000000E-01  1.50000000E+00  1.50000000E+00
  8.00000000E-01  8.00000000E-01  1.50000000E+00  1.50000000E+00  8.00000000E-01
  8.00000000E-01  1.50000000E+00  1.50000000E+00  8.00000000E-01  8.00000000E-01
  1.50000000E+00  1.50000000E+00  8.00000000E-01  8.00000000E-01  1.50000000E+00
  1.50000000E+00  8.00000000E-01  8.00000000E-01  1.50000000E+00  1.50000000E+00
  8.00000000E-01  8.00000000E-01  1.50000000E+00  1.50000000E+00  8.00000000E-01
  8.00000000E-01  1.50000000E+00  1.50000000E+00  8.00000000E-01  8.00000000E-01
  1.50000000E+00  1.50000000E+00  8.00000000E-01  8.00000000E-01  1.50000000E+00
  1.50000000E+00  8.00000000E-01  8.00000000E-01  1.50000000E+00  1.50000000E+00
  8.00000000E-01  8.00000000E-01  1.50000000E+00  1.50000000E+00  8.00000000E-01
  8.00000000E-01  1.50000000E+00  1.50000000E+00  8.00000000E-01  8.00000000E-01
  1.50000000E+00  1.50000000E+00  8.00000000E-01  8.00000000E-01  1.50000000E+00
  1.50000000E+00  8.00000000E-01  8.00000000E-01  1.50000000E+00  1.50000000E+00
  8.00000000E-01  8.00000000E-01  1.50000000E+00  1.50000000E+00  8.00000000E-01
  8.00000000E-01  1.50000000E+00  1.50000000E+00  8.00000000E-01  8.00000000E-01
  1.50000000E+00  1.50000000E+00  8.00000000E-01  8.00000000E-01  1.50000000E+00
  1.50000000E+00  8.00000000E-01  8.00000000E-01  1.50000000E+00  1.50000000E+00
  8.00000000E-01  8.00000000E-01  1.50000000E+00  1.50000000E+00  8.00000000E-01
  8.00000000E-01  1.50000000E+00  1.50000000E+00  8.00000000E-01  8.00000000E-01
  1.50000000E+00  1.50000000E+00  8.00000000E-01  8.00000000E-01  1.50000000E+00
  1.50000000E+00  8.00000000E-01  8.00000000E-01  1.50000000E+00  1.50000000E+00
  8.00000000E-01  8.00000000E-01  1.50000000E+00  1.50000000E+00  8.00000000E-01
  8.00000000E-01  1.50000000E+00  1.50000000E+00  8.00000000E-01  8.00000000E-01
  1.50000000E+00  1.50000000E+00  8.00000000E-01  8.00000000E-01  1.50000000E+00
  1.50000000E+00  8.00000000E-01  8.00000000E-01  1.50000000E+00  1.50000000E+00
  8.00000000E-01  8.00000000E-01  1.50000000E+00  1.50000000E+00  8.00000000E-01
  8.00000000E-01  1.50000000E+00  1.50000000E+00  8.00000000E-01  8.00000000E-01
  1.50000000E+00  1.50000000E+00  8.00000000E-01  8.00000000E-01  1.50000000E+00
  1.50000000E+00  8.00000000E-01  8.00000000E-01  1.50000000E+00  1.50000000E+00
  8.00000000E-01  8.00000000E-01  1.50000000E+00  1.50000000E+00  8.00000000E-01
  8.00000000E-01  1.50000000E+00  1.50000000E+00  8.00000000E-01  8.00000000E-01
  1.50000000E+00  1.50000000E+00  8.00000000E-01  8.00000000E-01  1.50000000E+00
  1.50000000E+00  8.00000000E-01  8.00000000E-01  1.50000000E+00  1.50000000E+00
  8.00000000E-01  8.00000000E-01  1.50000000E+00  1.50000000E+00  8.00000000E-01
  8.00000000E-01  1.50000000E+00  1.50000000E+00  8.00000000E-01  8.00000000E-01
  1.50000000E+00  1.50000000E+00  8.00000000E-01  8.00000000E-01  1.50000000E+00
  1.50000000E+00  8.00000000E-01  8.00000000E-01  1.50000000E+00  1.50000000E+00
  8.00000000E-01  8.00000000E-01  1.50000000E+00  1.50000000E+00  8.00000000E-01
  8.00000000E-01  1.50000000E+00  1.50000000E+00  8.00000000E-01  8.00000000E-01
  1.50000000E+00  1.50000000E+00  8.00000000E-01  8.00000000E-01  1.50000000E+00
  1.50000000E+00  8.00000000E-01  8.00000000E-01  1.50000000E+00  1.50000000E+00
  8.00000000E-01  8.00000000E-01  1.50000000E+00  1.50000000E+00  8.00000000E-01
  8.00000000E-01  1.50000000E+00  1.50000000E+00  8.00000000E-01  8.00000000E-01
  1.50000000E+00  1.50000000E+00  8.00000000E-01  8.00000000E-01  1.50000000E+00
  1.50000000E+00  8.00000000E-01  8.00000000E-01  1.50000000E+00  1.50000000E+00
  8.00000000E-01  8.00000000E-01  1.50000000E+00  1.50000000E+00  8.00000000E-01
  8.00000000E-01  1.50000000E+00  1.50000000E+00  8.00000000E-01  8.00000000E-01
  1.50000000E+00  1.50000000E+00  8.00000000E-01  8.00000000E-01  1.50000000E+00
  1.50000000E+00  8.00000000E-01  8.00000000E-01  1.50000000E+00  1.50000000E+00
  8.00000000E-01  8.00000000E-01  1.50000000E+00  1.50000000E+00  8.00000000E-01
  8.00000000E-01  1.50000000E+00  1.50000000E+00  8.00000000E-01  8.00000000E-01
  1.50000000E+00  1.50000000E+00  8.00000000E-01  8.00000000E-01  1.50000000E+00
  1.50000000E+00  8.00000000E-01  8.00000000E-01  1.50000000E+00  1.50000000E+00
  8.00000000E-01  8.00000000E-01  1.50000000E+00  1.50000000E+00  8.00000000E-01
  8.00000000E-01  1.50000000E+00  1.50000000E+00  8.00000000E-01  8.00000000E-01
  1.50000000E+00  1.50000000E+00  8.00000000E-01  8.00000000E-01  1.50000000E+00
  1.50000000E+00  8.00000000E-01  8.00000000E-01  1.50000000E+00  1.50000000E+00
  8.00000000E-01  8.00000000E-01  1.50000000E+00  1.50000000E+00  8.00000000E-01
  8.00000000E-01  1.50000000E+00  1.50000000E+00  8.00000000E-01  8.00000000E-01
  1.50000000E+00  1.50000000E+00  8.00000000E-01  8.00000000E-01  1.50000000E+00
  1.50000000E+00  8.00000000E-01  8.00000000E-01  1.50000000E+00  1.50000000E+00
  8.00000000E-01  8.00000000E-01  1.50000000E+00  1.50000000E+00  8.00000000E-01
  8.00000000E-01  1.50000000E+00  1.50000000E+00  8.00000000E-01  8.00000000E-01
  1.50000000E+00  1.50000000E+00  8.00000000E-01  8.00000000E-01  1.50000000E+00
  1.50000000E+00  8.00000000E-01  8.00000000E-01  1.50000000E+00  1.50000000E+00
  8.00000000E-01  8.00000000E-01  1.50000000E+00  1.50000000E+00  8.00000000E-01
  8.00000000E-01  1.50000000E+00  1.50000000E+00  8.00000000E-01  8.00000000E-01
  1.50000000E+00  1.50000000E+00  8.00000000E-01  8.00000000E-01  1.50000000E+00
  1.50000000E+00  8.00000000E-01  8.00000000E-01  1.50000000E+00  1.50000000E+00
  8.00000000E-01  8.00000000E-01  1.50000000E+00  1.50000000E+00  8.00000000E-01
  8.00000000E-01  1.50000000E+00  1.50000000E+00  8.00000000E-01  8.00000000E-01
  1.50000000E+00  1.50000000E+00  8.00000000E-01  8.00000000E-01  1.50000000E+00
  1.50000000E+00  8.00000000E-01  8.00000000E-01  1.50000000E+00  1.50000000E+00
  8.00000000E-01  8.00000000E-01  1.50000000E+00  1.50000000E+00  8.00000000E-01
  8.00000000E-01  1.50000000E+00  1.50000000E+00  8.00000000E-01  8.00000000E-01
  1.50000000E+00  1.50000000E+00  8.00000000E-01  8.00000000E-01  1.50000000E+00
  1.50000000E+00  8.00000000E-01  8.00000000E-01  1.50000000E+00  1.50000000E+00
  8.00000000E-01  8.00000000E-01  1.50000000E+00  1.50000000E+00  8.00000000E-01
  8.00000000E-01  1.50000000E+00  1.50000000E+00  8.00000000E-01  8.00000000E-01
  1.50000000E+00  1.50000000E+00  8.00000000E-01  8.00000000E-01  1.50000000E+00
  1.50000000E+00  8.00000000E-01  8.00000000E-01  1.50000000E+00  1.50000000E+00
  8.00000000E-01  8.00000000E-01  1.50000000E+00  1.50000000E+00  8.00000000E-01
  8.00000000E-01  1.50000000E+00  1.50000000E+00  8.00000000E-01  8.00000000E-01
  1.50000000E+00  1.50000000E+00  8.00000000E-01  8.00000000E-01  1.50000000E+00
  1.50000000E+00  8.00000000E-01  8.00000000E-01  1.50000000E+00  1.50000000E+00
  8.00000000E-01  8.00000000E-01  1.50000000E+00  1.50000000E+00  8.00000000E-01
  8.00000000E-01  1.50000000E+00  1.50000000E+00  8.00000000E-01  8.00000000E-01
  1.50000000E+00  1.50000000E+00  8.00000000E-01  8.00000000E-01  1.50000000E+00
  1.50000000E+00  8.00000000E-01  8.00000000E-01  1.50000000E+00  1.50000000E+00
  8.00000000E-01  8.00000000E-01  1.50000000E+00  1.50000000E+00  8.00000000E-01
  8.00000000E-01  1.50000000E+00  1.50000000E+00  8.00000000E-01  8.00000000E-01
  1.50000000E+00  1.50000000E+00  8.00000000E-01  8.00000000E-01  1.50000000E+00
  1.50000000E+00  8.00000000E-01  8.00000000E-01  1.50000000E+00  1.50000000E+00
  8.00000000E-01  8.00000000E-01  1.50000000E+00  1.50000000E+00  8.00000000E-01
  8.00000000E-01  1.50000000E+00  1.50000000E+00  8.00000000E-01  8.00000000E-01
  1.50000000E+00  1.50000000E+00  8.00000000E-01  8.00000000E-01  1.50000000E+00
  1.50000000E+00  8.00000000E-01  8.00000000E-01  1.50000000E+00  1.50000000E+00
  8.00000000E-01  8.00000000E-01  1.50000000E+00  1.50000000E+00  8.00000000E-01
  8.00000000E-01  1.50000000E+00  1.50000000E+00  8.00000000E-01  8.00000000E-01
  1.50000000E+00  1.50000000E+00  8.00000000E-01  8.00000000E-01  1.50000000E+00
  1.50000000E+00  8.00000000E-01  8.00000000E-01  1.50000000E+00  1.50000000E+00
  8.00000000E-01  8.00000000E-01  1.50000000E+00  1.50000000E+00  8.00000000E-01
  8.00000000E-01  1.50000000E+00  1.50000000E+00  8.00000000E-01  8.00000000E-01
  1.50000000E+00  1.50000000E+00  8.00000000E-01  8.00000000E-01  1.50000000E+00
  1.50000000E+00  8.00000000E-01  8.00000000E-01  1.50000000E+00  1.50000000E+00
  8.00000000E-01  8.00000000E-01  1.50000000E+00  1.50000000E+00  8.00000000E-01
  8.00000000E-01  1.50000000E+00  1.50000000E+00  8.00000000E-01  8.00000000E-01
  1.50000000E+00  1.50000000E+00  8.00000000E-01  8.00000000E-01  1.50000000E+00
  1.50000000E+00  8.00000000E-01  8.00000000E-01  1.50000000E+00  1.50000000E+00
  8.00000000E-01  8.00000000E-01  1.50000000E+00  1.50000000E+00  8.00000000E-01
  8.00000000E-01  1.50000000E+00  1.50000000E+00  8.00000000E-01  8.00000000E-01
  1.50000000E+00  1.50000000E+00  8.00000000E-01  8.00000000E-01  1.50000000E+00
  1.50000000E+00  8.00000000E-01  8.00000000E-01  1.50000000E+00  1.50000000E+00
  8.00000000E-01  8.00000000E-01  1.50000000E+00  1.50000000E+00  8.00000000E-01
  8.00000000E-01  1.50000000E+00  1.50000000E+00  8.00000000E-01  8.00000000E-01
  1.50000000E+00  1.50000000E+00  8.00000000E-01  8.00000000E-01  1.50000000E+00
  1.50000000E+00  8.00000000E-01  8.00000000E-01  1.50000000E+00  1.50000000E+00
  8.00000000E-01  8.00000000E-01  1.50000000E+00  1.50000000E+00  8.00000000E-01
  8.00000000E-01  1.50000000E+00  1.50000000E+00  8.00000000E-01  8.00000000E-01
  1.50000000E+00  1.50000000E+00  8.00000000E-01  8.00000000E-01  1.50000000E+00
  1.50000000E+00  8.00000000E-01  8.00000000E-01  1.50000000E+00  1.50000000E+00
  8.00000000E-01  8.00000000E-01  1.50000000E+00  1.50000000E+00  8.00000000E-01
  8.00000000E-01  1.50000000E+00  1.50000000E+00  8.00000000E-01  8.00000000E-01
  1.50000000E+00  1.50000000E+00  8.00000000E-01  8.00000000E-01  1.50000000E+00
  1.50000000E+00  8.00000000E-01  8.00000000E-01  1.50000000E+00  1.50000000E+00
  8.00000000E-01  8.00000000E-01  1.50000000E+00  1.50000000E+00  8.00000000E-01
  8.00000000E-01  1.50000000E+00  1.50000000E+00  8.00000000E-01  8.00000000E-01
  1.50000000E+00  1.50000000E+00  8.00000000E-01  8.00000000E-01  1.50000000E+00
  1.50000000E+00  8.00000000E-01  8.00000000E-01  1.50000000E+00  1.50000000E+00
  8.00000000E-01  8.00000000E-01  1.50000000E+00  1.50000000E+00  8.00000000E-01
  8.00000000E-01  1.50000000E+00  1.50000000E+00  8.00000000E-01  8.00000000E-01
  1.50000000E+00  1.50000000E+00  8.00000000E-01  8.00000000E-01  1.50000000E+00
  1.50000000E+00  8.00000000E-01  8.00000000E-01  1.50000000E+00  1.50000000E+00
  8.00000000E-01  8.00000000E-01  1.50000000E+00  1.50000000E+00  8.00000000E-01
  8.00000000E-01  1.50000000E+00  1.50000000E+00  8.00000000E-01  8.00000000E-01
  1.50000000E+00  1.50000000E+00  8.00000000E-01  8.00000000E-01  1.50000000E+00
  1.50000000E+00  8.00000000E-01  8.00000000E-01  1.50000000E+00  1.50000000E+00
  8.00000000E-01  8.00000000E-01  1.50000000E+00  1.50000000E+00  8.00000000E-01
  8.00000000E-01  1.50000000E+00  1.50000000E+00  8.00000000E-01  8.00000000E-01
  1.50000000E+00  1.50000000E+00  8.00000000E-01  8.00000000E-01  1.50000000E+00
  1.50000000E+00  8.00000000E-01  8.00000000E-01  1.50000000E+00  1.50000000E+00
  8.00000000E-01  8.00000000E-01  1.50000000E+00  1.50000000E+00  8.00000000E-01
  8.00000000E-01  1.50000000E+00  1.50000000E+00  8.00000000E-01  8.00000000E-01
  1.50000000E+00  1.50000000E+00  8.00000000E-01  8.00000000E-01  1.50000000E+00
  1.50000000E+00  8.00000000E-01  8.00000000E-01  1.50000000E+00  1.50000000E+00
  8.00000000E-01  8.00000000E-01  1.50000000E+00  1.50000000E+00  8.00000000E-01
  8.00000000E-01  1.50000000E+00  1.50000000E+00  8.00000000E-01  8.00000000E-01
  1.50000000E+00  1.50000000E+00  8.00000000E-01  8.00000000E-01  1.50000000E+00
  1.50000000E+00  8.00000000E-01  8.00000000E-01  1.50000000E+00  1.50000000E+00
  8.00000000E-01  8.00000000E-01  1.50000000E+00  1.50000000E+00  8.00000000E-01
  8.00000000E-01  1.50000000E+00  1.50000000E+00  8.00000000E-01  8.00000000E-01
  1.50000000E+00  1.50000000E+00  8.00000000E-01  8.00000000E-01  1.50000000E+00
  1.50000000E+00  8.00000000E-01  8.00000000E-01  1.50000000E+00  1.50000000E+00
  8.00000000E-01  8.00000000E-01  1.50000000E+00  1.50000000E+00  8.00000000E-01
  8.00000000E-01  1.50000000E+00  1.50000000E+00  8.00000000E-01  8.00000000E-01
  1.50000000E+00  1.50000000E+00  8.00000000E-01  8.00000000E-01  1.50000000E+00
  1.50000000E+00  8.00000000E-01  8.00000000E-01  1.50000000E+00  1.50000000E+00
  8.00000000E-01  8.00000000E-01  1.50000000E+00  1.50000000E+00  8.00000000E-01
  8.00000000E-01  1.50000000E+00  1.50000000E+00  8.00000000E-01  8.00000000E-01
  1.50000000E+00  1.50000000E+00  8.00000000E-01  8.00000000E-01  1.50000000E+00
  1.50000000E+00  8.00000000E-01  8.00000000E-01  1.50000000E+00  1.50000000E+00
  8.00000000E-01  8.00000000E-01  1.50000000E+00  1.50000000E+00  8.00000000E-01
  8.00000000E-01  1.50000000E+00  1.50000000E+00  8.00000000E-01  8.00000000E-01
  1.50000000E+00  1.50000000E+00  8.00000000E-01  8.00000000E-01  1.50000000E+00
  1.50000000E+00  8.00000000E-01  8.00000000E-01  1.50000000E+00  1.50000000E+00
  8.00000000E-01  8.00000000E-01  1.50000000E+00  1.50000000E+00  8.00000000E-01
  8.00000000E-01  1.50000000E+00  1.50000000E+00  8.00000000E-01  8.00000000E-01
  1.50000000E+00  1.50000000E+00  8.00000000E-01  8.00000000E-01  1.50000000E+00
  1.50000000E+00  8.00000000E-01  8.00000000E-01  1.50000000E+00  1.50000000E+00
  8.00000000E-01  8.00000000E-01  1.50000000E+00  1.50000000E+00  8.00000000E-01
  8.00000000E-01  1.50000000E+00  1.50000000E+00  8.00000000E-01  8.00000000E-01
  1.50000000E+00  1.50000000E+00  8.00000000E-01  8.00000000E-01  1.50000000E+00
  1.50000000E+00  8.00000000E-01  8.00000000E-01  1.50000000E+00  1.50000000E+00
  8.00000000E-01  8.00000000E-01  1.50000000E+00  1.50000000E+00  8.00000000E-01
  8.00000000E-01  1.50000000E+00  1.50000000E+00  8.00000000E-01  8.00000000E-01
  1.50000000E+00  1.50000000E+00  8.00000000E-01  8.00000000E-01  1.50000000E+00
  1.50000000E+00  8.00000000E-01  8.00000000E-01  1.50000000E+00  1.50000000E+00
  8.00000000E-01  8.00000000E-01  1.50000000E+00  1.50000000E+00  8.00000000E-01
  8.00000000E-01  1.50000000E+00  1.50000000E+00  8.00000000E-01  8.00000000E-01
  1.50000000E+00  1.50000000E+00  8.00000000E-01  8.00000000E-01  1.50000000E+00
  1.50000000E+00  8.00000000E-01  8.00000000E-01  1.50000000E+00  1.50000000E+00
  8.00000000E-01  8.00000000E-01  1.50000000E+00  1.50000000E+00  8.00000000E-01
  8.00000000E-01  1.50000000E+00  1.50000000E+00  8.00000000E-01  8.00000000E-01
  1.50000000E+00  1.50000000E+00  8.00000000E-01  8.00000000E-01  1.50000000E+00
  1.50000000E+00  8.00000000E-01  8.00000000E-01  1.50000000E+00  1.50000000E+00
  8.00000000E-01  8.00000000E-01  1.50000000E+00  1.50000000E+00  8.00000000E-01
  8.00000000E-01  1.50000000E+00  1.50000000E+00  8.00000000E-01  8.00000000E-01
  1.50000000E+00  1.50000000E+00  8.00000000E-01  8.00000000E-01  1.50000000E+00
  1.50000000E+00  8.00000000E-01  8.00000000E-01  1.50000000E+00  1.50000000E+00
  8.00000000E-01  8.00000000E-01  1.50000000E+00  1.50000000E+00  8.00000000E-01
  8.00000000E-01  1.50000000E+00  1.50000000E+00  8.00000000E-01  8.00000000E-01
  1.50000000E+00  1.50000000E+00  8.00000000E-01  8.00000000E-01  1.50000000E+00
  1.50000000E+00  8.00000000E-01  8.00000000E-01  1.50000000E+00  1.50000000E+00
  8.00000000E-01  8.00000000E-01  1.50000000E+00  1.50000000E+00  8.00000000E-01
  8.00000000E-01  1.50000000E+00  1.50000000E+00  8.00000000E-01  8.00000000E-01
  1.50000000E+00  1.50000000E+00  8.00000000E-01  8.00000000E-01  1.50000000E+00
  1.50000000E+00  8.00000000E-01  8.00000000E-01  1.50000000E+00  1.50000000E+00
  8.00000000E-01  8.00000000E-01  1.50000000E+00  1.50000000E+00  8.00000000E-01
  8.00000000E-01  1.50000000E+00  1.50000000E+00  8.00000000E-01  8.00000000E-01
  1.50000000E+00  1.50000000E+00  8.00000000E-01  8.00000000E-01  1.50000000E+00
  1.50000000E+00  8.00000000E-01  8.00000000E-01  1.50000000E+00  1.50000000E+00
  8.00000000E-01  8.00000000E-01  1.50000000E+00  1.50000000E+00  8.00000000E-01
  8.00000000E-01  1.50000000E+00  1.50000000E+00  8.00000000E-01  8.00000000E-01
  1.50000000E+00  1.50000000E+00  8.00000000E-01  8.00000000E-01  1.50000000E+00
  1.50000000E+00  8.00000000E-01  8.00000000E-01  1.50000000E+00  1.50000000E+00
  8.00000000E-01  8.00000000E-01  1.50000000E+00  1.50000000E+00  8.00000000E-01
  8.00000000E-01  1.50000000E+00  1.50000000E+00  8.00000000E-01  8.00000000E-01
  1.50000000E+00  1.50000000E+00  8.00000000E-01  8.00000000E-01  1.50000000E+00
  1.50000000E+00  8.00000000E-01  8.00000000E-01  1.50000000E+00  1.50000000E+00
  8.00000000E-01  8.00000000E-01  1.50000000E+00  1.50000000E+00  8.00000000E-01
  8.00000000E-01  1.50000000E+00  1.50000000E+00  8.00000000E-01  8.00000000E-01
  1.50000000E+00  1.50000000E+00  8.00000000E-01  8.00000000E-01  1.50000000E+00
  1.50000000E+00  8.00000000E-01  8.00000000E-01  1.50000000E+00  1.50000000E+00
  8.00000000E-01  8.00000000E-01  1.50000000E+00  1.50000000E+00  8.00000000E-01
  8.00000000E-01  1.50000000E+00  1.50000000E+00  8.00000000E-01  8.00000000E-01
  1.50000000E+00  1.50000000E+00  8.00000000E-01  8.00000000E-01  1.50000000E+00
  1.50000000E+00  8.00000000E-01  8.00000000E-01  1.50000000E+00  1.50000000E+00
  8.00000000E-01  8.00000000E-01  1.50000000E+00  1.50000000E+00  8.00000000E-01
  8.00000000E-01  1.50000000E+00  1.50000000E+00  8.00000000E-01  8.00000000E-01
  1.50000000E+00  1.50000000E+00  8.00000000E-01  8.00000000E-01  1.50000000E+00
  1.50000000E+00  8.00000000E-01  8.00000000E-01  1.50000000E+00  1.50000000E+00
  8.00000000E-01  8.00000000E-01  1.50000000E+00  1.50000000E+00  8.00000000E-01
  8.00000000E-01  1.50000000E+00  1.50000000E+00  8.00000000E-01  8.00000000E-01
  1.50000000E+00  1.50000000E+00  8.00000000E-01  8.00000000E-01  1.50000000E+00
  1.50000000E+00  8.00000000E-01  8.00000000E-01  1.50000000E+00  1.50000000E+00
  8.00000000E-01  8.00000000E-01  1.50000000E+00  1.50000000E+00  8.00000000E-01
  8.00000000E-01  1.50000000E+00  1.50000000E+00  8.00000000E-01  8.00000000E-01
  1.50000000E+00  1.50000000E+00  8.00000000E-01  8.00000000E-01  1.50000000E+00
  1.50000000E+00  8.00000000E-01  8.00000000E-01  1.50000000E+00  1.50000000E+00
  8.00000000E-01  8.00000000E-01  1.50000000E+00  1.50000000E+00  8.00000000E-01
  8.00000000E-01  1.50000000E+00  1.50000000E+00  8.00000000E-01  8.00000000E-01
  1.50000000E+00  1.50000000E+00  8.00000000E-01  8.00000000E-01  1.50000000E+00
  1.50000000E+00  8.00000000E-01  8.00000000E-01  1.50000000E+00  1.50000000E+00
  8.00000000E-01  8.00000000E-01  1.50000000E+00  1.50000000E+00  8.00000000E-01
  8.00000000E-01  1.50000000E+00  1.50000000E+00  8.00000000E-01  8.00000000E-01
  1.50000000E+00  1.50000000E+00  8.00000000E-01  8.00000000E-01  1.50000000E+00
  1.50000000E+00  8.00000000E-01  8.00000000E-01  1.50000000E+00  1.50000000E+00
  8.00000000E-01  8.00000000E-01  1.50000000E+00  1.50000000E+00  8.00000000E-01
  8.00000000E-01  1.50000000E+00  1.50000000E+00  8.00000000E-01  8.00000000E-01
  1.50000000E+00  1.50000000E+00  8.00000000E-01  8.00000000E-01  1.50000000E+00
  1.50000000E+00  8.00000000E-01  8.00000000E-01  1.50000000E+00  1.50000000E+00
  8.00000000E-01  8.00000000E-01  1.50000000E+00  1.50000000E+00  8.00000000E-01
  8.00000000E-01  1.50000000E+00  1.50000000E+00  8.00000000E-01  8.00000000E-01
  1.50000000E+00  1.50000000E+00  8.00000000E-01  8.00000000E-01  1.50000000E+00
  1.50000000E+00  8.00000000E-01  8.00000000E-01  1.50000000E+00  1.50000000E+00
  8.00000000E-01  8.00000000E-01  1.50000000E+00  1.50000000E+00  8.00000000E-01
  8.00000000E-01  1.50000000E+00  1.50000000E+00  8.00000000E-01  8.00000000E-01
  1.50000000E+00  1.50000000E+00  8.00000000E-01  8.00000000E-01  1.50000000E+00
  1.50000000E+00  8.00000000E-01  8.00000000E-01  1.50000000E+00  1.50000000E+00
  8.00000000E-01  8.00000000E-01  1.50000000E+00  1.50000000E+00  8.00000000E-01
  8.00000000E-01  1.50000000E+00  1.50000000E+00  8.00000000E-01  8.00000000E-01
  1.50000000E+00  1.50000000E+00  8.00000000E-01  8.00000000E-01  1.50000000E+00
  1.50000000E+00  8.00000000E-01  8.00000000E-01  1.50000000E+00  1.50000000E+00
  8.00000000E-01  8.00000000E-01  1.50000000E+00  1.50000000E+00  8.00000000E-01
  8.00000000E-01  1.50000000E+00  1.50000000E+00  8.00000000E-01  8.00000000E-01
  1.50000000E+00  1.50000000E+00  8.00000000E-01  8.00000000E-01  1.50000000E+00
  1.50000000E+00  8.00000000E-01  8.00000000E-01  1.50000000E+00  1.50000000E+00
  8.00000000E-01  8.00000000E-01  1.50000000E+00  1.50000000E+00  8.00000000E-01
  8.00000000E-01  1.50000000E+00  1.50000000E+00  8.00000000E-01  8.00000000E-01
  1.50000000E+00  1.50000000E+00  8.00000000E-01  8.00000000E-01  1.50000000E+00
  1.50000000E+00  8.00000000E-01  8.00000000E-01  1.50000000E+00  1.50000000E+00
  8.00000000E-01  8.00000000E-01  1.50000000E+00  1.50000000E+00  8.00000000E-01
  8.00000000E-01  1.50000000E+00  1.50000000E+00  8.00000000E-01  8.00000000E-01
  1.50000000E+00  1.50000000E+00  8.00000000E-01  8.00000000E-01  1.50000000E+00
  1.50000000E+00  8.00000000E-01  8.00000000E-01  1.50000000E+00  1.50000000E+00
  8.00000000E-01  8.00000000E-01  1.50000000E+00  1.50000000E+00  8.00000000E-01
  8.00000000E-01  1.50000000E+00  1.50000000E+00  8.00000000E-01  8.00000000E-01
  1.50000000E+00  1.50000000E+00  8.00000000E-01  8.00000000E-01  1.50000000E+00
  1.50000000E+00  8.00000000E-01  8.00000000E-01  1.50000000E+00  1.50000000E+00
  8.00000000E-01  8.00000000E-01  1.50000000E+00  1.50000000E+00  8.00000000E-01
  8.00000000E-01  1.50000000E+00  1.50000000E+00  8.00000000E-01  8.00000000E-01
  1.50000000E+00  1.50000000E+00  8.00000000E-01  8.00000000E-01  1.50000000E+00
  1.50000000E+00  8.00000000E-01  8.00000000E-01  1.50000000E+00  1.50000000E+00
  8.00000000E-01  8.00000000E-01  1.50000000E+00  1.50000000E+00  8.00000000E-01
  8.00000000E-01  1.50000000E+00  1.50000000E+00  8.00000000E-01  8.00000000E-01
  1.50000000E+00  1.50000000E+00  8.00000000E-01  8.00000000E-01  1.50000000E+00
  1.50000000E+00  8.00000000E-01  8.00000000E-01  1.50000000E+00  1.50000000E+00
  8.00000000E-01  8.00000000E-01  1.50000000E+00  1.50000000E+00  8.00000000E-01
  8.00000000E-01  1.50000000E+00  1.50000000E+00  8.00000000E-01  8.00000000E-01
  1.50000000E+00  1.50000000E+00  8.00000000E-01  8.00000000E-01  1.50000000E+00
  1.50000000E+00  8.00000000E-01  8.00000000E-01  1.50000000E+00  1.50000000E+00
  8.00000000E-01  8.00000000E-01  1.50000000E+00  1.50000000E+00  8.00000000E-01
  8.00000000E-01  1.50000000E+00  1.50000000E+00  8.00000000E-01  8.00000000E-01
  1.50000000E+00  1.50000000E+00  8.00000000E-01  8.00000000E-01  1.50000000E+00
  1.50000000E+00  8.00000000E-01  8.00000000E-01  1.50000000E+00  1.50000000E+00
  8.00000000E-01  8.00000000E-01  1.50000000E+00  1.50000000E+00  8.00000000E-01
  8.00000000E-01  1.50000000E+00  1.50000000E+00  8.00000000E-01  8.00000000E-01
  1.50000000E+00  1.50000000E+00  8.00000000E-01  8.00000000E-01  1.50000000E+00
  1.50000000E+00  8.00000000E-01  8.00000000E-01  1.50000000E+00  1.50000000E+00
  8.00000000E-01  8.00000000E-01  1.50000000E+00  1.50000000E+00  8.00000000E-01
  8.00000000E-01  1.50000000E+00  1.50000000E+00  8.00000000E-01  8.00000000E-01
  1.50000000E+00  1.50000000E+00  8.00000000E-01  8.00000000E-01  1.50000000E+00
  1.50000000E+00  8.00000000E-01  8.00000000E-01  1.50000000E+00  1.50000000E+00
  8.00000000E-01  8.00000000E-01  1.50000000E+00  1.50000000E+00  8.00000000E-01
  8.00000000E-01  1.50000000E+00  1.50000000E+00  8.00000000E-01  8.00000000E-01
  1.50000000E+00  1.50000000E+00  8.00000000E-01  8.00000000E-01  1.50000000E+00
  1.50000000E+00  8.00000000E-01  8.00000000E-01  1.50000000E+00  1.50000000E+00
  8.00000000E-01  8.00000000E-01  1.50000000E+00  1.50000000E+00  8.00000000E-01
  8.00000000E-01  1.50000000E+00  1.50000000E+00  8.00000000E-01  8.00000000E-01
  1.50000000E+00  1.50000000E+00  8.00000000E-01  8.00000000E-01  1.50000000E+00
  1.50000000E+00  8.00000000E-01  8.00000000E-01  1.50000000E+00  1.50000000E+00
  8.00000000E-01  8.00000000E-01  1.50000000E+00  1.50000000E+00  8.00000000E-01
  8.00000000E-01  1.50000000E+00  1.50000000E+00  8.00000000E-01  8.00000000E-01
  1.50000000E+00  1.50000000E+00  8.00000000E-01  8.00000000E-01  1.50000000E+00
  1.50000000E+00  8.00000000E-01  8.00000000E-01  1.50000000E+00  1.50000000E+00
  8.00000000E-01  8.00000000E-01  1.50000000E+00  1.50000000E+00  8.00000000E-01
  8.00000000E-01  1.50000000E+00  1.50000000E+00  8.00000000E-01  8.00000000E-01
  1.50000000E+00  1.50000000E+00  8.00000000E-01  8.00000000E-01  1.50000000E+00
  1.50000000E+00  8.00000000E-01  8.00000000E-01  1.50000000E+00  1.50000000E+00
  8.00000000E-01  8.00000000E-01  1.50000000E+00  1.50000000E+00  8.00000000E-01
  8.00000000E-01  1.50000000E+00  1.50000000E+00  8.00000000E-01  8.00000000E-01
  1.50000000E+00  1.50000000E+00  8.00000000E-01  8.00000000E-01  1.50000000E+00
  1.50000000E+00  8.00000000E-01  8.00000000E-01  1.50000000E+00  1.50000000E+00
  8.00000000E-01  8.00000000E-01  1.50000000E+00  1.50000000E+00  8.00000000E-01
  8.00000000E-01  1.50000000E+00  1.50000000E+00  8.00000000E-01  8.00000000E-01
  1.50000000E+00  1.50000000E+00  8.00000000E-01  8.00000000E-01  1.50000000E+00
  1.50000000E+00  8.00000000E-01  8.00000000E-01  1.50000000E+00  1.50000000E+00
  8.00000000E-01  8.00000000E-01  1.50000000E+00  1.50000000E+00  8.00000000E-01
  8.00000000E-01  1.50000000E+00  1.50000000E+00  8.00000000E-01  8.00000000E-01
  1.50000000E+00  1.50000000E+00  8.00000000E-01  8.00000000E-01  1.50000000E+00
  1.50000000E+00  8.00000000E-01  8.00000000E-01  1.50000000E+00  1.50000000E+00
  8.00000000E-01  8.00000000E-01  1.50000000E+00  1.50000000E+00  8.00000000E-01
  8.00000000E-01  1.50000000E+00  1.50000000E+00  8.00000000E-01  8.00000000E-01
  1.50000000E+00  1.50000000E+00  8.00000000E-01  8.00000000E-01  1.50000000E+00
  1.50000000E+00  8.00000000E-01  8.00000000E-01  1.50000000E+00  1.50000000E+00
  8.00000000E-01  8.00000000E-01  1.50000000E+00  1.50000000E+00  8.00000000E-01
  8.00000000E-01  1.50000000E+00  1.50000000E+00  8.00000000E-01  8.00000000E-01
  1.50000000E+00  1.50000000E+00  8.00000000E-01  8.00000000E-01  1.50000000E+00
  1.50000000E+00  8.00000000E-01  8.00000000E-01  1.50000000E+00  1.50000000E+00
  8.00000000E-01  8.00000000E-01  1.50000000E+00  1.50000000E+00  8.00000000E-01
  8.00000000E-01  1.50000000E+00  1.50000000E+00  8.00000000E-01  8.00000000E-01
  1.50000000E+00  1.50000000E+00  8.00000000E-01  8.00000000E-01  1.50000000E+00
  1.50000000E+00  8.00000000E-01  8.00000000E-01  1.50000000E+00  1.50000000E+00
  8.00000000E-01  8.00000000E-01  1.50000000E+00  1.50000000E+00  8.00000000E-01
  8.00000000E-01  1.50000000E+00  1.50000000E+00  8.00000000E-01  8.00000000E-01
  1.50000000E+00  1.50000000E+00  8.00000000E-01  8.00000000E-01  1.50000000E+00
  1.50000000E+00  8.00000000E-01  8.00000000E-01  1.50000000E+00  1.50000000E+00
  8.00000000E-01  8.00000000E-01  1.50000000E+00  1.50000000E+00  8.00000000E-01
  8.00000000E-01  1.50000000E+00  1.50000000E+00  8.00000000E-01  8.00000000E-01
  1.50000000E+00  1.50000000E+00  8.00000000E-01  8.00000000E-01  1.50000000E+00
  1.50000000E+00  8.00000000E-01  8.00000000E-01  1.50000000E+00  1.50000000E+00
  8.00000000E-01  8.00000000E-01  1.50000000E+00  1.50000000E+00  8.00000000E-01
  8.00000000E-01  1.50000000E+00  1.50000000E+00  8.00000000E-01  8.00000000E-01
  1.50000000E+00  1.50000000E+00  8.00000000E-01  8.00000000E-01  1.50000000E+00
  1.50000000E+00  8.00000000E-01  8.00000000E-01  1.50000000E+00  1.50000000E+00
  8.00000000E-01  8.00000000E-01  1.50000000E+00  1.50000000E+00  8.00000000E-01
  8.00000000E-01  1.50000000E+00  1.50000000E+00  8.00000000E-01  8.00000000E-01
  1.50000000E+00  1.50000000E+00  8.00000000E-01  8.00000000E-01  1.50000000E+00
  1.50000000E+00  8.00000000E-01  8.00000000E-01  1.50000000E+00  1.50000000E+00
  8.00000000E-01  8.00000000E-01  1.50000000E+00  1.50000000E+00  8.00000000E-01
  8.00000000E-01  1.50000000E+00  1.50000000E+00  8.00000000E-01  8.00000000E-01
  1.50000000E+00  1.50000000E+00  8.00000000E-01  8.00000000E-01  1.50000000E+00
  1.50000000E+00  8.00000000E-01  8.00000000E-01  1.50000000E+00  1.50000000E+00
  8.00000000E-01  8.00000000E-01  1.50000000E+00  1.50000000E+00  8.00000000E-01
  8.00000000E-01  1.50000000E+00  1.50000000E+00  8.00000000E-01  8.00000000E-01
  1.50000000E+00  1.50000000E+00  8.00000000E-01  8.00000000E-01  1.50000000E+00
  1.50000000E+00  8.00000000E-01  8.00000000E-01  1.50000000E+00  1.50000000E+00
  8.00000000E-01  8.00000000E-01  1.50000000E+00  1.50000000E+00  8.00000000E-01
  8.00000000E-01  1.50000000E+00  1.50000000E+00  8.00000000E-01  8.00000000E-01
  1.50000000E+00  1.50000000E+00  8.00000000E-01  8.00000000E-01  1.50000000E+00
  1.50000000E+00  8.00000000E-01  8.00000000E-01  1.50000000E+00  1.50000000E+00
  8.00000000E-01  8.00000000E-01  1.50000000E+00  1.50000000E+00  8.00000000E-01
  8.00000000E-01  1.50000000E+00  1.50000000E+00  8.00000000E-01  8.00000000E-01
  1.50000000E+00  1.50000000E+00  8.00000000E-01  8.00000000E-01  1.50000000E+00
  1.50000000E+00  8.00000000E-01  8.00000000E-01  1.50000000E+00  1.50000000E+00
  8.00000000E-01  8.00000000E-01  1.50000000E+00  1.50000000E+00  8.00000000E-01
  8.00000000E-01  1.50000000E+00  1.50000000E+00  8.00000000E-01  8.00000000E-01
  1.50000000E+00  1.50000000E+00  8.00000000E-01  8.00000000E-01  1.50000000E+00
  1.50000000E+00  8.00000000E-01  8.00000000E-01  1.50000000E+00  1.50000000E+00
  8.00000000E-01  8.00000000E-01  1.50000000E+00  1.50000000E+00  8.00000000E-01
  8.00000000E-01  1.50000000E+00  1.50000000E+00  8.00000000E-01  8.00000000E-01
  1.50000000E+00  1.50000000E+00  8.00000000E-01  8.00000000E-01  1.50000000E+00
  1.50000000E+00  8.00000000E-01  8.00000000E-01  1.50000000E+00  1.50000000E+00
  8.00000000E-01  8.00000000E-01  1.50000000E+00  1.50000000E+00  8.00000000E-01
  8.00000000E-01  1.50000000E+00  1.50000000E+00  8.00000000E-01  8.00000000E-01
  1.50000000E+00  1.50000000E+00  8.00000000E-01  8.00000000E-01  1.50000000E+00
  1.50000000E+00  8.00000000E-01  8.00000000E-01  1.50000000E+00  1.50000000E+00
  8.00000000E-01  8.00000000E-01  1.50000000E+00  1.50000000E+00  8.00000000E-01
  8.00000000E-01  1.50000000E+00  1.50000000E+00  8.00000000E-01  8.00000000E-01
  1.50000000E+00  1.50000000E+00  8.00000000E-01  8.00000000E-01  1.50000000E+00
  1.50000000E+00  8.00000000E-01  8.00000000E-01  1.50000000E+00  1.50000000E+00
  8.00000000E-01  8.00000000E-01  1.50000000E+00  1.50000000E+00  8.00000000E-01
  8.00000000E-01  1.50000000E+00  1.50000000E+00  8.00000000E-01  8.00000000E-01
  1.50000000E+00  1.50000000E+00  8.00000000E-01  8.00000000E-01  1.50000000E+00
  1.50000000E+00  8.00000000E-01  8.00000000E-01  1.50000000E+00  1.50000000E+00
  8.00000000E-01  8.00000000E-01  1.50000000E+00  1.50000000E+00  8.00000000E-01
  8.00000000E-01  1.50000000E+00  1.50000000E+00  8.00000000E-01  8.00000000E-01
  1.50000000E+00  1.50000000E+00  8.00000000E-01  8.00000000E-01  1.50000000E+00
  1.50000000E+00  8.00000000E-01  8.00000000E-01  1.50000000E+00  1.50000000E+00
  8.00000000E-01  8.00000000E-01  1.50000000E+00  1.50000000E+00  8.00000000E-01
  8.00000000E-01  1.50000000E+00  1.50000000E+00  8.00000000E-01  8.00000000E-01
  1.50000000E+00  1.50000000E+00  8.00000000E-01  8.00000000E-01  1.50000000E+00
  1.50000000E+00  8.00000000E-01  8.00000000E-01  1.50000000E+00  1.50000000E+00
  8.00000000E-01  8.00000000E-01  1.50000000E+00  1.50000000E+00  8.00000000E-01
  8.00000000E-01  1.50000000E+00  1.50000000E+00  8.00000000E-01  8.00000000E-01
  1.50000000E+00  1.50000000E+00  8.00000000E-01  8.00000000E-01  1.50000000E+00
  1.50000000E+00  8.00000000E-01  8.00000000E-01  1.50000000E+00  1.50000000E+00
  8.00000000E-01  8.00000000E-01  1.50000000E+00  1.50000000E+00  8.00000000E-01
  8.00000000E-01  1.50000000E+00  1.50000000E+00  8.00000000E-01  8.00000000E-01
  1.50000000E+00  1.50000000E+00  8.00000000E-01  8.00000000E-01  1.50000000E+00
  1.50000000E+00  8.00000000E-01  8.00000000E-01  1.50000000E+00  1.50000000E+00
  8.00000000E-01  8.00000000E-01  1.50000000E+00  1.50000000E+00  8.00000000E-01
  8.00000000E-01  1.50000000E+00  1.50000000E+00  8.00000000E-01  8.00000000E-01
  1.50000000E+00  1.50000000E+00  8.00000000E-01  8.00000000E-01  1.50000000E+00
  1.50000000E+00  8.00000000E-01  8.00000000E-01  1.50000000E+00  1.50000000E+00
  8.00000000E-01  8.00000000E-01  1.50000000E+00  1.50000000E+00  8.00000000E-01
  8.00000000E-01  1.50000000E+00  1.50000000E+00  8.00000000E-01  8.00000000E-01
  1.50000000E+00  1.50000000E+00  8.00000000E-01  8.00000000E-01  1.50000000E+00
  1.50000000E+00  8.00000000E-01  8.00000000E-01  1.50000000E+00  1.50000000E+00
  8.00000000E-01  8.00000000E-01  1.50000000E+00  1.50000000E+00  8.00000000E-01
  8.00000000E-01  1.50000000E+00  1.50000000E+00  8.00000000E-01  8.00000000E-01
  1.50000000E+00  1.50000000E+00  8.00000000E-01  8.00000000E-01  1.50000000E+00
  1.50000000E+00  8.00000000E-01  8.00000000E-01  1.50000000E+00  1.50000000E+00
  8.00000000E-01  8.00000000E-01  1.50000000E+00  1.50000000E+00  8.00000000E-01
  8.00000000E-01  1.50000000E+00  1.50000000E+00  8.00000000E-01  8.00000000E-01
  1.50000000E+00  1.50000000E+00  8.00000000E-01  8.00000000E-01  1.50000000E+00
  1.50000000E+00  8.00000000E-01  8.00000000E-01  1.50000000E+00  1.50000000E+00
  8.00000000E-01  8.00000000E-01  1.50000000E+00  1.50000000E+00  8.00000000E-01
  8.00000000E-01  1.50000000E+00  1.50000000E+00  8.00000000E-01  8.00000000E-01
  1.50000000E+00  1.50000000E+00  8.00000000E-01  8.00000000E-01  1.50000000E+00
  1.50000000E+00  8.00000000E-01  8.00000000E-01  1.50000000E+00  1.50000000E+00
  8.00000000E-01  8.00000000E-01  1.50000000E+00  1.50000000E+00  8.00000000E-01
  8.00000000E-01  1.50000000E+00  1.50000000E+00  8.00000000E-01  8.00000000E-01
  1.50000000E+00  1.50000000E+00  8.00000000E-01  8.00000000E-01  1.50000000E+00
  1.50000000E+00  8.00000000E-01  8.00000000E-01  1.50000000E+00  1.50000000E+00
  8.00000000E-01  8.00000000E-01  1.50000000E+00  1.50000000E+00  8.00000000E-01
  8.00000000E-01  1.50000000E+00  1.50000000E+00  8.00000000E-01  8.00000000E-01
  1.50000000E+00  1.50000000E+00  8.00000000E-01  8.00000000E-01  1.50000000E+00
  1.50000000E+00  8.00000000E-01  8.00000000E-01  1.50000000E+00  1.50000000E+00
  8.00000000E-01  8.00000000E-01  1.50000000E+00  1.50000000E+00  8.00000000E-01
  8.00000000E-01  1.50000000E+00  1.50000000E+00  8.00000000E-01  8.00000000E-01
  1.50000000E+00  1.50000000E+00  8.00000000E-01  8.00000000E-01  1.50000000E+00
  1.50000000E+00  8.00000000E-01  8.00000000E-01  1.50000000E+00  1.50000000E+00
  8.00000000E-01  8.00000000E-01  1.50000000E+00  1.50000000E+00  8.00000000E-01
  8.00000000E-01  1.50000000E+00  1.50000000E+00  8.00000000E-01  8.00000000E-01
  1.50000000E+00  1.50000000E+00  8.00000000E-01  8.00000000E-01  1.50000000E+00
  1.50000000E+00  8.00000000E-01  8.00000000E-01  1.50000000E+00  1.50000000E+00
  8.00000000E-01  8.00000000E-01  1.50000000E+00  1.50000000E+00  8.00000000E-01
  8.00000000E-01  1.50000000E+00  1.50000000E+00  8.00000000E-01  8.00000000E-01
  1.50000000E+00  1.50000000E+00  8.00000000E-01  8.00000000E-01  1.50000000E+00
  1.50000000E+00  8.00000000E-01  8.00000000E-01  1.50000000E+00  1.50000000E+00
  8.00000000E-01  8.00000000E-01  1.50000000E+00  1.50000000E+00  8.00000000E-01
  8.00000000E-01  1.50000000E+00  1.50000000E+00  8.00000000E-01  8.00000000E-01
  1.50000000E+00  1.50000000E+00  8.00000000E-01  8.00000000E-01  1.50000000E+00
  1.50000000E+00  8.00000000E-01  8.00000000E-01  1.50000000E+00  1.50000000E+00
  8.00000000E-01  8.00000000E-01  1.50000000E+00  1.50000000E+00  8.00000000E-01
  8.00000000E-01  1.50000000E+00  1.50000000E+00  8.00000000E-01  8.00000000E-01
  1.50000000E+00  1.50000000E+00  8.00000000E-01  8.00000000E-01  1.50000000E+00
  1.50000000E+00  8.00000000E-01  8.00000000E-01  1.50000000E+00  1.50000000E+00
  8.00000000E-01  8.00000000E-01  1.50000000E+00  1.50000000E+00  8.00000000E-01
  8.00000000E-01  1.50000000E+00  1.50000000E+00  8.00000000E-01  8.00000000E-01
  1.50000000E+00  1.50000000E+00  8.00000000E-01  8.00000000E-01  1.50000000E+00
  1.50000000E+00  8.00000000E-01  8.00000000E-01  1.50000000E+00  1.50000000E+00
  8.00000000E-01  8.00000000E-01  1.50000000E+00  1.50000000E+00  8.00000000E-01
  8.00000000E-01  1.50000000E+00  1.50000000E+00  8.00000000E-01  8.00000000E-01
  1.50000000E+00  1.50000000E+00  8.00000000E-01  8.00000000E-01  1.50000000E+00
  1.50000000E+00  8.00000000E-01  8.00000000E-01  1.50000000E+00  1.50000000E+00
  8.00000000E-01  8.00000000E-01  1.50000000E+00  1.50000000E+00  8.00000000E-01
  8.00000000E-01  1.50000000E+00  1.50000000E+00  8.00000000E-01  8.00000000E-01
  1.50000000E+00  1.50000000E+00  8.00000000E-01  8.00000000E-01  1.50000000E+00
  1.50000000E+00  8.00000000E-01  8.00000000E-01  1.50000000E+00  1.50000000E+00
  8.00000000E-01  8.00000000E-01  1.50000000E+00  1.50000000E+00  8.00000000E-01
  8.00000000E-01  1.50000000E+00  1.50000000E+00  8.00000000E-01  8.00000000E-01
  1.50000000E+00  1.50000000E+00  8.00000000E-01  8.00000000E-01  1.50000000E+00
  1.50000000E+00  8.00000000E-01  8.00000000E-01  1.50000000E+00  1.50000000E+00
  8.00000000E-01  8.00000000E-01  1.50000000E+00  1.50000000E+00  8.00000000E-01
  8.00000000E-01  1.50000000E+00  1.50000000E+00  8.00000000E-01  8.00000000E-01
  1.50000000E+00  1.50000000E+00  8.00000000E-01  8.00000000E-01  1.50000000E+00
  1.50000000E+00  8.00000000E-01  8.00000000E-01  1.50000000E+00  1.50000000E+00
  8.00000000E-01  8.00000000E-01  1.50000000E+00  1.50000000E+00  8.00000000E-01
  8.00000000E-01  1.50000000E+00  1.50000000E+00  8.00000000E-01  8.00000000E-01
  1.50000000E+00  1.50000000E+00  8.00000000E-01  8.00000000E-01  1.50000000E+00
  1.50000000E+00  8.00000000E-01  8.00000000E-01  1.50000000E+00  1.50000000E+00
  8.00000000E-01  8.00000000E-01  1.50000000E+00  1.50000000E+00  8.00000000E-01
  8.00000000E-01  1.50000000E+00  1.50000000E+00  8.00000000E-01  8.00000000E-01
  1.50000000E+00  1.50000000E+00  8.00000000E-01  8.00000000E-01  1.50000000E+00
  1.50000000E+00  8.00000000E-01  8.00000000E-01  1.50000000E+00  1.50000000E+00
  8.00000000E-01  8.00000000E-01  1.50000000E+00  1.50000000E+00  8.00000000E-01
  8.00000000E-01  1.50000000E+00  1.50000000E+00  8.00000000E-01  8.00000000E-01
  1.50000000E+00  1.50000000E+00  8.00000000E-01  8.00000000E-01  1.50000000E+00
  1.50000000E+00  8.00000000E-01  8.00000000E-01  1.50000000E+00  1.50000000E+00
  8.00000000E-01  8.00000000E-01  1.50000000E+00  1.50000000E+00  8.00000000E-01
  8.00000000E-01  1.50000000E+00  1.50000000E+00  8.00000000E-01  8.00000000E-01
  1.50000000E+00  1.50000000E+00  8.00000000E-01  8.00000000E-01  1.50000000E+00
  1.50000000E+00  8.00000000E-01  8.00000000E-01  1.50000000E+00  1.50000000E+00
  8.00000000E-01  8.00000000E-01  1.50000000E+00  1.50000000E+00  8.00000000E-01
  8.00000000E-01  1.50000000E+00  1.50000000E+00  8.00000000E-01  8.00000000E-01
  1.50000000E+00  1.50000000E+00  8.00000000E-01  8.00000000E-01  1.50000000E+00
  1.50000000E+00  8.00000000E-01  8.00000000E-01  1.50000000E+00  1.50000000E+00
  8.00000000E-01  8.00000000E-01  1.50000000E+00  1.50000000E+00  8.00000000E-01
  8.00000000E-01  1.50000000E+00  1.50000000E+00  8.00000000E-01  8.00000000E-01
  1.50000000E+00  1.50000000E+00  8.00000000E-01  8.00000000E-01  1.50000000E+00
  1.50000000E+00  8.00000000E-01  8.00000000E-01  1.50000000E+00  1.50000000E+00
  8.00000000E-01  8.00000000E-01  1.50000000E+00  1.50000000E+00  8.00000000E-01
  8.00000000E-01  1.50000000E+00  1.50000000E+00  8.00000000E-01  8.00000000E-01
  1.50000000E+00  1.50000000E+00  8.00000000E-01  8.00000000E-01  1.50000000E+00
  1.50000000E+00  8.00000000E-01  8.00000000E-01  1.50000000E+00  1.50000000E+00
  8.00000000E-01  8.00000000E-01  1.50000000E+00  1.50000000E+00  8.00000000E-01
  8.00000000E-01  1.50000000E+00  1.50000000E+00  8.00000000E-01  8.00000000E-01
  1.50000000E+00  1.50000000E+00  8.00000000E-01  8.00000000E-01  1.50000000E+00
  1.50000000E+00  8.00000000E-01  8.00000000E-01  1.50000000E+00  1.50000000E+00
  8.00000000E-01  8.00000000E-01  1.50000000E+00  1.50000000E+00  8.00000000E-01
  8.00000000E-01  1.50000000E+00  1.50000000E+00  8.00000000E-01  8.00000000E-01
  1.50000000E+00  1.50000000E+00  8.00000000E-01  8.00000000E-01  1.50000000E+00
  1.50000000E+00  8.00000000E-01  8.00000000E-01  1.50000000E+00  1.50000000E+00
  8.00000000E-01  8.00000000E-01  1.50000000E+00  1.50000000E+00  8.00000000E-01
  8.00000000E-01  1.50000000E+00  1.50000000E+00  8.00000000E-01  8.00000000E-01
  1.50000000E+00  1.50000000E+00  8.00000000E-01  8.00000000E-01  1.50000000E+00
  1.50000000E+00  8.00000000E-01  8.00000000E-01  1.50000000E+00  1.50000000E+00
  8.00000000E-01  8.00000000E-01  1.50000000E+00  1.50000000E+00  8.00000000E-01
  8.00000000E-01  1.50000000E+00  1.50000000E+00  8.00000000E-01  8.00000000E-01
  1.50000000E+00  1.50000000E+00  8.00000000E-01  8.00000000E-01  1.50000000E+00
  1.50000000E+00  8.00000000E-01  8.00000000E-01  1.50000000E+00  1.50000000E+00
  8.00000000E-01  8.00000000E-01  1.50000000E+00  1.50000000E+00  8.00000000E-01
  8.00000000E-01  1.50000000E+00  1.50000000E+00  8.00000000E-01  8.00000000E-01
  1.50000000E+00  1.50000000E+00  8.00000000E-01  8.00000000E-01  1.50000000E+00
  1.50000000E+00  8.00000000E-01  8.00000000E-01  1.50000000E+00  1.50000000E+00
  8.00000000E-01  8.00000000E-01  1.50000000E+00  1.50000000E+00  8.00000000E-01
  8.00000000E-01  1.50000000E+00  1.50000000E+00  8.00000000E-01  8.00000000E-01
  1.50000000E+00  1.50000000E+00  8.00000000E-01  8.00000000E-01  1.50000000E+00
  1.50000000E+00  8.00000000E-01  8.00000000E-01  1.50000000E+00  1.50000000E+00
  8.00000000E-01  8.00000000E-01  1.50000000E+00  1.50000000E+00  8.00000000E-01
  8.00000000E-01  1.50000000E+00  1.50000000E+00  8.00000000E-01  8.00000000E-01
  1.50000000E+00  1.50000000E+00  8.00000000E-01  8.00000000E-01  1.50000000E+00
  1.50000000E+00  8.00000000E-01  8.00000000E-01  1.50000000E+00  1.50000000E+00
  8.00000000E-01  8.00000000E-01  1.50000000E+00  1.50000000E+00  8.00000000E-01
  8.00000000E-01  1.50000000E+00  1.50000000E+00  8.00000000E-01  8.00000000E-01
  1.50000000E+00  1.50000000E+00  8.00000000E-01  8.00000000E-01  1.50000000E+00
  1.50000000E+00  8.00000000E-01  8.00000000E-01  1.50000000E+00  1.50000000E+00
  8.00000000E-01  8.00000000E-01  1.50000000E+00  1.50000000E+00  8.00000000E-01
  8.00000000E-01  1.50000000E+00  1.50000000E+00  8.00000000E-01  8.00000000E-01
  1.50000000E+00  1.50000000E+00  8.00000000E-01  8.00000000E-01  1.50000000E+00
  1.50000000E+00  8.00000000E-01  8.00000000E-01  1.50000000E+00  1.50000000E+00
  8.00000000E-01  8.00000000E-01  1.50000000E+00  1.50000000E+00  8.00000000E-01
  8.00000000E-01  1.50000000E+00  1.50000000E+00  8.00000000E-01  8.00000000E-01
  1.50000000E+00  1.50000000E+00  8.00000000E-01  8.00000000E-01  1.50000000E+00
  1.50000000E+00  8.00000000E-01  8.00000000E-01  1.50000000E+00  1.50000000E+00
  8.00000000E-01  8.00000000E-01  1.50000000E+00  1.50000000E+00  8.00000000E-01
  8.00000000E-01  1.50000000E+00  1.50000000E+00  8.00000000E-01  8.00000000E-01
  1.50000000E+00  1.50000000E+00  8.00000000E-01  8.00000000E-01  1.50000000E+00
  1.50000000E+00  8.00000000E-01  8.00000000E-01  1.50000000E+00  1.50000000E+00
  8.00000000E-01  8.00000000E-01  1.50000000E+00  1.50000000E+00  8.00000000E-01
  8.00000000E-01  1.50000000E+00  1.50000000E+00  8.00000000E-01  8.00000000E-01
  1.50000000E+00  1.50000000E+00  8.00000000E-01  8.00000000E-01  1.50000000E+00
  1.50000000E+00  8.00000000E-01  8.00000000E-01  1.50000000E+00  1.50000000E+00
  8.00000000E-01  8.00000000E-01  1.50000000E+00  1.50000000E+00  8.00000000E-01
  8.00000000E-01  1.50000000E+00  1.50000000E+00  8.00000000E-01  8.00000000E-01
  1.50000000E+00  1.50000000E+00  8.00000000E-01  8.00000000E-01  1.50000000E+00
  1.50000000E+00  8.00000000E-01  8.00000000E-01  1.50000000E+00  1.50000000E+00
  8.00000000E-01  8.00000000E-01  1.50000000E+00  1.50000000E+00  8.00000000E-01
  8.00000000E-01  1.50000000E+00  1.50000000E+00  8.00000000E-01  8.00000000E-01
  1.50000000E+00  1.50000000E+00  8.00000000E-01  8.00000000E-01  1.50000000E+00
  1.50000000E+00  8.00000000E-01  8.00000000E-01  1.50000000E+00  1.50000000E+00
  8.00000000E-01  8.00000000E-01  1.50000000E+00  1.50000000E+00  8.00000000E-01
  8.00000000E-01  1.50000000E+00  1.50000000E+00  8.00000000E-01  8.00000000E-01
  1.50000000E+00  1.50000000E+00  8.00000000E-01  8.00000000E-01  1.50000000E+00
  1.50000000E+00  8.00000000E-01  8.00000000E-01  1.50000000E+00  1.50000000E+00
  8.00000000E-01  8.00000000E-01  1.50000000E+00  1.50000000E+00  8.00000000E-01
  8.00000000E-01  1.50000000E+00  1.50000000E+00  8.00000000E-01  8.00000000E-01
  1.50000000E+00  1.50000000E+00  8.00000000E-01  8.00000000E-01  1.50000000E+00
  1.50000000E+00  8.00000000E-01  8.00000000E-01  1.50000000E+00  1.50000000E+00
  8.00000000E-01  8.00000000E-01  1.50000000E+00  1.50000000E+00  8.00000000E-01
  8.00000000E-01  1.50000000E+00  1.50000000E+00  8.00000000E-01  8.00000000E-01
  1.50000000E+00  1.50000000E+00  8.00000000E-01  8.00000000E-01  1.50000000E+00
  1.50000000E+00  8.00000000E-01  8.00000000E-01  1.50000000E+00  1.50000000E+00
  8.00000000E-01  8.00000000E-01  1.50000000E+00  1.50000000E+00  8.00000000E-01
  8.00000000E-01  1.50000000E+00  1.50000000E+00  8.00000000E-01  8.00000000E-01
  1.50000000E+00  1.50000000E+00  8.00000000E-01  8.00000000E-01  1.50000000E+00
  1.50000000E+00  8.00000000E-01  8.00000000E-01  1.50000000E+00  1.50000000E+00
  8.00000000E-01  8.00000000E-01  1.50000000E+00  1.50000000E+00  8.00000000E-01
  8.00000000E-01  1.50000000E+00  1.50000000E+00  8.00000000E-01  8.00000000E-01
  1.50000000E+00  1.50000000E+00  8.00000000E-01  8.00000000E-01  1.50000000E+00
  1.50000000E+00  8.00000000E-01  8.00000000E-01  1.50000000E+00  1.50000000E+00
  8.00000000E-01  8.00000000E-01  1.50000000E+00  1.50000000E+00  8.00000000E-01
  8.00000000E-01  1.50000000E+00  1.50000000E+00  8.00000000E-01  8.00000000E-01
  1.50000000E+00  1.50000000E+00  8.00000000E-01  8.00000000E-01  1.50000000E+00
  1.50000000E+00  8.00000000E-01  8.00000000E-01  1.50000000E+00  1.50000000E+00
  8.00000000E-01  8.00000000E-01  1.50000000E+00  1.50000000E+00  8.00000000E-01
  8.00000000E-01  1.50000000E+00  1.50000000E+00  8.00000000E-01  8.00000000E-01
  1.50000000E+00  1.50000000E+00  8.00000000E-01  8.00000000E-01  1.50000000E+00
  1.50000000E+00  8.00000000E-01  8.00000000E-01  1.50000000E+00  1.50000000E+00
  8.00000000E-01  8.00000000E-01  1.50000000E+00  1.50000000E+00  8.00000000E-01
  8.00000000E-01  1.50000000E+00  1.50000000E+00  8.00000000E-01  8.00000000E-01
  1.50000000E+00  1.50000000E+00  8.00000000E-01  8.00000000E-01  1.50000000E+00
  1.50000000E+00  8.00000000E-01  8.00000000E-01  1.50000000E+00  1.50000000E+00
  8.00000000E-01  8.00000000E-01  1.50000000E+00  1.50000000E+00  8.00000000E-01
  8.00000000E-01  1.50000000E+00  1.50000000E+00  8.00000000E-01  8.00000000E-01
  1.50000000E+00  1.50000000E+00  8.00000000E-01  8.00000000E-01  1.50000000E+00
  1.50000000E+00  8.00000000E-01  8.00000000E-01  1.50000000E+00  1.50000000E+00
  8.00000000E-01  8.00000000E-01  1.50000000E+00  1.50000000E+00  8.00000000E-01
  8.00000000E-01  1.50000000E+00  1.50000000E+00  8.00000000E-01  8.00000000E-01
  1.50000000E+00  1.50000000E+00  8.00000000E-01  8.00000000E-01  1.50000000E+00
  1.50000000E+00  8.00000000E-01  8.00000000E-01  1.50000000E+00  1.50000000E+00
  8.00000000E-01  8.00000000E-01  1.50000000E+00  1.50000000E+00  8.00000000E-01
  8.00000000E-01  1.50000000E+00  1.50000000E+00  8.00000000E-01  8.00000000E-01
  1.50000000E+00  1.50000000E+00  8.00000000E-01  8.00000000E-01  1.50000000E+00
  1.50000000E+00  8.00000000E-01  8.00000000E-01  1.50000000E+00  1.50000000E+00
  8.00000000E-01  8.00000000E-01  1.50000000E+00  1.50000000E+00  8.00000000E-01
  8.00000000E-01  1.50000000E+00  1.50000000E+00  8.00000000E-01  8.00000000E-01
  1.50000000E+00  1.50000000E+00  8.00000000E-01  8.00000000E-01  1.50000000E+00
  1.50000000E+00  8.00000000E-01  8.00000000E-01  1.50000000E+00  1.50000000E+00
  8.00000000E-01  8.00000000E-01  1.50000000E+00  1.50000000E+00  8.00000000E-01
  8.00000000E-01  1.50000000E+00  1.50000000E+00  8.00000000E-01  8.00000000E-01
  1.50000000E+00  1.50000000E+00  8.00000000E-01  8.00000000E-01  1.50000000E+00
  1.50000000E+00  8.00000000E-01  8.00000000E-01  1.50000000E+00  1.50000000E+00
  8.00000000E-01  8.00000000E-01  1.50000000E+00  1.50000000E+00  8.00000000E-01
  8.00000000E-01  1.50000000E+00  1.50000000E+00  8.00000000E-01  8.00000000E-01
  1.50000000E+00  1.50000000E+00  8.00000000E-01  8.00000000E-01  1.50000000E+00
  1.50000000E+00  8.00000000E-01  8.00000000E-01  1.50000000E+00  1.50000000E+00
  8.00000000E-01  8.00000000E-01  1.50000000E+00  1.50000000E+00  8.00000000E-01
  8.00000000E-01  1.50000000E+00  1.50000000E+00  8.00000000E-01  8.00000000E-01
  1.50000000E+00  1.50000000E+00  8.00000000E-01  8.00000000E-01  1.50000000E+00
  1.50000000E+00  8.00000000E-01  8.00000000E-01  1.50000000E+00  1.50000000E+00
  8.00000000E-01  8.00000000E-01  1.50000000E+00  1.50000000E+00  8.00000000E-01
  8.00000000E-01  1.50000000E+00  1.50000000E+00  8.00000000E-01  8.00000000E-01
  1.50000000E+00  1.50000000E+00  8.00000000E-01  8.00000000E-01  1.50000000E+00
  1.50000000E+00  8.00000000E-01  8.00000000E-01  1.50000000E+00  1.50000000E+00
  8.00000000E-01  8.00000000E-01  1.50000000E+00  1.50000000E+00  8.00000000E-01
  8.00000000E-01  1.50000000E+00  1.50000000E+00  8.00000000E-01  8.00000000E-01
  1.50000000E+00  1.50000000E+00  8.00000000E-01  8.00000000E-01  1.50000000E+00
  1.50000000E+00  8.00000000E-01  8.00000000E-01  1.50000000E+00  1.50000000E+00
  8.00000000E-01  8.00000000E-01  1.50000000E+00  1.50000000E+00  8.00000000E-01
  8.00000000E-01  1.50000000E+00  1.50000000E+00  8.00000000E-01  8.00000000E-01
  1.50000000E+00  1.50000000E+00  8.00000000E-01  8.00000000E-01  1.50000000E+00
  1.50000000E+00  8.00000000E-01  8.00000000E-01  1.50000000E+00  1.50000000E+00
  8.00000000E-01  8.00000000E-01  1.50000000E+00  1.50000000E+00  8.00000000E-01
  8.00000000E-01  1.50000000E+00  1.50000000E+00  8.00000000E-01  8.00000000E-01
  1.50000000E+00  1.50000000E+00  8.00000000E-01  8.00000000E-01  1.50000000E+00
  1.50000000E+00  8.00000000E-01  8.00000000E-01  1.50000000E+00  1.50000000E+00
  8.00000000E-01  8.00000000E-01  1.50000000E+00  1.50000000E+00  8.00000000E-01
  8.00000000E-01  1.50000000E+00  1.50000000E+00  8.00000000E-01  8.00000000E-01
  1.50000000E+00  1.50000000E+00  8.00000000E-01  8.00000000E-01  1.50000000E+00
  1.50000000E+00  8.00000000E-01  8.00000000E-01  1.50000000E+00  1.50000000E+00
  8.00000000E-01  8.00000000E-01  1.50000000E+00  1.50000000E+00  8.00000000E-01
  8.00000000E-01  1.50000000E+00  1.50000000E+00  8.00000000E-01  8.00000000E-01
  1.50000000E+00  1.50000000E+00  8.00000000E-01  8.00000000E-01  1.50000000E+00
  1.50000000E+00  8.00000000E-01  8.00000000E-01  1.50000000E+00  1.50000000E+00
  8.00000000E-01  8.00000000E-01  1.50000000E+00  1.50000000E+00  8.00000000E-01
  8.00000000E-01  1.50000000E+00  1.50000000E+00  8.00000000E-01  8.00000000E-01
  1.50000000E+00  1.50000000E+00  8.00000000E-01  8.00000000E-01  1.50000000E+00
  1.50000000E+00  8.00000000E-01  8.00000000E-01  1.50000000E+00  1.50000000E+00
  8.00000000E-01  8.00000000E-01  1.50000000E+00  1.50000000E+00  8.00000000E-01
  8.00000000E-01  1.50000000E+00  1.50000000E+00  8.00000000E-01  8.00000000E-01
  1.50000000E+00  1.50000000E+00  8.00000000E-01  8.00000000E-01  1.50000000E+00
  1.50000000E+00  8.00000000E-01  8.00000000E-01  1.50000000E+00  1.50000000E+00
  8.00000000E-01  8.00000000E-01  1.50000000E+00  1.50000000E+00  8.00000000E-01
  8.00000000E-01  1.50000000E+00  1.50000000E+00  8.00000000E-01  8.00000000E-01
  1.50000000E+00  1.50000000E+00  8.00000000E-01  8.00000000E-01  1.50000000E+00
  1.50000000E+00  8.00000000E-01  8.00000000E-01  1.50000000E+00  1.50000000E+00
  8.00000000E-01  8.00000000E-01  1.50000000E+00  1.50000000E+00  8.00000000E-01
  8.00000000E-01  1.50000000E+00  1.50000000E+00  8.00000000E-01  8.00000000E-01
  1.50000000E+00  1.50000000E+00  8.00000000E-01  8.00000000E-01  1.50000000E+00
  1.50000000E+00  8.00000000E-01  8.00000000E-01  1.50000000E+00  1.50000000E+00
  8.00000000E-01  8.00000000E-01  1.50000000E+00  1.50000000E+00  8.00000000E-01
  8.00000000E-01  1.50000000E+00  1.50000000E+00  8.00000000E-01  8.00000000E-01
  1.50000000E+00  1.50000000E+00  8.00000000E-01  8.00000000E-01  1.50000000E+00
  1.50000000E+00  8.00000000E-01  8.00000000E-01  1.50000000E+00  1.50000000E+00
  8.00000000E-01  8.00000000E-01  1.50000000E+00  1.50000000E+00  8.00000000E-01
  8.00000000E-01  1.50000000E+00  1.50000000E+00  8.00000000E-01  8.00000000E-01
  1.50000000E+00  1.50000000E+00  8.00000000E-01  8.00000000E-01  1.50000000E+00
  1.50000000E+00  8.00000000E-01  8.00000000E-01  1.50000000E+00  1.50000000E+00
  8.00000000E-01  8.00000000E-01  1.50000000E+00  1.50000000E+00  8.00000000E-01
  8.00000000E-01  1.50000000E+00  1.50000000E+00  8.00000000E-01  8.00000000E-01
  1.50000000E+00  1.50000000E+00  8.00000000E-01  8.00000000E-01  1.50000000E+00
  1.50000000E+00  8.00000000E-01  8.00000000E-01  1.50000000E+00  1.50000000E+00
  8.00000000E-01  8.00000000E-01  1.50000000E+00  1.50000000E+00  8.00000000E-01
  8.00000000E-01  1.50000000E+00  1.50000000E+00  8.00000000E-01  8.00000000E-01
  1.50000000E+00  1.50000000E+00  8.00000000E-01  8.00000000E-01  1.50000000E+00
  1.50000000E+00  8.00000000E-01  8.00000000E-01  1.50000000E+00  1.50000000E+00
  8.00000000E-01  8.00000000E-01  1.50000000E+00  1.50000000E+00  8.00000000E-01
  8.00000000E-01  1.50000000E+00  1.50000000E+00  8.00000000E-01  8.00000000E-01
  1.50000000E+00  1.50000000E+00  8.00000000E-01  8.00000000E-01  1.50000000E+00
  1.50000000E+00  8.00000000E-01  8.00000000E-01  1.50000000E+00  1.50000000E+00
  8.00000000E-01  8.00000000E-01  1.50000000E+00  1.50000000E+00  8.00000000E-01
  8.00000000E-01  1.50000000E+00  1.50000000E+00  8.00000000E-01  8.00000000E-01
  1.50000000E+00  1.50000000E+00  8.00000000E-01  8.00000000E-01  1.50000000E+00
  1.50000000E+00  8.00000000E-01  8.00000000E-01  1.50000000E+00  1.50000000E+00
  8.00000000E-01  8.00000000E-01  1.50000000E+00  1.50000000E+00  8.00000000E-01
  8.00000000E-01  1.50000000E+00  1.50000000E+00  8.00000000E-01  8.00000000E-01
  1.50000000E+00  1.50000000E+00  8.00000000E-01  8.00000000E-01  1.50000000E+00
  1.50000000E+00  8.00000000E-01  8.00000000E-01  1.50000000E+00  1.50000000E+00
  8.00000000E-01  8.00000000E-01  1.50000000E+00  1.50000000E+00  8.00000000E-01
  8.00000000E-01  1.50000000E+00  1.50000000E+00  8.00000000E-01  8.00000000E-01
  1.50000000E+00  1.50000000E+00  8.00000000E-01  8.00000000E-01  1.50000000E+00
  1.50000000E+00  8.00000000E-01  8.00000000E-01  1.50000000E+00  1.50000000E+00
  8.00000000E-01  8.00000000E-01  1.50000000E+00  1.50000000E+00  8.00000000E-01
  8.00000000E-01  1.50000000E+00  1.50000000E+00  8.00000000E-01  8.00000000E-01
  1.50000000E+00  1.50000000E+00  8.00000000E-01  8.00000000E-01  1.50000000E+00
  1.50000000E+00  8.00000000E-01  8.00000000E-01  1.50000000E+00  1.50000000E+00
  8.00000000E-01  8.00000000E-01  1.50000000E+00  1.50000000E+00  8.00000000E-01
  8.00000000E-01  1.50000000E+00  1.50000000E+00  8.00000000E-01  8.00000000E-01
  1.50000000E+00  1.50000000E+00  8.00000000E-01  8.00000000E-01  1.50000000E+00
  1.50000000E+00  8.00000000E-01  8.00000000E-01  1.50000000E+00  1.50000000E+00
  8.00000000E-01  8.00000000E-01  1.50000000E+00  1.50000000E+00  8.00000000E-01
  8.00000000E-01  1.50000000E+00  1.50000000E+00  8.00000000E-01  8.00000000E-01
  1.50000000E+00  1.50000000E+00  8.00000000E-01  8.00000000E-01  1.50000000E+00
  1.50000000E+00  8.00000000E-01  8.00000000E-01  1.50000000E+00  1.50000000E+00
  8.00000000E-01  8.00000000E-01  1.50000000E+00  1.50000000E+00  8.00000000E-01
  8.00000000E-01  1.50000000E+00  1.50000000E+00  8.00000000E-01  8.00000000E-01
  1.50000000E+00  1.50000000E+00  8.00000000E-01  8.00000000E-01  1.50000000E+00
  1.50000000E+00  8.00000000E-01  8.00000000E-01  1.50000000E+00  1.50000000E+00
  8.00000000E-01  8.00000000E-01  1.50000000E+00  1.50000000E+00  8.00000000E-01
  8.00000000E-01  1.50000000E+00  1.50000000E+00  8.00000000E-01  8.00000000E-01
  1.50000000E+00  1.50000000E+00  8.00000000E-01  8.00000000E-01  1.50000000E+00
  1.50000000E+00  8.00000000E-01  8.00000000E-01  1.50000000E+00  1.50000000E+00
  8.00000000E-01  8.00000000E-01  1.50000000E+00  1.50000000E+00  8.00000000E-01
  8.00000000E-01  1.50000000E+00  1.50000000E+00  8.00000000E-01  8.00000000E-01
  1.50000000E+00  1.50000000E+00  8.00000000E-01  8.00000000E-01  1.50000000E+00
  1.50000000E+00  8.00000000E-01  8.00000000E-01  1.50000000E+00  1.50000000E+00
  8.00000000E-01  8.00000000E-01  1.50000000E+00  1.50000000E+00  8.00000000E-01
  8.00000000E-01  1.50000000E+00  1.50000000E+00  8.00000000E-01  8.00000000E-01
  1.50000000E+00  1.50000000E+00  8.00000000E-01  8.00000000E-01  1.50000000E+00
  1.50000000E+00  8.00000000E-01  8.00000000E-01  1.50000000E+00  1.50000000E+00
  8.00000000E-01  8.00000000E-01  1.50000000E+00  1.50000000E+00  8.00000000E-01
  8.00000000E-01  1.50000000E+00  1.50000000E+00  8.00000000E-01  8.00000000E-01
  1.50000000E+00  1.50000000E+00  8.00000000E-01  8.00000000E-01  1.50000000E+00
  1.50000000E+00  8.00000000E-01  8.00000000E-01  1.50000000E+00  1.50000000E+00
  8.00000000E-01  8.00000000E-01  1.50000000E+00  1.50000000E+00  8.00000000E-01
  8.00000000E-01  1.50000000E+00  1.50000000E+00  8.00000000E-01  8.00000000E-01
  1.50000000E+00  1.50000000E+00  8.00000000E-01  8.00000000E-01  1.50000000E+00
  1.50000000E+00  8.00000000E-01  8.00000000E-01  1.50000000E+00  1.50000000E+00
  8.00000000E-01  8.00000000E-01  1.50000000E+00  1.50000000E+00  8.00000000E-01
  8.00000000E-01  1.50000000E+00  1.50000000E+00  8.00000000E-01  8.00000000E-01
  1.50000000E+00  1.50000000E+00  8.00000000E-01  8.00000000E-01  1.50000000E+00
  1.50000000E+00  8.00000000E-01  8.00000000E-01  1.50000000E+00  1.50000000E+00
  8.00000000E-01  8.00000000E-01  1.50000000E+00  1.50000000E+00  8.00000000E-01
  8.00000000E-01  1.50000000E+00  1.50000000E+00  8.00000000E-01  8.00000000E-01
  1.50000000E+00  1.50000000E+00  8.00000000E-01  8.00000000E-01  1.50000000E+00
  1.50000000E+00  8.00000000E-01  8.00000000E-01  1.50000000E+00  1.50000000E+00
  8.00000000E-01  8.00000000E-01  1.50000000E+00  1.50000000E+00  8.00000000E-01
  8.00000000E-01  1.50000000E+00  1.50000000E+00  8.00000000E-01  8.00000000E-01
  1.50000000E+00  1.50000000E+00  8.00000000E-01  8.00000000E-01  1.50000000E+00
  1.50000000E+00  8.00000000E-01  8.00000000E-01  1.50000000E+00  1.50000000E+00
  8.00000000E-01  8.00000000E-01  1.50000000E+00  1.50000000E+00  8.00000000E-01
  8.00000000E-01  1.50000000E+00  1.50000000E+00  8.00000000E-01  8.00000000E-01
  1.50000000E+00  1.50000000E+00  8.00000000E-01  8.00000000E-01  1.50000000E+00
  1.50000000E+00  8.00000000E-01  8.00000000E-01  1.50000000E+00  1.50000000E+00
  8.00000000E-01  8.00000000E-01  1.50000000E+00  1.50000000E+00  8.00000000E-01
  8.00000000E-01  1.50000000E+00  1.50000000E+00  8.00000000E-01  8.00000000E-01
  1.50000000E+00  1.50000000E+00  8.00000000E-01  8.00000000E-01  1.50000000E+00
  1.50000000E+00  8.00000000E-01  8.00000000E-01  1.50000000E+00  1.50000000E+00
  8.00000000E-01  8.00000000E-01  1.50000000E+00  1.50000000E+00  8.00000000E-01
  8.00000000E-01  1.50000000E+00  1.50000000E+00  8.00000000E-01  8.00000000E-01
  1.50000000E+00  1.50000000E+00  8.00000000E-01  8.00000000E-01  1.50000000E+00
  1.50000000E+00  8.00000000E-01  8.00000000E-01  1.50000000E+00  1.50000000E+00
  8.00000000E-01  8.00000000E-01  1.50000000E+00  1.50000000E+00  8.00000000E-01
  8.00000000E-01  1.50000000E+00  1.50000000E+00  8.00000000E-01  8.00000000E-01
  1.50000000E+00  1.50000000E+00  8.00000000E-01  8.00000000E-01  1.50000000E+00
  1.50000000E+00  8.00000000E-01  8.00000000E-01  1.50000000E+00  1.50000000E+00
  8.00000000E-01  8.00000000E-01  1.50000000E+00  1.50000000E+00  8.00000000E-01
  8.00000000E-01  1.50000000E+00  1.50000000E+00  8.00000000E-01  8.00000000E-01
  1.50000000E+00  1.50000000E+00  8.00000000E-01  8.00000000E-01  1.50000000E+00
  1.50000000E+00  8.00000000E-01  8.00000000E-01  1.50000000E+00  1.50000000E+00
  8.00000000E-01  8.00000000E-01  1.50000000E+00  1.50000000E+00  8.00000000E-01
  8.00000000E-01  1.50000000E+00  1.50000000E+00  8.00000000E-01  8.00000000E-01
  1.50000000E+00  1.50000000E+00  8.00000000E-01  8.00000000E-01  1.50000000E+00
  1.50000000E+00  8.00000000E-01  8.00000000E-01  1.50000000E+00  1.50000000E+00
  8.00000000E-01  8.00000000E-01  1.50000000E+00  1.50000000E+00  8.00000000E-01
  8.00000000E-01  1.50000000E+00  1.50000000E+00  8.00000000E-01  8.00000000E-01
  1.50000000E+00  1.50000000E+00  8.00000000E-01  8.00000000E-01  1.50000000E+00
  1.50000000E+00  8.00000000E-01  8.00000000E-01  1.50000000E+00  1.50000000E+00
  8.00000000E-01  8.00000000E-01  1.50000000E+00  1.50000000E+00  8.00000000E-01
  8.00000000E-01  1.50000000E+00  1.50000000E+00  8.00000000E-01  8.00000000E-01
  1.50000000E+00  1.50000000E+00  8.00000000E-01  8.00000000E-01  1.50000000E+00
  1.50000000E+00  8.00000000E-01  8.00000000E-01  1.50000000E+00  1.50000000E+00
  8.00000000E-01  8.00000000E-01  1.50000000E+00  1.50000000E+00  8.00000000E-01
  8.00000000E-01  1.50000000E+00  1.50000000E+00  8.00000000E-01  8.00000000E-01
  1.50000000E+00  1.50000000E+00  8.00000000E-01  8.00000000E-01  1.50000000E+00
  1.50000000E+00  8.00000000E-01  8.00000000E-01  1.50000000E+00  1.50000000E+00
  8.00000000E-01  8.00000000E-01  1.50000000E+00  1.50000000E+00  8.00000000E-01
  8.00000000E-01  1.50000000E+00  1.50000000E+00  8.00000000E-01  8.00000000E-01
  1.50000000E+00  1.50000000E+00  8.00000000E-01  8.00000000E-01  1.50000000E+00
  1.50000000E+00  8.00000000E-01  8.00000000E-01  1.50000000E+00  1.50000000E+00
  8.00000000E-01  8.00000000E-01  1.50000000E+00  1.50000000E+00  8.00000000E-01
  8.00000000E-01  1.50000000E+00  1.50000000E+00  8.00000000E-01  8.00000000E-01
  1.50000000E+00  1.50000000E+00  8.00000000E-01  8.00000000E-01  1.50000000E+00
  1.50000000E+00  8.00000000E-01  8.00000000E-01  1.50000000E+00  1.50000000E+00
  8.00000000E-01  8.00000000E-01  1.50000000E+00  1.50000000E+00  8.00000000E-01
  8.00000000E-01  1.50000000E+00  1.50000000E+00  8.00000000E-01  8.00000000E-01
  1.50000000E+00  1.50000000E+00  8.00000000E-01  8.00000000E-01  1.50000000E+00
  1.50000000E+00  8.00000000E-01  8.00000000E-01  1.50000000E+00  1.50000000E+00
  8.00000000E-01  8.00000000E-01  1.50000000E+00  1.50000000E+00  8.00000000E-01
  8.00000000E-01  1.50000000E+00  1.50000000E+00  8.00000000E-01  8.00000000E-01
  1.50000000E+00  1.50000000E+00  8.00000000E-01  8.00000000E-01  1.50000000E+00
  1.50000000E+00  8.00000000E-01  8.00000000E-01  1.50000000E+00  1.50000000E+00
  8.00000000E-01  8.00000000E-01  1.50000000E+00  1.50000000E+00  8.00000000E-01
  8.00000000E-01  1.50000000E+00  1.50000000E+00  8.00000000E-01  8.00000000E-01
  1.50000000E+00  1.50000000E+00  8.00000000E-01  8.00000000E-01  1.50000000E+00
  1.50000000E+00  8.00000000E-01  8.00000000E-01  1.50000000E+00  1.50000000E+00
  8.00000000E-01  8.00000000E-01  1.50000000E+00  1.50000000E+00  8.00000000E-01
  8.00000000E-01  1.50000000E+00  1.50000000E+00  8.00000000E-01  8.00000000E-01
  1.50000000E+00  1.50000000E+00  8.00000000E-01  8.00000000E-01  1.50000000E+00
  1.50000000E+00  8.00000000E-01  8.00000000E-01  1.50000000E+00  1.50000000E+00
  8.00000000E-01  8.00000000E-01  1.50000000E+00  1.50000000E+00  8.00000000E-01
  8.00000000E-01  1.50000000E+00  1.50000000E+00  8.00000000E-01  8.00000000E-01
  1.50000000E+00  1.50000000E+00  8.00000000E-01  8.00000000E-01  1.50000000E+00
  1.50000000E+00  8.00000000E-01  8.00000000E-01  1.50000000E+00  1.50000000E+00
  8.00000000E-01  8.00000000E-01  1.50000000E+00  1.50000000E+00  8.00000000E-01
  8.00000000E-01  1.50000000E+00  1.50000000E+00  8.00000000E-01  8.00000000E-01
  1.50000000E+00  1.50000000E+00  8.00000000E-01  8.00000000E-01  1.50000000E+00
  1.50000000E+00  8.00000000E-01  8.00000000E-01  1.50000000E+00  1.50000000E+00
  8.00000000E-01  8.00000000E-01  1.50000000E+00  1.50000000E+00  8.00000000E-01
  8.00000000E-01  1.50000000E+00  1.50000000E+00  8.00000000E-01  8.00000000E-01
  1.50000000E+00  1.50000000E+00  8.00000000E-01  8.00000000E-01  1.50000000E+00
  1.50000000E+00  8.00000000E-01  8.00000000E-01  1.50000000E+00  1.50000000E+00
  8.00000000E-01  8.00000000E-01  1.50000000E+00  1.50000000E+00  8.00000000E-01
  8.00000000E-01  1.50000000E+00  1.50000000E+00  8.00000000E-01  8.00000000E-01
  1.50000000E+00  1.50000000E+00  8.00000000E-01  8.00000000E-01  1.50000000E+00
  1.50000000E+00  8.00000000E-01  8.00000000E-01  1.50000000E+00  1.50000000E+00
  8.00000000E-01  8.00000000E-01  1.50000000E+00  1.50000000E+00  8.00000000E-01
  8.00000000E-01  1.50000000E+00  1.50000000E+00  8.00000000E-01  8.00000000E-01
  1.50000000E+00  1.50000000E+00  8.00000000E-01  8.00000000E-01  1.50000000E+00
  1.50000000E+00  8.00000000E-01  8.00000000E-01  1.50000000E+00  1.50000000E+00
  8.00000000E-01  8.00000000E-01  1.50000000E+00  1.50000000E+00  8.00000000E-01
  8.00000000E-01  1.50000000E+00  1.50000000E+00  8.00000000E-01  8.00000000E-01
  1.50000000E+00  1.50000000E+00  8.00000000E-01  8.00000000E-01  1.50000000E+00
  1.50000000E+00  8.00000000E-01  8.00000000E-01  1.50000000E+00  1.50000000E+00
  8.00000000E-01  8.00000000E-01  1.50000000E+00  1.50000000E+00  8.00000000E-01
  8.00000000E-01  1.50000000E+00  1.50000000E+00  8.00000000E-01  8.00000000E-01
  1.50000000E+00  1.50000000E+00  8.00000000E-01  8.00000000E-01  1.50000000E+00
  1.50000000E+00  8.00000000E-01  8.00000000E-01  1.50000000E+00  1.50000000E+00
  8.00000000E-01  8.00000000E-01  1.50000000E+00  1.50000000E+00  8.00000000E-01
  8.00000000E-01  1.50000000E+00  1.50000000E+00  8.00000000E-01  8.00000000E-01
  1.50000000E+00  1.50000000E+00  8.00000000E-01  8.00000000E-01  1.50000000E+00
  1.50000000E+00  8.00000000E-01  8.00000000E-01  1.50000000E+00  1.50000000E+00
  8.00000000E-01  8.00000000E-01  1.50000000E+00  1.50000000E+00  8.00000000E-01
  8.00000000E-01  1.50000000E+00  1.50000000E+00  8.00000000E-01  8.00000000E-01
  1.50000000E+00  1.50000000E+00  8.00000000E-01  8.00000000E-01  1.50000000E+00
  1.50000000E+00  8.00000000E-01  8.00000000E-01  1.50000000E+00  1.50000000E+00
  8.00000000E-01  8.00000000E-01  1.50000000E+00  1.50000000E+00  8.00000000E-01
  8.00000000E-01  1.50000000E+00  1.50000000E+00  8.00000000E-01  8.00000000E-01
  1.50000000E+00  1.50000000E+00  8.00000000E-01  8.00000000E-01  1.50000000E+00
  1.50000000E+00  8.00000000E-01  8.00000000E-01  1.50000000E+00  1.50000000E+00
  8.00000000E-01  8.00000000E-01  1.50000000E+00  1.50000000E+00  8.00000000E-01
  8.00000000E-01  1.50000000E+00  1.50000000E+00  8.00000000E-01  8.00000000E-01
  1.50000000E+00  1.50000000E+00  8.00000000E-01  8.00000000E-01  1.50000000E+00
  1.50000000E+00  8.00000000E-01  8.00000000E-01  1.50000000E+00  1.50000000E+00
  8.00000000E-01  8.00000000E-01  1.50000000E+00  1.50000000E+00  8.00000000E-01
  8.00000000E-01  1.50000000E+00  1.50000000E+00  8.00000000E-01  8.00000000E-01
  1.50000000E+00  1.50000000E+00  8.00000000E-01  8.00000000E-01  1.50000000E+00
  1.50000000E+00  8.00000000E-01  8.00000000E-01  1.50000000E+00  1.50000000E+00
  8.00000000E-01  8.00000000E-01  1.50000000E+00  1.50000000E+00  8.00000000E-01
  8.00000000E-01  1.50000000E+00  1.50000000E+00  8.00000000E-01  8.00000000E-01
  1.50000000E+00  1.50000000E+00  8.00000000E-01  8.00000000E-01  1.50000000E+00
  1.50000000E+00  8.00000000E-01  8.00000000E-01  1.50000000E+00  1.50000000E+00
  8.00000000E-01  8.00000000E-01  1.50000000E+00  1.50000000E+00  8.00000000E-01
  8.00000000E-01  1.50000000E+00  1.50000000E+00  8.00000000E-01  8.00000000E-01
  1.50000000E+00  1.50000000E+00  8.00000000E-01  8.00000000E-01  1.50000000E+00
  1.50000000E+00  8.00000000E-01  8.00000000E-01  1.50000000E+00  1.50000000E+00
  8.00000000E-01  8.00000000E-01  1.50000000E+00  1.50000000E+00  8.00000000E-01
  8.00000000E-01  1.50000000E+00  1.50000000E+00  8.00000000E-01  8.00000000E-01
  1.50000000E+00  1.50000000E+00  8.00000000E-01  8.00000000E-01  1.50000000E+00
  1.50000000E+00  8.00000000E-01  8.00000000E-01  1.50000000E+00  1.50000000E+00
  8.00000000E-01  8.00000000E-01  1.50000000E+00  1.50000000E+00  8.00000000E-01
  8.00000000E-01  1.50000000E+00  1.50000000E+00  8.00000000E-01  8.00000000E-01
  1.50000000E+00  1.50000000E+00  8.00000000E-01  8.00000000E-01  1.50000000E+00
  1.50000000E+00  8.00000000E-01  8.00000000E-01  1.50000000E+00  1.50000000E+00
  8.00000000E-01  8.00000000E-01  1.50000000E+00  1.50000000E+00  8.00000000E-01
  8.00000000E-01  1.50000000E+00  1.50000000E+00  8.00000000E-01  8.00000000E-01
  1.50000000E+00  1.50000000E+00  8.00000000E-01  8.00000000E-01  1.50000000E+00
  1.50000000E+00  8.00000000E-01  8.00000000E-01  1.50000000E+00  1.50000000E+00
  8.00000000E-01  8.00000000E-01  1.50000000E+00  1.50000000E+00  8.00000000E-01
  8.00000000E-01  1.50000000E+00  1.50000000E+00  8.00000000E-01  8.00000000E-01
  1.50000000E+00  1.50000000E+00  8.00000000E-01  8.00000000E-01  1.50000000E+00
  1.50000000E+00  8.00000000E-01  8.00000000E-01  1.50000000E+00  1.50000000E+00
  8.00000000E-01  8.00000000E-01  1.50000000E+00  1.50000000E+00  8.00000000E-01
  8.00000000E-01  1.50000000E+00  1.50000000E+00  8.00000000E-01  8.00000000E-01
  1.50000000E+00  1.50000000E+00  8.00000000E-01  8.00000000E-01  1.50000000E+00
  1.50000000E+00  8.00000000E-01  8.00000000E-01  1.50000000E+00  1.50000000E+00
  8.00000000E-01  8.00000000E-01  1.50000000E+00  1.50000000E+00  8.00000000E-01
  8.00000000E-01  1.50000000E+00  1.50000000E+00  8.00000000E-01  8.00000000E-01
  1.50000000E+00  1.50000000E+00  8.00000000E-01  8.00000000E-01  1.50000000E+00
  1.50000000E+00  8.00000000E-01  8.00000000E-01  1.50000000E+00  1.50000000E+00
  8.00000000E-01  8.00000000E-01  1.50000000E+00  1.50000000E+00  8.00000000E-01
  8.00000000E-01  1.50000000E+00  1.50000000E+00  8.00000000E-01  8.00000000E-01
  1.50000000E+00  1.50000000E+00  8.00000000E-01  8.00000000E-01  1.50000000E+00
  1.50000000E+00  8.00000000E-01  8.00000000E-01  1.50000000E+00  1.50000000E+00
  8.00000000E-01  8.00000000E-01  1.50000000E+00  1.50000000E+00  8.00000000E-01
  8.00000000E-01  1.50000000E+00  1.50000000E+00  8.00000000E-01  8.00000000E-01
  1.50000000E+00  1.50000000E+00  8.00000000E-01  8.00000000E-01  1.50000000E+00
  1.50000000E+00  8.00000000E-01  8.00000000E-01  1.50000000E+00  1.50000000E+00
  8.00000000E-01  8.00000000E-01  1.50000000E+00  1.50000000E+00  8.00000000E-01
  8.00000000E-01  1.50000000E+00  1.50000000E+00  8.00000000E-01  8.00000000E-01
  1.50000000E+00  1.50000000E+00  8.00000000E-01  8.00000000E-01  1.50000000E+00
  1.50000000E+00  8.00000000E-01  8.00000000E-01  1.50000000E+00  1.50000000E+00
  8.00000000E-01  8.00000000E-01  1.50000000E+00  1.50000000E+00  8.00000000E-01
  8.00000000E-01  1.50000000E+00  1.50000000E+00  8.00000000E-01  8.00000000E-01
  1.50000000E+00  1.50000000E+00  8.00000000E-01  8.00000000E-01  1.50000000E+00
  1.50000000E+00  8.00000000E-01  8.00000000E-01  1.50000000E+00  1.50000000E+00
  8.00000000E-01  8.00000000E-01  1.50000000E+00  1.50000000E+00  8.00000000E-01
  8.00000000E-01  1.50000000E+00  1.50000000E+00  8.00000000E-01  8.00000000E-01
  1.50000000E+00  1.50000000E+00  8.00000000E-01  8.00000000E-01  1.50000000E+00
  1.50000000E+00  8.00000000E-01  8.00000000E-01  1.50000000E+00  1.50000000E+00
  8.00000000E-01  8.00000000E-01  1.50000000E+00  1.50000000E+00  8.00000000E-01
  8.00000000E-01  1.50000000E+00  1.50000000E+00  8.00000000E-01  8.00000000E-01
  1.50000000E+00  1.50000000E+00  8.00000000E-01  8.00000000E-01  1.50000000E+00
  1.50000000E+00  8.00000000E-01  8.00000000E-01  1.50000000E+00  1.50000000E+00
  8.00000000E-01  8.00000000E-01  1.50000000E+00  1.50000000E+00  8.00000000E-01
  8.00000000E-01  1.50000000E+00  1.50000000E+00  8.00000000E-01  8.00000000E-01
  1.50000000E+00  1.50000000E+00  8.00000000E-01  8.00000000E-01  1.50000000E+00
  1.50000000E+00  8.00000000E-01  8.00000000E-01  1.50000000E+00  1.50000000E+00
  8.00000000E-01  8.00000000E-01  1.50000000E+00  1.50000000E+00  8.00000000E-01
  8.00000000E-01  1.50000000E+00  1.50000000E+00  8.00000000E-01  8.00000000E-01
  1.50000000E+00  1.50000000E+00  8.00000000E-01  8.00000000E-01  1.50000000E+00
  1.50000000E+00  8.00000000E-01  8.00000000E-01  1.50000000E+00  1.50000000E+00
  8.00000000E-01  8.00000000E-01  1.50000000E+00  1.50000000E+00  8.00000000E-01
  8.00000000E-01  1.50000000E+00  1.50000000E+00  8.00000000E-01  8.00000000E-01
  1.50000000E+00  1.50000000E+00  8.00000000E-01  8.00000000E-01  1.50000000E+00
  1.50000000E+00  8.00000000E-01  8.00000000E-01  1.50000000E+00  1.50000000E+00
  8.00000000E-01  8.00000000E-01  1.50000000E+00  1.50000000E+00  8.00000000E-01
  8.00000000E-01  1.50000000E+00  1.50000000E+00  8.00000000E-01  8.00000000E-01
  1.50000000E+00  1.50000000E+00  8.00000000E-01  8.00000000E-01  1.50000000E+00
  1.50000000E+00  8.00000000E-01  8.00000000E-01  1.50000000E+00  1.50000000E+00
  8.00000000E-01  8.00000000E-01  1.50000000E+00  1.50000000E+00  8.00000000E-01
  8.00000000E-01  1.50000000E+00  1.50000000E+00  8.00000000E-01  8.00000000E-01
  1.50000000E+00  1.50000000E+00  8.00000000E-01  8.00000000E-01  1.50000000E+00
  1.50000000E+00  8.00000000E-01  8.00000000E-01  1.50000000E+00  1.50000000E+00
  8.00000000E-01  8.00000000E-01  1.50000000E+00  1.50000000E+00  8.00000000E-01
  8.00000000E-01  1.50000000E+00  1.50000000E+00  8.00000000E-01  8.00000000E-01
  1.50000000E+00  1.50000000E+00  8.00000000E-01  8.00000000E-01  1.50000000E+00
  1.50000000E+00  8.00000000E-01  8.00000000E-01  1.50000000E+00  1.50000000E+00
  8.00000000E-01  8.00000000E-01  1.50000000E+00  1.50000000E+00  8.00000000E-01
  8.00000000E-01  1.50000000E+00  1.50000000E+00  8.00000000E-01  8.00000000E-01
  1.50000000E+00  1.50000000E+00  8.00000000E-01  8.00000000E-01  1.50000000E+00
  1.50000000E+00  8.00000000E-01  8.00000000E-01  1.50000000E+00  1.50000000E+00
  8.00000000E-01  8.00000000E-01  1.50000000E+00  1.50000000E+00  8.00000000E-01
  8.00000000E-01  1.50000000E+00  1.50000000E+00  8.00000000E-01  8.00000000E-01
  1.50000000E+00  1.50000000E+00  8.00000000E-01  8.00000000E-01  1.50000000E+00
  1.50000000E+00  8.00000000E-01  8.00000000E-01  1.50000000E+00  1.50000000E+00
  8.00000000E-01  8.00000000E-01  1.50000000E+00  1.50000000E+00  8.00000000E-01
  8.00000000E-01  1.50000000E+00  1.50000000E+00  8.00000000E-01  8.00000000E-01
  1.50000000E+00  1.50000000E+00  8.00000000E-01  8.00000000E-01  1.50000000E+00
  1.50000000E+00  8.00000000E-01  8.00000000E-01  1.50000000E+00  1.50000000E+00
  8.00000000E-01  8.00000000E-01  1.50000000E+00  1.50000000E+00  8.00000000E-01
  8.00000000E-01  1.50000000E+00  1.50000000E+00  8.00000000E-01  8.00000000E-01
  1.50000000E+00  1.50000000E+00  8.00000000E-01  8.00000000E-01  1.50000000E+00
  1.50000000E+00  8.00000000E-01  8.00000000E-01  1.50000000E+00  1.50000000E+00
  8.00000000E-01  8.00000000E-01  1.50000000E+00  1.50000000E+00  8.00000000E-01
  8.00000000E-01  1.50000000E+00  1.50000000E+00  8.00000000E-01  8.00000000E-01
  1.50000000E+00  1.50000000E+00  8.00000000E-01  8.00000000E-01  1.50000000E+00
  1.50000000E+00  8.00000000E-01  8.00000000E-01  1.50000000E+00  1.50000000E+00
  8.00000000E-01  8.00000000E-01  1.50000000E+00  1.50000000E+00  8.00000000E-01
  8.00000000E-01  1.50000000E+00  1.50000000E+00  8.00000000E-01  8.00000000E-01
  1.50000000E+00  1.50000000E+00  8.00000000E-01  8.00000000E-01  1.50000000E+00
  1.50000000E+00  8.00000000E-01  8.00000000E-01  1.50000000E+00  1.50000000E+00
  8.00000000E-01  8.00000000E-01  1.50000000E+00  1.50000000E+00  8.00000000E-01
  8.00000000E-01  1.50000000E+00  1.50000000E+00  8.00000000E-01  8.00000000E-01
  1.50000000E+00  1.50000000E+00  8.00000000E-01  8.00000000E-01  1.50000000E+00
  1.50000000E+00  8.00000000E-01  8.00000000E-01  1.50000000E+00  1.50000000E+00
  8.00000000E-01  8.00000000E-01  1.50000000E+00  1.50000000E+00  8.00000000E-01
  8.00000000E-01  1.50000000E+00  1.50000000E+00  8.00000000E-01  8.00000000E-01
  1.50000000E+00  1.50000000E+00  8.00000000E-01  8.00000000E-01  1.50000000E+00
  1.50000000E+00  8.00000000E-01  8.00000000E-01  1.50000000E+00  1.50000000E+00
  8.00000000E-01  8.00000000E-01  1.50000000E+00  1.50000000E+00  8.00000000E-01
  8.00000000E-01  1.50000000E+00  1.50000000E+00  8.00000000E-01  8.00000000E-01
  1.50000000E+00  1.50000000E+00  8.00000000E-01  8.00000000E-01  1.50000000E+00
  1.50000000E+00  8.00000000E-01  8.00000000E-01  1.50000000E+00  1.50000000E+00
  8.00000000E-01  8.00000000E-01  1.50000000E+00  1.50000000E+00  8.00000000E-01
  8.00000000E-01  1.50000000E+00  1.50000000E+00  8.00000000E-01  8.00000000E-01
  1.50000000E+00  1.50000000E+00  8.00000000E-01  8.00000000E-01  1.50000000E+00
  1.50000000E+00  8.00000000E-01  8.00000000E-01  1.50000000E+00  1.50000000E+00
  8.00000000E-01  8.00000000E-01  1.50000000E+00  1.50000000E+00  8.00000000E-01
  8.00000000E-01  1.50000000E+00  1.50000000E+00  8.00000000E-01  8.00000000E-01
  1.50000000E+00  1.50000000E+00  8.00000000E-01  8.00000000E-01  1.50000000E+00
  1.50000000E+00  8.00000000E-01  8.00000000E-01  1.50000000E+00  1.50000000E+00
  8.00000000E-01  8.00000000E-01  1.50000000E+00  1.50000000E+00  8.00000000E-01
  8.00000000E-01  1.50000000E+00  1.50000000E+00  8.00000000E-01  8.00000000E-01
  1.50000000E+00  1.50000000E+00  8.00000000E-01  8.00000000E-01  1.50000000E+00
  1.50000000E+00  8.00000000E-01  8.00000000E-01  1.50000000E+00  1.50000000E+00
  8.00000000E-01  8.00000000E-01  1.50000000E+00  1.50000000E+00  8.00000000E-01
  8.00000000E-01  1.50000000E+00  1.50000000E+00  8.00000000E-01  8.00000000E-01
  1.50000000E+00  1.50000000E+00  8.00000000E-01  8.00000000E-01  1.50000000E+00
  1.50000000E+00  8.00000000E-01  8.00000000E-01  1.50000000E+00  1.50000000E+00
  8.00000000E-01  8.00000000E-01  1.50000000E+00  1.50000000E+00  8.00000000E-01
  8.00000000E-01  1.50000000E+00  1.50000000E+00  8.00000000E-01  8.00000000E-01
  1.50000000E+00  1.50000000E+00  8.00000000E-01  8.00000000E-01  1.50000000E+00
  1.50000000E+00  8.00000000E-01  8.00000000E-01  1.50000000E+00  1.50000000E+00
  8.00000000E-01  8.00000000E-01  1.50000000E+00  1.50000000E+00  8.00000000E-01
  8.00000000E-01  1.50000000E+00  1.50000000E+00  8.00000000E-01  8.00000000E-01
  1.50000000E+00  1.50000000E+00  8.00000000E-01  8.00000000E-01  1.50000000E+00
  1.50000000E+00  8.00000000E-01  8.00000000E-01  1.50000000E+00  1.50000000E+00
  8.00000000E-01  8.00000000E-01  1.50000000E+00  1.50000000E+00  8.00000000E-01
  8.00000000E-01  1.50000000E+00  1.50000000E+00  8.00000000E-01  8.00000000E-01
  1.50000000E+00  1.50000000E+00  8.00000000E-01  8.00000000E-01  1.50000000E+00
  1.50000000E+00  8.00000000E-01  8.00000000E-01  1.50000000E+00  1.50000000E+00
  8.00000000E-01  8.00000000E-01  1.50000000E+00  1.50000000E+00  8.00000000E-01
  8.00000000E-01  1.50000000E+00  1.50000000E+00  8.00000000E-01  8.00000000E-01
  1.50000000E+00  1.50000000E+00  8.00000000E-01  8.00000000E-01  1.50000000E+00
  1.50000000E+00  8.00000000E-01  8.00000000E-01  1.50000000E+00  1.50000000E+00
  8.00000000E-01  8.00000000E-01  1.50000000E+00  1.50000000E+00  8.00000000E-01
  8.00000000E-01  1.50000000E+00  1.50000000E+00  8.00000000E-01  8.00000000E-01
  1.50000000E+00  1.50000000E+00  8.00000000E-01  8.00000000E-01  1.50000000E+00
  1.50000000E+00  8.00000000E-01  8.00000000E-01  1.50000000E+00  1.50000000E+00
  8.00000000E-01  8.00000000E-01  1.50000000E+00  1.50000000E+00  8.00000000E-01
  8.00000000E-01  1.50000000E+00  1.50000000E+00  8.00000000E-01  8.00000000E-01
  1.50000000E+00  1.50000000E+00  8.00000000E-01  8.00000000E-01  1.50000000E+00
  1.50000000E+00  8.00000000E-01  8.00000000E-01  1.50000000E+00  1.50000000E+00
  8.00000000E-01  8.00000000E-01  1.50000000E+00  1.50000000E+00  8.00000000E-01
  8.00000000E-01  1.50000000E+00  1.50000000E+00  8.00000000E-01  8.00000000E-01
  1.50000000E+00  1.50000000E+00  8.00000000E-01  8.00000000E-01  1.50000000E+00
  1.50000000E+00  8.00000000E-01  8.00000000E-01  1.50000000E+00  1.50000000E+00
  8.00000000E-01  8.00000000E-01  1.50000000E+00  1.50000000E+00  8.00000000E-01
  8.00000000E-01  1.50000000E+00  1.50000000E+00  8.00000000E-01  8.00000000E-01
  1.50000000E+00  1.50000000E+00  8.00000000E-01  8.00000000E-01  1.50000000E+00
  1.50000000E+00  8.00000000E-01  8.00000000E-01  1.50000000E+00  1.50000000E+00
  8.00000000E-01  8.00000000E-01  1.50000000E+00  1.50000000E+00  8.00000000E-01
  8.00000000E-01  1.50000000E+00  1.50000000E+00  8.00000000E-01  8.00000000E-01
  1.50000000E+00  1.50000000E+00  8.00000000E-01  8.00000000E-01  1.50000000E+00
  1.50000000E+00  8.00000000E-01  8.00000000E-01  1.50000000E+00  1.50000000E+00
  8.00000000E-01  8.00000000E-01  1.50000000E+00  1.50000000E+00  8.00000000E-01
  8.00000000E-01  1.50000000E+00  1.50000000E+00  8.00000000E-01  8.00000000E-01
  1.50000000E+00  1.50000000E+00  8.00000000E-01  8.00000000E-01  1.50000000E+00
  1.50000000E+00  8.00000000E-01  8.00000000E-01  1.50000000E+00  1.50000000E+00
  8.00000000E-01  8.00000000E-01  1.50000000E+00  1.50000000E+00  8.00000000E-01
  8.00000000E-01  1.50000000E+00  1.50000000E+00  8.00000000E-01  8.00000000E-01
  1.50000000E+00  1.50000000E+00  8.00000000E-01  8.00000000E-01  1.50000000E+00
  1.50000000E+00  8.00000000E-01  8.00000000E-01  1.50000000E+00  1.50000000E+00
  8.00000000E-01  8.00000000E-01  1.50000000E+00  1.50000000E+00  8.00000000E-01
  8.00000000E-01  1.50000000E+00  1.50000000E+00  8.00000000E-01  8.00000000E-01
  1.50000000E+00  1.50000000E+00  8.00000000E-01  8.00000000E-01  1.50000000E+00
  1.50000000E+00  8.00000000E-01  8.00000000E-01  1.50000000E+00  1.50000000E+00
  8.00000000E-01  8.00000000E-01  1.50000000E+00  1.50000000E+00  8.00000000E-01
  8.00000000E-01  1.50000000E+00  1.50000000E+00  8.00000000E-01  8.00000000E-01
  1.50000000E+00  1.50000000E+00  8.00000000E-01  8.00000000E-01  1.50000000E+00
  1.50000000E+00  8.00000000E-01  8.00000000E-01  1.50000000E+00  1.50000000E+00
  8.00000000E-01  8.00000000E-01  1.50000000E+00  1.50000000E+00  8.00000000E-01
  8.00000000E-01  1.50000000E+00  1.50000000E+00  8.00000000E-01  8.00000000E-01
  1.50000000E+00  1.50000000E+00  8.00000000E-01  8.00000000E-01  1.50000000E+00
  1.50000000E+00  8.00000000E-01  8.00000000E-01  1.50000000E+00  1.50000000E+00
  8.00000000E-01  8.00000000E-01  1.50000000E+00  1.50000000E+00  8.00000000E-01
  8.00000000E-01  1.50000000E+00  1.50000000E+00  8.00000000E-01  8.00000000E-01
  1.50000000E+00  1.50000000E+00  8.00000000E-01  8.00000000E-01  1.50000000E+00
  1.50000000E+00  8.00000000E-01  8.00000000E-01  1.50000000E+00  1.50000000E+00
  8.00000000E-01  8.00000000E-01  1.50000000E+00  1.50000000E+00  8.00000000E-01
  8.00000000E-01  1.50000000E+00  1.50000000E+00  8.00000000E-01  8.00000000E-01
  1.50000000E+00  1.50000000E+00  8.00000000E-01  8.00000000E-01  1.50000000E+00
  1.50000000E+00  8.00000000E-01  8.00000000E-01  1.50000000E+00  1.50000000E+00
  8.00000000E-01  8.00000000E-01  1.50000000E+00  1.50000000E+00  8.00000000E-01
  8.00000000E-01  1.50000000E+00  1.50000000E+00  8.00000000E-01  8.00000000E-01
  1.50000000E+00  1.50000000E+00  8.00000000E-01  8.00000000E-01  1.50000000E+00
  1.50000000E+00  8.00000000E-01  8.00000000E-01  1.50000000E+00  1.50000000E+00
  8.00000000E-01  8.00000000E-01  1.50000000E+00  1.50000000E+00  8.00000000E-01
  8.00000000E-01  1.50000000E+00  1.50000000E+00  8.00000000E-01  8.00000000E-01
  1.50000000E+00  1.50000000E+00  8.00000000E-01  8.00000000E-01  1.50000000E+00
  1.50000000E+00  8.00000000E-01  8.00000000E-01  1.50000000E+00  1.50000000E+00
  8.00000000E-01  8.00000000E-01  1.50000000E+00  1.50000000E+00  8.00000000E-01
  8.00000000E-01  1.50000000E+00  1.50000000E+00  8.00000000E-01  8.00000000E-01
  1.50000000E+00  1.50000000E+00  8.00000000E-01  8.00000000E-01  1.50000000E+00
  1.50000000E+00  8.00000000E-01  8.00000000E-01  1.50000000E+00  1.50000000E+00
  8.00000000E-01  8.00000000E-01  1.50000000E+00  1.50000000E+00  8.00000000E-01
  8.00000000E-01  1.50000000E+00  1.50000000E+00  8.00000000E-01  8.00000000E-01
  1.50000000E+00  1.50000000E+00  8.00000000E-01  8.00000000E-01  1.50000000E+00
  1.50000000E+00  8.00000000E-01  8.00000000E-01  1.50000000E+00  1.50000000E+00
  8.00000000E-01  8.00000000E-01  1.50000000E+00  1.50000000E+00  8.00000000E-01
  8.00000000E-01  1.50000000E+00  1.50000000E+00  8.00000000E-01  8.00000000E-01
  1.50000000E+00  1.50000000E+00  8.00000000E-01  8.00000000E-01  1.50000000E+00
  1.50000000E+00  8.00000000E-01  8.00000000E-01  1.50000000E+00  1.50000000E+00
  8.00000000E-01  8.00000000E-01  1.50000000E+00  1.50000000E+00  8.00000000E-01
  8.00000000E-01  1.50000000E+00  1.50000000E+00  8.00000000E-01  8.00000000E-01
  1.50000000E+00  1.50000000E+00  8.00000000E-01  8.00000000E-01  1.50000000E+00
  1.50000000E+00  8.00000000E-01  8.00000000E-01  1.50000000E+00  1.50000000E+00
  8.00000000E-01  8.00000000E-01  1.50000000E+00  1.50000000E+00  8.00000000E-01
  8.00000000E-01  1.50000000E+00  1.50000000E+00  8.00000000E-01  8.00000000E-01
  1.50000000E+00  1.50000000E+00  8.00000000E-01  8.00000000E-01  1.50000000E+00
  1.50000000E+00  8.00000000E-01  8.00000000E-01  1.50000000E+00  1.50000000E+00
  8.00000000E-01  8.00000000E-01  1.50000000E+00  1.50000000E+00  8.00000000E-01
  8.00000000E-01  1.50000000E+00  1.50000000E+00  8.00000000E-01  8.00000000E-01
  1.50000000E+00  1.50000000E+00  8.00000000E-01  8.00000000E-01  1.50000000E+00
  1.50000000E+00  8.00000000E-01  8.00000000E-01  1.50000000E+00  1.50000000E+00
  8.00000000E-01  8.00000000E-01  1.50000000E+00  1.50000000E+00  8.00000000E-01
  8.00000000E-01  1.50000000E+00  1.50000000E+00  8.00000000E-01  8.00000000E-01
  1.50000000E+00  1.50000000E+00  8.00000000E-01  8.00000000E-01  1.50000000E+00
  1.50000000E+00  8.00000000E-01  8.00000000E-01  1.50000000E+00  1.50000000E+00
  8.00000000E-01  8.00000000E-01  1.50000000E+00  1.50000000E+00  8.00000000E-01
  8.00000000E-01  1.50000000E+00  1.50000000E+00  8.00000000E-01  8.00000000E-01
  1.50000000E+00  1.50000000E+00  8.00000000E-01  8.00000000E-01  1.50000000E+00
  1.50000000E+00  8.00000000E-01  8.00000000E-01  1.50000000E+00  1.50000000E+00
  8.00000000E-01  8.00000000E-01  1.50000000E+00  1.50000000E+00  8.00000000E-01
  8.00000000E-01  1.50000000E+00  1.50000000E+00  8.00000000E-01  8.00000000E-01
  1.50000000E+00  1.50000000E+00  8.00000000E-01  8.00000000E-01  1.50000000E+00
  1.50000000E+00  8.00000000E-01  8.00000000E-01  1.50000000E+00  1.50000000E+00
  8.00000000E-01  8.00000000E-01  1.50000000E+00  1.50000000E+00  8.00000000E-01
  8.00000000E-01  1.50000000E+00  1.50000000E+00  8.00000000E-01  8.00000000E-01
  1.50000000E+00  1.50000000E+00  8.00000000E-01  8.00000000E-01  1.50000000E+00
  1.50000000E+00  8.00000000E-01  8.00000000E-01  1.50000000E+00  1.50000000E+00
  8.00000000E-01  8.00000000E-01  1.50000000E+00  1.50000000E+00  8.00000000E-01
  8.00000000E-01  1.50000000E+00  1.50000000E+00  8.00000000E-01  8.00000000E-01
  1.50000000E+00  1.50000000E+00  8.00000000E-01  8.00000000E-01  1.50000000E+00
  1.50000000E+00  8.00000000E-01  8.00000000E-01  1.50000000E+00  1.50000000E+00
  8.00000000E-01  8.00000000E-01  1.50000000E+00  1.50000000E+00  8.00000000E-01
  8.00000000E-01  1.50000000E+00  1.50000000E+00  8.00000000E-01  8.00000000E-01
  1.50000000E+00  1.50000000E+00  8.00000000E-01  8.00000000E-01  1.50000000E+00
  1.50000000E+00  8.00000000E-01  8.00000000E-01  1.50000000E+00  1.50000000E+00
  8.00000000E-01  8.00000000E-01  1.50000000E+00  1.50000000E+00  8.00000000E-01
  8.00000000E-01  1.50000000E+00  1.50000000E+00  8.00000000E-01  8.00000000E-01
  1.50000000E+00  1.50000000E+00  8.00000000E-01  8.00000000E-01  1.50000000E+00
  1.50000000E+00  8.00000000E-01  8.00000000E-01  1.50000000E+00  1.50000000E+00
  8.00000000E-01  8.00000000E-01  1.50000000E+00  1.50000000E+00  8.00000000E-01
  8.00000000E-01  1.50000000E+00  1.50000000E+00  8.00000000E-01  8.00000000E-01
  1.50000000E+00  1.50000000E+00  8.00000000E-01  8.00000000E-01  1.50000000E+00
  1.50000000E+00  8.00000000E-01  8.00000000E-01  1.50000000E+00  1.50000000E+00
  8.00000000E-01  8.00000000E-01  1.50000000E+00  1.50000000E+00  8.00000000E-01
  8.00000000E-01  1.50000000E+00  1.50000000E+00  8.00000000E-01  8.00000000E-01
  1.50000000E+00  1.50000000E+00  8.00000000E-01  8.00000000E-01  1.50000000E+00
  1.50000000E+00  8.00000000E-01  8.00000000E-01  1.50000000E+00  1.50000000E+00
  8.00000000E-01  8.00000000E-01  1.50000000E+00  1.50000000E+00  8.00000000E-01
  8.00000000E-01  1.50000000E+00  1.50000000E+00  8.00000000E-01  8.00000000E-01
  1.50000000E+00  1.50000000E+00  8.00000000E-01  8.00000000E-01  1.50000000E+00
  1.50000000E+00  8.00000000E-01  8.00000000E-01  1.50000000E+00  1.50000000E+00
  8.00000000E-01  8.00000000E-01  1.50000000E+00  1.50000000E+00  8.00000000E-01
  8.00000000E-01  1.50000000E+00  1.50000000E+00  8.00000000E-01  8.00000000E-01
  1.50000000E+00  1.50000000E+00  8.00000000E-01  8.00000000E-01  1.50000000E+00
  1.50000000E+00  8.00000000E-01  8.00000000E-01  1.50000000E+00  1.50000000E+00
  8.00000000E-01  8.00000000E-01  1.50000000E+00  1.50000000E+00  8.00000000E-01
  8.00000000E-01  1.50000000E+00  1.50000000E+00  8.00000000E-01  8.00000000E-01
  1.50000000E+00  1.50000000E+00  8.00000000E-01  8.00000000E-01  1.50000000E+00
  1.50000000E+00  8.00000000E-01  8.00000000E-01  1.50000000E+00  1.50000000E+00
  8.00000000E-01  8.00000000E-01  1.50000000E+00  1.50000000E+00  8.00000000E-01
  8.00000000E-01  1.50000000E+00  1.50000000E+00  8.00000000E-01  8.00000000E-01
  1.50000000E+00  1.50000000E+00  8.00000000E-01  8.00000000E-01  1.50000000E+00
  1.50000000E+00  8.00000000E-01  8.00000000E-01  1.50000000E+00  1.50000000E+00
  8.00000000E-01  8.00000000E-01  1.50000000E+00  1.50000000E+00  8.00000000E-01
  8.00000000E-01  1.50000000E+00  1.50000000E+00  8.00000000E-01  8.00000000E-01
  1.50000000E+00  1.50000000E+00  8.00000000E-01  8.00000000E-01  1.50000000E+00
  1.50000000E+00  8.00000000E-01  8.00000000E-01  1.50000000E+00  1.50000000E+00
  8.00000000E-01  8.00000000E-01  1.50000000E+00  1.50000000E+00  8.00000000E-01
  8.00000000E-01  1.50000000E+00  1.50000000E+00  8.00000000E-01  8.00000000E-01
  1.50000000E+00  1.50000000E+00  8.00000000E-01  8.00000000E-01  1.50000000E+00
  1.50000000E+00  8.00000000E-01  8.00000000E-01  1.50000000E+00  1.50000000E+00
  8.00000000E-01  8.00000000E-01  1.50000000E+00  1.50000000E+00  8.00000000E-01
  8.00000000E-01  1.50000000E+00  1.50000000E+00  8.00000000E-01  8.00000000E-01
  1.50000000E+00  1.50000000E+00  8.00000000E-01  8.00000000E-01  1.50000000E+00
  1.50000000E+00  8.00000000E-01  8.00000000E-01  1.50000000E+00  1.50000000E+00
  8.00000000E-01  8.00000000E-01  1.50000000E+00  1.50000000E+00  8.00000000E-01
  8.00000000E-01  1.50000000E+00  1.50000000E+00  8.00000000E-01  8.00000000E-01
  1.50000000E+00  1.50000000E+00  8.00000000E-01  8.00000000E-01  1.50000000E+00
  1.50000000E+00  8.00000000E-01  8.00000000E-01  1.50000000E+00  1.50000000E+00
  8.00000000E-01  8.00000000E-01  1.50000000E+00  1.50000000E+00  8.00000000E-01
  8.00000000E-01  1.50000000E+00  1.50000000E+00  8.00000000E-01  8.00000000E-01
  1.50000000E+00  1.50000000E+00  8.00000000E-01  8.00000000E-01  1.50000000E+00
  1.50000000E+00  8.00000000E-01  8.00000000E-01  1.50000000E+00  1.50000000E+00
  8.00000000E-01  8.00000000E-01  1.50000000E+00  1.50000000E+00  8.00000000E-01
  8.00000000E-01  1.50000000E+00  1.50000000E+00  8.00000000E-01  8.00000000E-01
  1.50000000E+00  1.50000000E+00  8.00000000E-01  8.00000000E-01  1.50000000E+00
  1.50000000E+00  8.00000000E-01  8.00000000E-01  1.50000000E+00  1.50000000E+00
  8.00000000E-01  8.00000000E-01  1.50000000E+00  1.50000000E+00  8.00000000E-01
  8.00000000E-01  1.50000000E+00  1.50000000E+00  8.00000000E-01  8.00000000E-01
  1.50000000E+00  1.50000000E+00  8.00000000E-01  8.00000000E-01  1.50000000E+00
  1.50000000E+00  8.00000000E-01  8.00000000E-01  1.50000000E+00  1.50000000E+00
  8.00000000E-01  8.00000000E-01  1.50000000E+00  1.50000000E+00  8.00000000E-01
  8.00000000E-01  1.50000000E+00  1.50000000E+00  8.00000000E-01  8.00000000E-01
  1.50000000E+00  1.50000000E+00  8.00000000E-01  8.00000000E-01  1.50000000E+00
  1.50000000E+00  8.00000000E-01  8.00000000E-01  1.50000000E+00  1.50000000E+00
  8.00000000E-01  8.00000000E-01  1.50000000E+00  1.50000000E+00  8.00000000E-01
  8.00000000E-01  1.50000000E+00  1.50000000E+00  8.00000000E-01  8.00000000E-01
  1.50000000E+00  1.50000000E+00  8.00000000E-01  8.00000000E-01  1.50000000E+00
  1.50000000E+00  8.00000000E-01  8.00000000E-01  1.50000000E+00  1.50000000E+00
  8.00000000E-01  8.00000000E-01  1.50000000E+00  1.50000000E+00  8.00000000E-01
  8.00000000E-01  1.50000000E+00  1.50000000E+00  8.00000000E-01  8.00000000E-01
  1.50000000E+00  1.50000000E+00  8.00000000E-01  8.00000000E-01  1.50000000E+00
  1.50000000E+00  8.00000000E-01  8.00000000E-01  1.50000000E+00  1.50000000E+00
  8.00000000E-01  8.00000000E-01  1.50000000E+00  1.50000000E+00  8.00000000E-01
  8.00000000E-01  1.50000000E+00  1.50000000E+00  8.00000000E-01  8.00000000E-01
  1.50000000E+00  1.50000000E+00  8.00000000E-01  8.00000000E-01  1.50000000E+00
  1.50000000E+00  8.00000000E-01  8.00000000E-01  1.50000000E+00  1.50000000E+00
  8.00000000E-01  8.00000000E-01  1.50000000E+00  1.50000000E+00  8.00000000E-01
  8.00000000E-01  1.50000000E+00  1.50000000E+00  8.00000000E-01  8.00000000E-01
  1.50000000E+00  1.50000000E+00  8.00000000E-01  8.00000000E-01  1.50000000E+00
  1.50000000E+00  8.00000000E-01  8.00000000E-01  1.50000000E+00  1.50000000E+00
  8.00000000E-01  8.00000000E-01  1.50000000E+00  1.50000000E+00  8.00000000E-01
  8.00000000E-01  1.50000000E+00  1.50000000E+00  8.00000000E-01  8.00000000E-01
  1.50000000E+00  1.50000000E+00  8.00000000E-01  8.00000000E-01  1.50000000E+00
  1.50000000E+00  8.00000000E-01  8.00000000E-01  1.50000000E+00  1.50000000E+00
  8.00000000E-01  8.00000000E-01  1.50000000E+00  1.50000000E+00  8.00000000E-01
  8.00000000E-01  1.50000000E+00  1.50000000E+00  8.00000000E-01  8.00000000E-01
  1.50000000E+00  1.50000000E+00  8.00000000E-01  8.00000000E-01  1.50000000E+00
  1.50000000E+00  8.00000000E-01  8.00000000E-01  1.50000000E+00  1.50000000E+00
  8.00000000E-01  8.00000000E-01  1.50000000E+00  1.50000000E+00  8.00000000E-01
  8.00000000E-01  1.50000000E+00  1.50000000E+00  8.00000000E-01  8.00000000E-01
  1.50000000E+00  1.50000000E+00  8.00000000E-01  8.00000000E-01  1.50000000E+00
  1.50000000E+00  8.00000000E-01  8.00000000E-01  1.50000000E+00  1.50000000E+00
  8.00000000E-01  8.00000000E-01  1.50000000E+00  1.50000000E+00  8.00000000E-01
  8.00000000E-01  1.50000000E+00  1.50000000E+00  8.00000000E-01  8.00000000E-01
  1.50000000E+00  1.50000000E+00  8.00000000E-01  8.00000000E-01  1.50000000E+00
  1.50000000E+00  8.00000000E-01  8.00000000E-01  1.50000000E+00  1.50000000E+00
  8.00000000E-01  8.00000000E-01  1.50000000E+00  1.50000000E+00  8.00000000E-01
  8.00000000E-01  1.50000000E+00  1.50000000E+00  8.00000000E-01  8.00000000E-01
  1.50000000E+00  1.50000000E+00  8.00000000E-01  8.00000000E-01  1.50000000E+00
  1.50000000E+00  8.00000000E-01  8.00000000E-01  1.50000000E+00  1.50000000E+00
  8.00000000E-01  8.00000000E-01  1.50000000E+00  1.50000000E+00  8.00000000E-01
  8.00000000E-01  1.50000000E+00  1.50000000E+00  8.00000000E-01  8.00000000E-01
  1.50000000E+00  1.50000000E+00  8.00000000E-01  8.00000000E-01  1.50000000E+00
  1.50000000E+00  8.00000000E-01  8.00000000E-01  1.50000000E+00  1.50000000E+00
  8.00000000E-01  8.00000000E-01  1.50000000E+00  1.50000000E+00  8.00000000E-01
  8.00000000E-01  1.50000000E+00  1.50000000E+00  8.00000000E-01  8.00000000E-01
  1.50000000E+00  1.50000000E+00  8.00000000E-01  8.00000000E-01  1.50000000E+00
  1.50000000E+00  8.00000000E-01  8.00000000E-01  1.50000000E+00  1.50000000E+00
  8.00000000E-01  8.00000000E-01  1.50000000E+00  1.50000000E+00  8.00000000E-01
  8.00000000E-01  1.50000000E+00  1.50000000E+00  8.00000000E-01  8.00000000E-01
  1.50000000E+00  1.50000000E+00  8.00000000E-01  8.00000000E-01  1.50000000E+00
  1.50000000E+00  8.00000000E-01  8.00000000E-01  1.50000000E+00  1.50000000E+00
  8.00000000E-01  8.00000000E-01  1.50000000E+00  1.50000000E+00  8.00000000E-01
  8.00000000E-01  1.50000000E+00  1.50000000E+00  8.00000000E-01  8.00000000E-01
  1.50000000E+00  1.50000000E+00  8.00000000E-01  8.00000000E-01  1.50000000E+00
  1.50000000E+00  8.00000000E-01  8.00000000E-01  1.50000000E+00  1.50000000E+00
  8.00000000E-01  8.00000000E-01  1.50000000E+00  1.50000000E+00  8.00000000E-01
  8.00000000E-01  1.50000000E+00  1.50000000E+00  8.00000000E-01  8.00000000E-01
  1.50000000E+00  1.50000000E+00  8.00000000E-01  8.00000000E-01  1.50000000E+00
  1.50000000E+00  8.00000000E-01  8.00000000E-01  1.50000000E+00  1.50000000E+00
  8.00000000E-01  8.00000000E-01  1.50000000E+00  1.50000000E+00  8.00000000E-01
  8.00000000E-01  1.50000000E+00  1.50000000E+00  8.00000000E-01  8.00000000E-01
  1.50000000E+00  1.50000000E+00  8.00000000E-01  8.00000000E-01  1.50000000E+00
  1.50000000E+00  8.00000000E-01  8.00000000E-01  1.50000000E+00  1.50000000E+00
  8.00000000E-01  8.00000000E-01  1.50000000E+00  1.50000000E+00  8.00000000E-01
  8.00000000E-01  1.50000000E+00  1.50000000E+00  8.00000000E-01  8.00000000E-01
  1.50000000E+00  1.50000000E+00  8.00000000E-01  8.00000000E-01  1.50000000E+00
  1.50000000E+00  8.00000000E-01  8.00000000E-01  1.50000000E+00  1.50000000E+00
  8.00000000E-01  8.00000000E-01  1.50000000E+00  1.50000000E+00  8.00000000E-01
  8.00000000E-01  1.50000000E+00  1.50000000E+00  8.00000000E-01  8.00000000E-01
  1.50000000E+00  1.50000000E+00  8.00000000E-01  8.00000000E-01  1.50000000E+00
  1.50000000E+00  8.00000000E-01  8.00000000E-01  1.50000000E+00  1.50000000E+00
  8.00000000E-01  8.00000000E-01  1.50000000E+00  1.50000000E+00  8.00000000E-01
  8.00000000E-01  1.50000000E+00  1.50000000E+00  8.00000000E-01  8.00000000E-01
  1.50000000E+00  1.50000000E+00  8.00000000E-01  8.00000000E-01  1.50000000E+00
  1.50000000E+00  8.00000000E-01  8.00000000E-01  1.50000000E+00  1.50000000E+00
  8.00000000E-01  8.00000000E-01  1.50000000E+00  1.50000000E+00  8.00000000E-01
  8.00000000E-01  1.50000000E+00  1.50000000E+00  8.00000000E-01  8.00000000E-01
  1.50000000E+00  1.50000000E+00  8.00000000E-01  8.00000000E-01  1.50000000E+00
  1.50000000E+00  8.00000000E-01  8.00000000E-01  1.50000000E+00  1.50000000E+00
  8.00000000E-01  8.00000000E-01  1.50000000E+00  1.50000000E+00  8.00000000E-01
  8.00000000E-01  1.50000000E+00  1.50000000E+00  8.00000000E-01  8.00000000E-01
  1.50000000E+00  1.50000000E+00  8.00000000E-01  8.00000000E-01  1.50000000E+00
  1.50000000E+00  8.00000000E-01  8.00000000E-01  1.50000000E+00  1.50000000E+00
  8.00000000E-01  8.00000000E-01  1.50000000E+00  1.50000000E+00  8.00000000E-01
  8.00000000E-01  1.50000000E+00  1.50000000E+00  8.00000000E-01  8.00000000E-01
  1.50000000E+00  1.50000000E+00  8.00000000E-01  8.00000000E-01  1.50000000E+00
  1.50000000E+00  8.00000000E-01  8.00000000E-01  1.50000000E+00  1.50000000E+00
  8.00000000E-01  8.00000000E-01  1.50000000E+00  1.50000000E+00  8.00000000E-01
  8.00000000E-01  1.50000000E+00  1.50000000E+00  8.00000000E-01  8.00000000E-01
  1.50000000E+00  1.50000000E+00  8.00000000E-01  8.00000000E-01  1.50000000E+00
  1.50000000E+00  8.00000000E-01  8.00000000E-01  1.50000000E+00  1.50000000E+00
  8.00000000E-01  8.00000000E-01  1.50000000E+00  1.50000000E+00  8.00000000E-01
  8.00000000E-01  1.50000000E+00  1.50000000E+00  8.00000000E-01  8.00000000E-01
  1.50000000E+00  1.50000000E+00  8.00000000E-01  8.00000000E-01  1.50000000E+00
  1.50000000E+00  8.00000000E-01  8.00000000E-01  1.50000000E+00  1.50000000E+00
  8.00000000E-01  8.00000000E-01  1.50000000E+00  1.50000000E+00  8.00000000E-01
  8.00000000E-01  1.50000000E+00  1.50000000E+00  8.00000000E-01  8.00000000E-01
  1.50000000E+00  1.50000000E+00  8.00000000E-01  8.00000000E-01  1.50000000E+00
  1.50000000E+00  8.00000000E-01  8.00000000E-01  1.50000000E+00  1.50000000E+00
  8.00000000E-01  8.00000000E-01  1.50000000E+00  1.50000000E+00  8.00000000E-01
  8.00000000E-01  1.50000000E+00  1.50000000E+00  8.00000000E-01  8.00000000E-01
  1.50000000E+00  1.50000000E+00  8.00000000E-01  8.00000000E-01  1.50000000E+00
  1.50000000E+00  8.00000000E-01  8.00000000E-01  1.50000000E+00  1.50000000E+00
  8.00000000E-01  8.00000000E-01  1.50000000E+00  1.50000000E+00  8.00000000E-01
  8.00000000E-01  1.50000000E+00  1.50000000E+00  8.00000000E-01  8.00000000E-01
  1.50000000E+00  1.50000000E+00  8.00000000E-01  8.00000000E-01  1.50000000E+00
  1.50000000E+00  8.00000000E-01  8.00000000E-01  1.50000000E+00  1.50000000E+00
  8.00000000E-01  8.00000000E-01  1.50000000E+00  1.50000000E+00  8.00000000E-01
  8.00000000E-01  1.50000000E+00  1.50000000E+00  8.00000000E-01  8.00000000E-01
  1.50000000E+00  1.50000000E+00  8.00000000E-01  8.00000000E-01  1.50000000E+00
  1.50000000E+00  8.00000000E-01  8.00000000E-01  1.50000000E+00  1.50000000E+00
  8.00000000E-01  8.00000000E-01  1.50000000E+00  1.50000000E+00  8.00000000E-01
  8.00000000E-01  1.50000000E+00  1.50000000E+00  8.00000000E-01  8.00000000E-01
  1.50000000E+00  1.50000000E+00  8.00000000E-01  8.00000000E-01  1.50000000E+00
  1.50000000E+00  8.00000000E-01  8.00000000E-01  1.50000000E+00  1.50000000E+00
  8.00000000E-01  8.00000000E-01  1.50000000E+00  1.50000000E+00  8.00000000E-01
  8.00000000E-01  1.50000000E+00  1.50000000E+00  8.00000000E-01  8.00000000E-01
  1.50000000E+00  1.50000000E+00  8.00000000E-01  8.00000000E-01  1.50000000E+00
  1.50000000E+00  8.00000000E-01  8.00000000E-01  1.50000000E+00  1.50000000E+00
  8.00000000E-01  8.00000000E-01  1.50000000E+00  1.50000000E+00  8.00000000E-01
  8.00000000E-01  1.50000000E+00  1.50000000E+00  8.00000000E-01  8.00000000E-01
  1.50000000E+00  1.50000000E+00  8.00000000E-01  8.00000000E-01  1.50000000E+00
  1.50000000E+00  8.00000000E-01  8.00000000E-01  1.50000000E+00  1.50000000E+00
  8.00000000E-01  8.00000000E-01  1.50000000E+00  1.50000000E+00  8.00000000E-01
  8.00000000E-01  1.50000000E+00  1.50000000E+00  8.00000000E-01  8.00000000E-01
  1.50000000E+00  1.50000000E+00  8.00000000E-01  8.00000000E-01  1.50000000E+00
  1.50000000E+00  8.00000000E-01  8.00000000E-01  1.50000000E+00  1.50000000E+00
  8.00000000E-01  8.00000000E-01  1.50000000E+00  1.50000000E+00  8.00000000E-01
  8.00000000E-01  1.50000000E+00  1.50000000E+00  8.00000000E-01  8.00000000E-01
  1.50000000E+00  1.50000000E+00  8.00000000E-01  8.00000000E-01  1.50000000E+00
  1.50000000E+00  8.00000000E-01  8.00000000E-01  1.50000000E+00  1.50000000E+00
  8.00000000E-01  8.00000000E-01  1.50000000E+00  1.50000000E+00  8.00000000E-01
  8.00000000E-01  1.50000000E+00  1.50000000E+00  8.00000000E-01  8.00000000E-01
  1.50000000E+00  1.50000000E+00  8.00000000E-01  8.00000000E-01  1.50000000E+00
  1.50000000E+00  8.00000000E-01  8.00000000E-01  1.50000000E+00  1.50000000E+00
  8.00000000E-01  8.00000000E-01  1.50000000E+00  1.50000000E+00  8.00000000E-01
  8.00000000E-01  1.50000000E+00  1.50000000E+00  8.00000000E-01  8.00000000E-01
  1.50000000E+00  1.50000000E+00  8.00000000E-01  8.00000000E-01  1.50000000E+00
  1.50000000E+00  8.00000000E-01  8.00000000E-01  1.50000000E+00  1.50000000E+00
  8.00000000E-01  8.00000000E-01  1.50000000E+00  1.50000000E+00  8.00000000E-01
  8.00000000E-01  1.50000000E+00  1.50000000E+00  8.00000000E-01  8.00000000E-01
  1.50000000E+00  1.50000000E+00  8.00000000E-01  8.00000000E-01  1.50000000E+00
  1.50000000E+00  8.00000000E-01  8.00000000E-01  1.50000000E+00  1.50000000E+00
  8.00000000E-01  8.00000000E-01  1.50000000E+00  1.50000000E+00  8.00000000E-01
  8.00000000E-01  1.50000000E+00  1.50000000E+00  8.00000000E-01  8.00000000E-01
  1.50000000E+00  1.50000000E+00  8.00000000E-01  8.00000000E-01  1.50000000E+00
  1.50000000E+00  8.00000000E-01  8.00000000E-01  1.50000000E+00  1.50000000E+00
  8.00000000E-01  8.00000000E-01  1.50000000E+00  1.50000000E+00  8.00000000E-01
  8.00000000E-01  1.50000000E+00  1.50000000E+00  8.00000000E-01  8.00000000E-01
  1.50000000E+00  1.50000000E+00  8.00000000E-01  8.00000000E-01  1.50000000E+00
  1.50000000E+00  8.00000000E-01  8.00000000E-01  1.50000000E+00  1.50000000E+00
  8.00000000E-01  8.00000000E-01  1.50000000E+00  1.50000000E+00  8.00000000E-01
  8.00000000E-01  1.50000000E+00  1.50000000E+00  8.00000000E-01  8.00000000E-01
  1.50000000E+00  1.50000000E+00  8.00000000E-01  8.00000000E-01  1.50000000E+00
  1.50000000E+00  8.00000000E-01  8.00000000E-01  1.50000000E+00  1.50000000E+00
  8.00000000E-01  8.00000000E-01  1.50000000E+00  1.50000000E+00  8.00000000E-01
  8.00000000E-01  1.50000000E+00  1.50000000E+00  8.00000000E-01  8.00000000E-01
  1.50000000E+00  1.50000000E+00  8.00000000E-01  8.00000000E-01  1.50000000E+00
  1.50000000E+00  8.00000000E-01  8.00000000E-01  1.50000000E+00  1.50000000E+00
  8.00000000E-01  8.00000000E-01  1.50000000E+00  1.50000000E+00  8.00000000E-01
  8.00000000E-01  1.50000000E+00  1.50000000E+00  8.00000000E-01  8.00000000E-01
  1.50000000E+00  1.50000000E+00  8.00000000E-01  8.00000000E-01  1.50000000E+00
  1.50000000E+00  8.00000000E-01  8.00000000E-01  1.50000000E+00  1.50000000E+00
  8.00000000E-01  8.00000000E-01  1.50000000E+00  1.50000000E+00  8.00000000E-01
  8.00000000E-01  1.50000000E+00  1.50000000E+00  8.00000000E-01  8.00000000E-01
  1.50000000E+00  1.50000000E+00  8.00000000E-01  8.00000000E-01  1.50000000E+00
  1.50000000E+00  8.00000000E-01  8.00000000E-01  1.50000000E+00  1.50000000E+00
  8.00000000E-01  8.00000000E-01  1.50000000E+00  1.50000000E+00  8.00000000E-01
  8.00000000E-01  1.50000000E+00  1.50000000E+00  8.00000000E-01  8.00000000E-01
  1.50000000E+00  1.50000000E+00  8.00000000E-01  8.00000000E-01  1.50000000E+00
  1.50000000E+00  8.00000000E-01  8.00000000E-01  1.50000000E+00  1.50000000E+00
  8.00000000E-01  8.00000000E-01  1.50000000E+00  1.50000000E+00  8.00000000E-01
  8.00000000E-01  1.50000000E+00  1.50000000E+00  8.00000000E-01  8.00000000E-01
  1.50000000E+00  1.50000000E+00  8.00000000E-01  8.00000000E-01  1.50000000E+00
  1.50000000E+00  8.00000000E-01  8.00000000E-01  1.50000000E+00  1.50000000E+00
  8.00000000E-01  8.00000000E-01  1.50000000E+00  1.50000000E+00  8.00000000E-01
  8.00000000E-01  1.50000000E+00  1.50000000E+00  8.00000000E-01  8.00000000E-01
  1.50000000E+00  1.50000000E+00  8.00000000E-01  8.00000000E-01  1.50000000E+00
  1.50000000E+00  8.00000000E-01  8.00000000E-01  1.50000000E+00  1.50000000E+00
  8.00000000E-01  8.00000000E-01  1.50000000E+00  1.50000000E+00  8.00000000E-01
  8.00000000E-01  1.50000000E+00  1.50000000E+00  8.00000000E-01  8.00000000E-01
  1.50000000E+00  1.50000000E+00  8.00000000E-01  8.00000000E-01  1.50000000E+00
  1.50000000E+00  8.00000000E-01  8.00000000E-01  1.50000000E+00  1.50000000E+00
  8.00000000E-01  8.00000000E-01  1.50000000E+00  1.50000000E+00  8.00000000E-01
  8.00000000E-01  1.50000000E+00  1.50000000E+00  8.00000000E-01  8.00000000E-01
  1.50000000E+00  1.50000000E+00  8.00000000E-01  8.00000000E-01  1.50000000E+00
  1.50000000E+00  8.00000000E-01  8.00000000E-01  1.50000000E+00  1.50000000E+00
  8.00000000E-01  8.00000000E-01  1.50000000E+00  1.50000000E+00  8.00000000E-01
  8.00000000E-01  1.50000000E+00  1.50000000E+00  8.00000000E-01  8.00000000E-01
  1.50000000E+00  1.50000000E+00  8.00000000E-01  8.00000000E-01  1.50000000E+00
  1.50000000E+00  8.00000000E-01  8.00000000E-01  1.50000000E+00  1.50000000E+00
  8.00000000E-01  8.00000000E-01  1.50000000E+00  1.50000000E+00  8.00000000E-01
  8.00000000E-01  1.50000000E+00  1.50000000E+00  8.00000000E-01  8.00000000E-01
  1.50000000E+00  1.50000000E+00  8.00000000E-01  8.00000000E-01  1.50000000E+00
  1.50000000E+00  8.00000000E-01  8.00000000E-01  1.50000000E+00  1.50000000E+00
  8.00000000E-01  8.00000000E-01  1.50000000E+00  1.50000000E+00  8.00000000E-01
  8.00000000E-01  1.50000000E+00  1.50000000E+00  8.00000000E-01  8.00000000E-01
  1.50000000E+00  1.50000000E+00  8.00000000E-01  8.00000000E-01  1.50000000E+00
  1.50000000E+00  8.00000000E-01  8.00000000E-01  1.50000000E+00  1.50000000E+00
  8.00000000E-01  8.00000000E-01  1.50000000E+00  1.50000000E+00  8.00000000E-01
  8.00000000E-01  1.50000000E+00  1.50000000E+00  8.00000000E-01  8.00000000E-01
  1.50000000E+00  1.50000000E+00  8.00000000E-01  8.00000000E-01  1.50000000E+00
  1.50000000E+00  8.00000000E-01  8.00000000E-01  1.50000000E+00  1.50000000E+00
  8.00000000E-01  8.00000000E-01  1.50000000E+00  1.50000000E+00  8.00000000E-01
  8.00000000E-01  1.50000000E+00  1.50000000E+00  8.00000000E-01  8.00000000E-01
  1.50000000E+00  1.50000000E+00  8.00000000E-01  8.00000000E-01  1.50000000E+00
  1.50000000E+00  8.00000000E-01  8.00000000E-01  1.50000000E+00  1.50000000E+00
  8.00000000E-01  8.00000000E-01  1.50000000E+00  1.50000000E+00  8.00000000E-01
  8.00000000E-01  1.50000000E+00  1.50000000E+00  8.00000000E-01  8.00000000E-01
  1.50000000E+00  1.50000000E+00  8.00000000E-01  8.00000000E-01  1.50000000E+00
  1.50000000E+00  8.00000000E-01  8.00000000E-01  1.50000000E+00  1.50000000E+00
  8.00000000E-01  8.00000000E-01  1.50000000E+00  1.50000000E+00  8.00000000E-01
  8.00000000E-01  1.50000000E+00  1.50000000E+00  8.00000000E-01  8.00000000E-01
  1.50000000E+00  1.50000000E+00  8.00000000E-01  8.00000000E-01  1.50000000E+00
  1.50000000E+00  8.00000000E-01  8.00000000E-01  1.50000000E+00  1.50000000E+00
  8.00000000E-01  8.00000000E-01  1.50000000E+00  1.50000000E+00  8.00000000E-01
  8.00000000E-01  1.50000000E+00  1.50000000E+00  8.00000000E-01  8.00000000E-01
  1.50000000E+00  1.50000000E+00  8.00000000E-01  8.00000000E-01  1.50000000E+00
  1.50000000E+00  8.00000000E-01  8.00000000E-01  1.50000000E+00  1.50000000E+00
  8.00000000E-01  8.00000000E-01  1.50000000E+00  1.50000000E+00  8.00000000E-01
  8.00000000E-01  1.50000000E+00  1.50000000E+00  8.00000000E-01  8.00000000E-01
  1.50000000E+00  1.50000000E+00  8.00000000E-01  8.00000000E-01  1.50000000E+00
  1.50000000E+00  8.00000000E-01  8.00000000E-01  1.50000000E+00  1.50000000E+00
  8.00000000E-01  8.00000000E-01  1.50000000E+00  1.50000000E+00  8.00000000E-01
  8.00000000E-01  1.50000000E+00  1.50000000E+00  8.00000000E-01  8.00000000E-01
  1.50000000E+00  1.50000000E+00  8.00000000E-01  8.00000000E-01  1.50000000E+00
  1.50000000E+00  8.00000000E-01  8.00000000E-01  1.50000000E+00  1.50000000E+00
  8.00000000E-01  8.00000000E-01  1.50000000E+00  1.50000000E+00  8.00000000E-01
  8.00000000E-01  1.50000000E+00  1.50000000E+00  8.00000000E-01  8.00000000E-01
  1.50000000E+00  1.50000000E+00  8.00000000E-01  8.00000000E-01  1.50000000E+00
  1.50000000E+00  8.00000000E-01  8.00000000E-01  1.50000000E+00  1.50000000E+00
  8.00000000E-01  8.00000000E-01  1.50000000E+00  1.50000000E+00  8.00000000E-01
  8.00000000E-01  1.50000000E+00  1.50000000E+00  8.00000000E-01  8.00000000E-01
  1.50000000E+00  1.50000000E+00  8.00000000E-01  8.00000000E-01  1.50000000E+00
  1.50000000E+00  8.00000000E-01  8.00000000E-01  1.50000000E+00  1.50000000E+00
  8.00000000E-01  8.00000000E-01  1.50000000E+00  1.50000000E+00  8.00000000E-01
  8.00000000E-01  1.50000000E+00  1.50000000E+00  8.00000000E-01  8.00000000E-01
  1.50000000E+00  1.50000000E+00  8.00000000E-01  8.00000000E-01  1.50000000E+00
  1.50000000E+00  8.00000000E-01  8.00000000E-01  1.50000000E+00  1.50000000E+00
  8.00000000E-01  8.00000000E-01  1.50000000E+00  1.50000000E+00  8.00000000E-01
  8.00000000E-01  1.50000000E+00  1.50000000E+00  8.00000000E-01  8.00000000E-01
  1.50000000E+00  1.50000000E+00  8.00000000E-01  8.00000000E-01  1.50000000E+00
  1.50000000E+00  8.00000000E-01  8.00000000E-01  1.50000000E+00  1.50000000E+00
  8.00000000E-01  8.00000000E-01  1.50000000E+00  1.50000000E+00  8.00000000E-01
  8.00000000E-01  1.50000000E+00  1.50000000E+00  8.00000000E-01  8.00000000E-01
  1.50000000E+00  1.50000000E+00  8.00000000E-01  8.00000000E-01  1.50000000E+00
  1.50000000E+00  8.00000000E-01  8.00000000E-01  1.50000000E+00  1.50000000E+00
  8.00000000E-01  8.00000000E-01  1.50000000E+00  1.50000000E+00  8.00000000E-01
  8.00000000E-01  1.50000000E+00  1.50000000E+00  8.00000000E-01  8.00000000E-01
  1.50000000E+00  1.50000000E+00  8.00000000E-01  8.00000000E-01  1.50000000E+00
  1.50000000E+00  8.00000000E-01  8.00000000E-01  1.50000000E+00  1.50000000E+00
  8.00000000E-01  8.00000000E-01  1.50000000E+00  1.50000000E+00  8.00000000E-01
  8.00000000E-01  1.50000000E+00  1.50000000E+00  8.00000000E-01  8.00000000E-01
  1.50000000E+00  1.50000000E+00  8.00000000E-01  8.00000000E-01  1.50000000E+00
  1.50000000E+00  8.00000000E-01  8.00000000E-01  1.50000000E+00  1.50000000E+00
  8.00000000E-01  8.00000000E-01  1.50000000E+00  1.50000000E+00  8.00000000E-01
  8.00000000E-01  1.50000000E+00  1.50000000E+00  8.00000000E-01  8.00000000E-01
  1.50000000E+00  1.50000000E+00  8.00000000E-01  8.00000000E-01  1.50000000E+00
  1.50000000E+00  8.00000000E-01  8.00000000E-01  1.50000000E+00  1.50000000E+00
  8.00000000E-01  8.00000000E-01  1.50000000E+00  1.50000000E+00  8.00000000E-01
  8.00000000E-01  1.50000000E+00  1.50000000E+00  8.00000000E-01  8.00000000E-01
  1.50000000E+00  1.50000000E+00  8.00000000E-01  8.00000000E-01  1.50000000E+00
  1.50000000E+00  8.00000000E-01  8.00000000E-01  1.50000000E+00  1.50000000E+00
  8.00000000E-01  8.00000000E-01  1.50000000E+00  1.50000000E+00  8.00000000E-01
  8.00000000E-01  1.50000000E+00  1.50000000E+00  8.00000000E-01  8.00000000E-01
  1.50000000E+00  1.50000000E+00  8.00000000E-01  8.00000000E-01  1.50000000E+00
  1.50000000E+00  8.00000000E-01  8.00000000E-01  1.50000000E+00  1.50000000E+00
  8.00000000E-01  8.00000000E-01  1.50000000E+00  1.50000000E+00  8.00000000E-01
  8.00000000E-01  1.50000000E+00  1.50000000E+00  8.00000000E-01  8.00000000E-01
  1.50000000E+00  1.50000000E+00  8.00000000E-01  8.00000000E-01  1.50000000E+00
  1.50000000E+00  8.00000000E-01  8.00000000E-01  1.50000000E+00  1.50000000E+00
  8.00000000E-01  8.00000000E-01  1.50000000E+00  1.50000000E+00  8.00000000E-01
  8.00000000E-01  1.50000000E+00  1.50000000E+00  8.00000000E-01  8.00000000E-01
  1.50000000E+00  1.50000000E+00  8.00000000E-01  8.00000000E-01  1.50000000E+00
  1.50000000E+00  8.00000000E-01  8.00000000E-01  1.50000000E+00  1.50000000E+00
  8.00000000E-01  8.00000000E-01  1.50000000E+00  1.50000000E+00  8.00000000E-01
  8.00000000E-01  1.50000000E+00  1.50000000E+00  8.00000000E-01  8.00000000E-01
  1.50000000E+00  1.50000000E+00  8.00000000E-01  8.00000000E-01  1.50000000E+00
  1.50000000E+00  8.00000000E-01  8.00000000E-01  1.50000000E+00  1.50000000E+00
  8.00000000E-01  8.00000000E-01  1.50000000E+00  1.50000000E+00  8.00000000E-01
  8.00000000E-01  1.50000000E+00  1.50000000E+00  8.00000000E-01  8.00000000E-01
  1.50000000E+00  1.50000000E+00  8.00000000E-01  8.00000000E-01  1.50000000E+00
  1.50000000E+00  8.00000000E-01  8.00000000E-01  1.50000000E+00  1.50000000E+00
  8.00000000E-01  8.00000000E-01  1.50000000E+00  1.50000000E+00  8.00000000E-01
  8.00000000E-01  1.50000000E+00  1.50000000E+00  8.00000000E-01  8.00000000E-01
  1.50000000E+00  1.50000000E+00  8.00000000E-01  8.00000000E-01  1.50000000E+00
  1.50000000E+00  8.00000000E-01  8.00000000E-01  1.50000000E+00  1.50000000E+00
  8.00000000E-01  8.00000000E-01  1.50000000E+00  1.50000000E+00  8.00000000E-01
  8.00000000E-01  1.50000000E+00  1.50000000E+00  8.00000000E-01  8.00000000E-01
  1.50000000E+00  1.50000000E+00  8.00000000E-01  8.00000000E-01  1.50000000E+00
  1.50000000E+00  8.00000000E-01  8.00000000E-01  1.50000000E+00  1.50000000E+00
  8.00000000E-01  8.00000000E-01  1.50000000E+00  1.50000000E+00  8.00000000E-01
  8.00000000E-01  1.50000000E+00  1.50000000E+00  8.00000000E-01  8.00000000E-01
  1.50000000E+00  1.50000000E+00  8.00000000E-01  8.00000000E-01  1.50000000E+00
  1.50000000E+00  8.00000000E-01  8.00000000E-01  1.50000000E+00  1.50000000E+00
  8.00000000E-01  8.00000000E-01  1.50000000E+00  1.50000000E+00  8.00000000E-01
  8.00000000E-01  1.50000000E+00  1.50000000E+00  8.00000000E-01  8.00000000E-01
  1.50000000E+00  1.50000000E+00  8.00000000E-01  8.00000000E-01  1.50000000E+00
  1.50000000E+00  8.00000000E-01  8.00000000E-01  1.50000000E+00  1.50000000E+00
  8.00000000E-01  8.00000000E-01  1.50000000E+00  1.50000000E+00  8.00000000E-01
  8.00000000E-01  1.50000000E+00  1.50000000E+00  8.00000000E-01  8.00000000E-01
  1.50000000E+00  1.50000000E+00  8.00000000E-01  8.00000000E-01  1.50000000E+00
  1.50000000E+00  8.00000000E-01  8.00000000E-01  1.50000000E+00  1.50000000E+00
  8.00000000E-01  8.00000000E-01  1.50000000E+00  1.50000000E+00  8.00000000E-01
  8.00000000E-01  1.50000000E+00  1.50000000E+00  8.00000000E-01  8.00000000E-01
  1.50000000E+00  1.50000000E+00  8.00000000E-01  8.00000000E-01  1.50000000E+00
  1.50000000E+00  8.00000000E-01  8.00000000E-01  1.50000000E+00  1.50000000E+00
  8.00000000E-01  8.00000000E-01  1.50000000E+00  1.50000000E+00  8.00000000E-01
  8.00000000E-01  1.50000000E+00  1.50000000E+00  8.00000000E-01  8.00000000E-01
  1.50000000E+00  1.50000000E+00  8.00000000E-01  8.00000000E-01  1.50000000E+00
  1.50000000E+00  8.00000000E-01  8.00000000E-01  1.50000000E+00  1.50000000E+00
  8.00000000E-01  8.00000000E-01  1.50000000E+00  1.50000000E+00  8.00000000E-01
  8.00000000E-01  1.50000000E+00  1.50000000E+00  8.00000000E-01  8.00000000E-01
  1.50000000E+00  1.50000000E+00  8.00000000E-01  8.00000000E-01  1.50000000E+00
  1.50000000E+00  8.00000000E-01  8.00000000E-01  1.50000000E+00  1.50000000E+00
  8.00000000E-01  8.00000000E-01  1.50000000E+00  1.50000000E+00  8.00000000E-01
  8.00000000E-01  1.50000000E+00  1.50000000E+00  8.00000000E-01  8.00000000E-01
  1.50000000E+00  1.50000000E+00  8.00000000E-01  8.00000000E-01  1.50000000E+00
  1.50000000E+00  8.00000000E-01  8.00000000E-01  1.50000000E+00  1.50000000E+00
  8.00000000E-01  8.00000000E-01  1.50000000E+00  1.50000000E+00  8.00000000E-01
  8.00000000E-01  1.50000000E+00  1.50000000E+00  8.00000000E-01  8.00000000E-01
  1.50000000E+00  1.50000000E+00  8.00000000E-01  8.00000000E-01  1.50000000E+00
  1.50000000E+00  8.00000000E-01  8.00000000E-01  1.50000000E+00  1.50000000E+00
  8.00000000E-01  8.00000000E-01  1.50000000E+00  1.50000000E+00  8.00000000E-01
  8.00000000E-01  1.50000000E+00  1.50000000E+00  8.00000000E-01  8.00000000E-01
  1.50000000E+00  1.50000000E+00  8.00000000E-01  8.00000000E-01  1.50000000E+00
  1.50000000E+00  8.00000000E-01  8.00000000E-01  1.50000000E+00  1.50000000E+00
  8.00000000E-01  8.00000000E-01  1.50000000E+00  1.50000000E+00  8.00000000E-01
  8.00000000E-01  1.50000000E+00  1.50000000E+00  8.00000000E-01  8.00000000E-01
  1.50000000E+00  1.50000000E+00  8.00000000E-01  8.00000000E-01  1.50000000E+00
  1.50000000E+00  8.00000000E-01  8.00000000E-01  1.50000000E+00  1.50000000E+00
  8.00000000E-01  8.00000000E-01  1.50000000E+00  1.50000000E+00  8.00000000E-01
  8.00000000E-01  1.50000000E+00  1.50000000E+00  8.00000000E-01  8.00000000E-01
  1.50000000E+00  1.50000000E+00  8.00000000E-01  8.00000000E-01  1.50000000E+00
  1.50000000E+00  8.00000000E-01  8.00000000E-01  1.50000000E+00  1.50000000E+00
  8.00000000E-01  8.00000000E-01  1.50000000E+00  1.50000000E+00  8.00000000E-01
  8.00000000E-01  1.50000000E+00  1.50000000E+00  8.00000000E-01  8.00000000E-01
  1.50000000E+00  1.50000000E+00  8.00000000E-01  8.00000000E-01  1.50000000E+00
  1.50000000E+00  8.00000000E-01  8.00000000E-01  1.50000000E+00  1.50000000E+00
  8.00000000E-01  8.00000000E-01  1.50000000E+00  1.50000000E+00  8.00000000E-01
  8.00000000E-01  1.50000000E+00  1.50000000E+00  8.00000000E-01  8.00000000E-01
  1.50000000E+00  1.50000000E+00  8.00000000E-01  8.00000000E-01  1.50000000E+00
  1.50000000E+00  8.00000000E-01  8.00000000E-01  1.50000000E+00  1.50000000E+00
  8.00000000E-01  8.00000000E-01  1.50000000E+00  1.50000000E+00  8.00000000E-01
  8.00000000E-01  1.50000000E+00  1.50000000E+00  8.00000000E-01  8.00000000E-01
  1.50000000E+00  1.50000000E+00  8.00000000E-01  8.00000000E-01  1.50000000E+00
  1.50000000E+00  8.00000000E-01  8.00000000E-01  1.50000000E+00  1.50000000E+00
  8.00000000E-01  8.00000000E-01  1.50000000E+00  1.50000000E+00  8.00000000E-01
  8.00000000E-01  1.50000000E+00  1.50000000E+00  8.00000000E-01  8.00000000E-01
  1.50000000E+00  1.50000000E+00  8.00000000E-01  8.00000000E-01  1.50000000E+00
  1.50000000E+00  8.00000000E-01  8.00000000E-01  1.50000000E+00  1.50000000E+00
  8.00000000E-01  8.00000000E-01  1.50000000E+00  1.50000000E+00  8.00000000E-01
  8.00000000E-01  1.50000000E+00  1.50000000E+00  8.00000000E-01  8.00000000E-01
  1.50000000E+00  1.50000000E+00  8.00000000E-01  8.00000000E-01  1.50000000E+00
  1.50000000E+00  8.00000000E-01  8.00000000E-01  1.50000000E+00  1.50000000E+00
  8.00000000E-01  8.00000000E-01  1.50000000E+00  1.50000000E+00  8.00000000E-01
  8.00000000E-01  1.50000000E+00  1.50000000E+00  8.00000000E-01  8.00000000E-01
  1.50000000E+00  1.50000000E+00  8.00000000E-01  8.00000000E-01  1.50000000E+00
  1.50000000E+00  8.00000000E-01  8.00000000E-01  1.50000000E+00  1.50000000E+00
  8.00000000E-01  8.00000000E-01  1.50000000E+00  1.50000000E+00  8.00000000E-01
  8.00000000E-01  1.50000000E+00  1.50000000E+00  8.00000000E-01  8.00000000E-01
  1.50000000E+00  1.50000000E+00  8.00000000E-01  8.00000000E-01  1.50000000E+00
  1.50000000E+00  8.00000000E-01  8.00000000E-01  1.50000000E+00  1.50000000E+00
  8.00000000E-01  8.00000000E-01  1.50000000E+00  1.50000000E+00  8.00000000E-01
  8.00000000E-01  1.50000000E+00  1.50000000E+00  8.00000000E-01  8.00000000E-01
  1.50000000E+00  1.50000000E+00  8.00000000E-01  8.00000000E-01  1.50000000E+00
  1.50000000E+00  8.00000000E-01  8.00000000E-01  1.50000000E+00  1.50000000E+00
  8.00000000E-01  8.00000000E-01  1.50000000E+00  1.50000000E+00  8.00000000E-01
  8.00000000E-01  1.50000000E+00  1.50000000E+00  8.00000000E-01  8.00000000E-01
  1.50000000E+00  1.50000000E+00  8.00000000E-01  8.00000000E-01  1.50000000E+00
  1.50000000E+00  8.00000000E-01  8.00000000E-01  1.50000000E+00  1.50000000E+00
  8.00000000E-01  8.00000000E-01  1.50000000E+00  1.50000000E+00  8.00000000E-01
  8.00000000E-01  1.50000000E+00  1.50000000E+00  8.00000000E-01  8.00000000E-01
  1.50000000E+00  1.50000000E+00  8.00000000E-01  8.00000000E-01  1.50000000E+00
  1.50000000E+00  8.00000000E-01  8.00000000E-01  1.50000000E+00  1.50000000E+00
  8.00000000E-01  8.00000000E-01  1.50000000E+00  1.50000000E+00  8.00000000E-01
  8.00000000E-01  1.50000000E+00  1.50000000E+00  8.00000000E-01  8.00000000E-01
  1.50000000E+00  1.50000000E+00  8.00000000E-01  8.00000000E-01  1.50000000E+00
  1.50000000E+00  8.00000000E-01  8.00000000E-01  1.50000000E+00  1.50000000E+00
  8.00000000E-01  8.00000000E-01  1.50000000E+00  1.50000000E+00  8.00000000E-01
  8.00000000E-01  1.50000000E+00  1.50000000E+00  8.00000000E-01  8.00000000E-01
  1.50000000E+00  1.50000000E+00  8.00000000E-01  8.00000000E-01  1.50000000E+00
  1.50000000E+00  8.00000000E-01  8.00000000E-01  1.50000000E+00  1.50000000E+00
  8.00000000E-01  8.00000000E-01  1.50000000E+00  1.50000000E+00  8.00000000E-01
  8.00000000E-01  1.50000000E+00  1.50000000E+00  8.00000000E-01  8.00000000E-01
  1.50000000E+00  1.50000000E+00  8.00000000E-01  8.00000000E-01  1.50000000E+00
  1.50000000E+00  8.00000000E-01  8.00000000E-01  1.50000000E+00  1.50000000E+00
  8.00000000E-01  8.00000000E-01  1.50000000E+00  1.50000000E+00  8.00000000E-01
  8.00000000E-01  1.50000000E+00  1.50000000E+00  8.00000000E-01  8.00000000E-01
  1.50000000E+00  1.50000000E+00  8.00000000E-01  8.00000000E-01  1.50000000E+00
  1.50000000E+00  8.00000000E-01  8.00000000E-01  1.50000000E+00  1.50000000E+00
  8.00000000E-01  8.00000000E-01  1.50000000E+00  1.50000000E+00  8.00000000E-01
  8.00000000E-01  1.50000000E+00  1.50000000E+00  8.00000000E-01  8.00000000E-01
  1.50000000E+00  1.50000000E+00  8.00000000E-01  8.00000000E-01  1.50000000E+00
  1.50000000E+00  8.00000000E-01  8.00000000E-01  1.50000000E+00  1.50000000E+00
  8.00000000E-01  8.00000000E-01  1.50000000E+00  1.50000000E+00  8.00000000E-01
  8.00000000E-01  1.50000000E+00  1.50000000E+00  8.00000000E-01  8.00000000E-01
  1.50000000E+00  1.50000000E+00  8.00000000E-01  8.00000000E-01  1.50000000E+00
  1.50000000E+00  8.00000000E-01  8.00000000E-01  1.50000000E+00  1.50000000E+00
  8.00000000E-01  8.00000000E-01  1.50000000E+00  1.50000000E+00  8.00000000E-01
  8.00000000E-01  1.50000000E+00  1.50000000E+00  8.00000000E-01  8.00000000E-01
  1.50000000E+00  1.50000000E+00  8.00000000E-01  8.00000000E-01  1.50000000E+00
  1.50000000E+00  8.00000000E-01  8.00000000E-01  1.50000000E+00  1.50000000E+00
  8.00000000E-01  8.00000000E-01  1.50000000E+00  1.50000000E+00  8.00000000E-01
  8.00000000E-01  1.50000000E+00  1.50000000E+00  8.00000000E-01  8.00000000E-01
  1.50000000E+00  1.50000000E+00  8.00000000E-01  8.00000000E-01  1.50000000E+00
  1.50000000E+00  8.00000000E-01  8.00000000E-01  1.50000000E+00  1.50000000E+00
  8.00000000E-01  8.00000000E-01  1.50000000E+00  1.50000000E+00  8.00000000E-01
  8.00000000E-01  1.50000000E+00  1.50000000E+00  8.00000000E-01  8.00000000E-01
  1.50000000E+00  1.50000000E+00  8.00000000E-01  8.00000000E-01  1.50000000E+00
  1.50000000E+00  8.00000000E-01  8.00000000E-01  1.50000000E+00  1.50000000E+00
  8.00000000E-01  8.00000000E-01  1.50000000E+00  1.50000000E+00  8.00000000E-01
  8.00000000E-01  1.50000000E+00  1.50000000E+00  8.00000000E-01  8.00000000E-01
  1.50000000E+00  1.50000000E+00  8.00000000E-01  8.00000000E-01  1.50000000E+00
  1.50000000E+00  8.00000000E-01  8.00000000E-01  1.50000000E+00  1.50000000E+00
  8.00000000E-01  8.00000000E-01  1.50000000E+00  1.50000000E+00  8.00000000E-01
  8.00000000E-01  1.50000000E+00  1.50000000E+00  8.00000000E-01  8.00000000E-01
  1.50000000E+00  1.50000000E+00  8.00000000E-01  8.00000000E-01  1.50000000E+00
  1.50000000E+00  8.00000000E-01  8.00000000E-01  1.50000000E+00  1.50000000E+00
  8.00000000E-01  8.00000000E-01  1.50000000E+00  1.50000000E+00  8.00000000E-01
  8.00000000E-01  1.50000000E+00  1.50000000E+00  8.00000000E-01  8.00000000E-01
  1.50000000E+00  1.50000000E+00  8.00000000E-01  8.00000000E-01  1.50000000E+00
  1.50000000E+00  8.00000000E-01  8.00000000E-01  1.50000000E+00  1.50000000E+00
  8.00000000E-01  8.00000000E-01  1.50000000E+00  1.50000000E+00  8.00000000E-01
  8.00000000E-01  1.50000000E+00  1.50000000E+00  8.00000000E-01  8.00000000E-01
  1.50000000E+00  1.50000000E+00  8.00000000E-01  8.00000000E-01  1.50000000E+00
  1.50000000E+00  8.00000000E-01  8.00000000E-01  1.50000000E+00  1.50000000E+00
  8.00000000E-01  8.00000000E-01  1.50000000E+00  1.50000000E+00  8.00000000E-01
  8.00000000E-01  1.50000000E+00  1.50000000E+00  8.00000000E-01  8.00000000E-01
  1.50000000E+00  1.50000000E+00  8.00000000E-01  8.00000000E-01  1.50000000E+00
  1.50000000E+00  8.00000000E-01  8.00000000E-01  1.50000000E+00  1.50000000E+00
  8.00000000E-01  8.00000000E-01  1.50000000E+00  1.50000000E+00  8.00000000E-01
  8.00000000E-01  1.50000000E+00  1.50000000E+00  8.00000000E-01  8.00000000E-01
  1.50000000E+00  1.50000000E+00  8.00000000E-01  8.00000000E-01  1.50000000E+00
  1.50000000E+00  8.00000000E-01  8.00000000E-01  1.50000000E+00  1.50000000E+00
  8.00000000E-01  8.00000000E-01  1.50000000E+00  1.50000000E+00  8.00000000E-01
  8.00000000E-01  1.50000000E+00  1.50000000E+00  8.00000000E-01  8.00000000E-01
  1.50000000E+00  1.50000000E+00  8.00000000E-01  8.00000000E-01  1.50000000E+00
  1.50000000E+00  8.00000000E-01  8.00000000E-01  1.50000000E+00  1.50000000E+00
  8.00000000E-01  8.00000000E-01  1.50000000E+00  1.50000000E+00  8.00000000E-01
  8.00000000E-01  1.50000000E+00  1.50000000E+00  8.00000000E-01  8.00000000E-01
  1.50000000E+00  1.50000000E+00  8.00000000E-01  8.00000000E-01  1.50000000E+00
  1.50000000E+00  8.00000000E-01  8.00000000E-01  1.50000000E+00  1.50000000E+00
  8.00000000E-01  8.00000000E-01  1.50000000E+00  1.50000000E+00  8.00000000E-01
  8.00000000E-01  1.50000000E+00  1.50000000E+00  8.00000000E-01  8.00000000E-01
  1.50000000E+00  1.50000000E+00  8.00000000E-01  8.00000000E-01  1.50000000E+00
  1.50000000E+00  8.00000000E-01  8.00000000E-01  1.50000000E+00  1.50000000E+00
  8.00000000E-01  8.00000000E-01  1.50000000E+00  1.50000000E+00  8.00000000E-01
  8.00000000E-01  1.50000000E+00  1.50000000E+00  8.00000000E-01  8.00000000E-01
  1.50000000E+00  1.50000000E+00  8.00000000E-01  8.00000000E-01  1.50000000E+00
  1.50000000E+00  8.00000000E-01  8.00000000E-01  1.50000000E+00  1.50000000E+00
  8.00000000E-01  8.00000000E-01  1.50000000E+00  1.50000000E+00  8.00000000E-01
  8.00000000E-01  1.50000000E+00  1.50000000E+00  8.00000000E-01  8.00000000E-01
  1.50000000E+00  1.50000000E+00  8.00000000E-01  8.00000000E-01  1.50000000E+00
  1.50000000E+00  8.00000000E-01  8.00000000E-01  1.50000000E+00  1.50000000E+00
  8.00000000E-01  8.00000000E-01  1.50000000E+00  1.50000000E+00  8.00000000E-01
  8.00000000E-01  1.50000000E+00  1.50000000E+00  8.00000000E-01  8.00000000E-01
  1.50000000E+00  1.50000000E+00  8.00000000E-01  8.00000000E-01  1.50000000E+00
  1.50000000E+00  8.00000000E-01  8.00000000E-01  1.50000000E+00  1.50000000E+00
  8.00000000E-01  8.00000000E-01  1.50000000E+00  1.50000000E+00  8.00000000E-01
  8.00000000E-01  1.50000000E+00  1.50000000E+00  8.00000000E-01  8.00000000E-01
  1.50000000E+00  1.50000000E+00  8.00000000E-01  8.00000000E-01  1.50000000E+00
  1.50000000E+00  8.00000000E-01  8.00000000E-01  1.50000000E+00  1.50000000E+00
  8.00000000E-01  8.00000000E-01  1.50000000E+00  1.50000000E+00  8.00000000E-01
  8.00000000E-01  1.50000000E+00  1.50000000E+00  8.00000000E-01  8.00000000E-01
  1.50000000E+00  1.50000000E+00  8.00000000E-01  8.00000000E-01  1.50000000E+00
  1.50000000E+00  8.00000000E-01  8.00000000E-01  1.50000000E+00  1.50000000E+00
  8.00000000E-01  8.00000000E-01  1.50000000E+00  1.50000000E+00  8.00000000E-01
  8.00000000E-01  1.50000000E+00  1.50000000E+00  8.00000000E-01  8.00000000E-01
  1.50000000E+00  1.50000000E+00  8.00000000E-01  8.00000000E-01  1.50000000E+00
  1.50000000E+00  8.00000000E-01  8.00000000E-01  1.50000000E+00  1.50000000E+00
  8.00000000E-01  8.00000000E-01  1.50000000E+00  1.50000000E+00  8.00000000E-01
  8.00000000E-01  1.50000000E+00  1.50000000E+00  8.00000000E-01  8.00000000E-01
  1.50000000E+00  1.50000000E+00  8.00000000E-01  8.00000000E-01  1.50000000E+00
  1.50000000E+00  8.00000000E-01  8.00000000E-01  1.50000000E+00  1.50000000E+00
  8.00000000E-01  8.00000000E-01  1.50000000E+00  1.50000000E+00  8.00000000E-01
  8.00000000E-01  1.50000000E+00  1.50000000E+00  8.00000000E-01  8.00000000E-01
  1.50000000E+00  1.50000000E+00  8.00000000E-01  8.00000000E-01  1.50000000E+00
  1.50000000E+00  8.00000000E-01  8.00000000E-01  1.50000000E+00  1.50000000E+00
  8.00000000E-01  8.00000000E-01  1.50000000E+00  1.50000000E+00  8.00000000E-01
  8.00000000E-01  1.50000000E+00  1.50000000E+00  8.00000000E-01  8.00000000E-01
  1.50000000E+00  1.50000000E+00  8.00000000E-01  8.00000000E-01  1.50000000E+00
  1.50000000E+00  8.00000000E-01  8.00000000E-01  1.50000000E+00  1.50000000E+00
  8.00000000E-01  8.00000000E-01  1.50000000E+00  1.50000000E+00  8.00000000E-01
  8.00000000E-01  1.50000000E+00  1.50000000E+00  8.00000000E-01  8.00000000E-01
  1.50000000E+00  1.50000000E+00  8.00000000E-01  8.00000000E-01  1.50000000E+00
  1.50000000E+00  8.00000000E-01  8.00000000E-01  1.50000000E+00  1.50000000E+00
  8.00000000E-01  8.00000000E-01  1.50000000E+00  1.50000000E+00  8.00000000E-01
  8.00000000E-01  1.50000000E+00  1.50000000E+00  8.00000000E-01  8.00000000E-01
  1.50000000E+00  1.50000000E+00  8.00000000E-01  8.00000000E-01  1.50000000E+00
  1.50000000E+00  8.00000000E-01  8.00000000E-01  1.50000000E+00  1.50000000E+00
  8.00000000E-01  8.00000000E-01  1.50000000E+00  1.50000000E+00  8.00000000E-01
  8.00000000E-01  1.50000000E+00  1.50000000E+00  8.00000000E-01  8.00000000E-01
  1.50000000E+00  1.50000000E+00  8.00000000E-01  8.00000000E-01  1.50000000E+00
  1.50000000E+00  8.00000000E-01  8.00000000E-01  1.50000000E+00  1.50000000E+00
  8.00000000E-01  8.00000000E-01  1.50000000E+00  1.50000000E+00  8.00000000E-01
  8.00000000E-01  1.50000000E+00  1.50000000E+00  8.00000000E-01  8.00000000E-01
  1.50000000E+00  1.50000000E+00  8.00000000E-01  8.00000000E-01  1.50000000E+00
  1.50000000E+00  8.00000000E-01  8.00000000E-01  1.50000000E+00  1.50000000E+00
  8.00000000E-01  8.00000000E-01  1.50000000E+00  1.50000000E+00  8.00000000E-01
  8.00000000E-01  1.50000000E+00  1.50000000E+00  8.00000000E-01  8.00000000E-01
  1.50000000E+00  1.50000000E+00  8.00000000E-01  8.00000000E-01  1.50000000E+00
  1.50000000E+00  8.00000000E-01  8.00000000E-01  1.50000000E+00  1.50000000E+00
  8.00000000E-01  8.00000000E-01  1.50000000E+00  1.50000000E+00  8.00000000E-01
  8.00000000E-01  1.50000000E+00  1.50000000E+00  8.00000000E-01  8.00000000E-01
  1.50000000E+00  1.50000000E+00  8.00000000E-01  8.00000000E-01  1.50000000E+00
  1.50000000E+00  8.00000000E-01  8.00000000E-01  1.50000000E+00  1.50000000E+00
  8.00000000E-01  8.00000000E-01  1.50000000E+00  1.50000000E+00  8.00000000E-01
  8.00000000E-01  1.50000000E+00  1.50000000E+00  8.00000000E-01  8.00000000E-01
  1.50000000E+00  1.50000000E+00  8.00000000E-01  8.00000000E-01  1.50000000E+00
  1.50000000E+00  8.00000000E-01  8.00000000E-01  1.50000000E+00  1.50000000E+00
  8.00000000E-01  8.00000000E-01  1.50000000E+00  1.50000000E+00  8.00000000E-01
  8.00000000E-01  1.50000000E+00  1.50000000E+00  8.00000000E-01  8.00000000E-01
  1.50000000E+00  1.50000000E+00  8.00000000E-01  8.00000000E-01  1.50000000E+00
  1.50000000E+00  8.00000000E-01  8.00000000E-01  1.50000000E+00  1.50000000E+00
  8.00000000E-01  8.00000000E-01  1.50000000E+00  1.50000000E+00  8.00000000E-01
  8.00000000E-01  1.50000000E+00  1.50000000E+00  8.00000000E-01  8.00000000E-01
  1.50000000E+00  1.50000000E+00  8.00000000E-01  8.00000000E-01  1.50000000E+00
  1.50000000E+00  8.00000000E-01  8.00000000E-01  1.50000000E+00  1.50000000E+00
  8.00000000E-01  8.00000000E-01  1.50000000E+00  1.50000000E+00  8.00000000E-01
  8.00000000E-01  1.50000000E+00  1.50000000E+00  8.00000000E-01  8.00000000E-01
  1.50000000E+00  1.50000000E+00  8.00000000E-01  8.00000000E-01  1.50000000E+00
  1.50000000E+00  8.00000000E-01  8.00000000E-01  1.50000000E+00  1.50000000E+00
  8.00000000E-01  8.00000000E-01  1.50000000E+00  1.50000000E+00  8.00000000E-01
  8.00000000E-01  1.50000000E+00  1.50000000E+00  8.00000000E-01  8.00000000E-01
  1.50000000E+00  1.50000000E+00  8.00000000E-01  8.00000000E-01  1.50000000E+00
  1.50000000E+00  8.00000000E-01  8.00000000E-01  1.50000000E+00  1.50000000E+00
  8.00000000E-01  8.00000000E-01  1.50000000E+00  1.50000000E+00  8.00000000E-01
  8.00000000E-01  1.50000000E+00  1.50000000E+00  8.00000000E-01  8.00000000E-01
  1.50000000E+00  1.50000000E+00  8.00000000E-01  8.00000000E-01  1.50000000E+00
  1.50000000E+00  8.00000000E-01  8.00000000E-01  1.50000000E+00  1.50000000E+00
  8.00000000E-01  8.00000000E-01  1.50000000E+00  1.50000000E+00  8.00000000E-01
  8.00000000E-01  1.50000000E+00  1.50000000E+00  8.00000000E-01  8.00000000E-01
  1.50000000E+00  1.50000000E+00  8.00000000E-01  8.00000000E-01  1.50000000E+00
  1.50000000E+00  8.00000000E-01  8.00000000E-01  1.50000000E+00  1.50000000E+00
  8.00000000E-01  8.00000000E-01  1.50000000E+00  1.50000000E+00  8.00000000E-01
  8.00000000E-01  1.50000000E+00  1.50000000E+00  8.00000000E-01  8.00000000E-01
  1.50000000E+00  1.50000000E+00  8.00000000E-01  8.00000000E-01  1.50000000E+00
  1.50000000E+00  8.00000000E-01  8.00000000E-01  1.50000000E+00  1.50000000E+00
  8.00000000E-01  8.00000000E-01  1.50000000E+00  1.50000000E+00  8.00000000E-01
  8.00000000E-01  1.50000000E+00  1.50000000E+00  8.00000000E-01  8.00000000E-01
  1.50000000E+00  1.50000000E+00  8.00000000E-01  8.00000000E-01  1.50000000E+00
  1.50000000E+00  8.00000000E-01  8.00000000E-01  1.50000000E+00  1.50000000E+00
  8.00000000E-01  8.00000000E-01  1.50000000E+00  1.50000000E+00  8.00000000E-01
  8.00000000E-01  1.50000000E+00  1.50000000E+00  8.00000000E-01  8.00000000E-01
  1.50000000E+00  1.50000000E+00  8.00000000E-01  8.00000000E-01  1.50000000E+00
  1.50000000E+00  8.00000000E-01  8.00000000E-01  1.50000000E+00  1.50000000E+00
  8.00000000E-01  8.00000000E-01  1.50000000E+00  1.50000000E+00  8.00000000E-01
  8.00000000E-01  1.50000000E+00  1.50000000E+00  8.00000000E-01  8.00000000E-01
  1.50000000E+00  1.50000000E+00  8.00000000E-01  8.00000000E-01  1.50000000E+00
  1.50000000E+00  8.00000000E-01  8.00000000E-01  1.50000000E+00  1.50000000E+00
  8.00000000E-01  8.00000000E-01  1.50000000E+00  1.50000000E+00  8.00000000E-01
  8.00000000E-01  1.50000000E+00  1.50000000E+00  8.00000000E-01  8.00000000E-01
  1.50000000E+00  1.50000000E+00  8.00000000E-01  8.00000000E-01  1.50000000E+00
  1.50000000E+00  8.00000000E-01  8.00000000E-01  1.50000000E+00  1.50000000E+00
  8.00000000E-01  8.00000000E-01  1.50000000E+00  1.50000000E+00  8.00000000E-01
  8.00000000E-01  1.50000000E+00  1.50000000E+00  8.00000000E-01  8.00000000E-01
  1.50000000E+00  1.50000000E+00  8.00000000E-01  8.00000000E-01  1.50000000E+00
  1.50000000E+00  8.00000000E-01  8.00000000E-01  1.50000000E+00  1.50000000E+00
  8.00000000E-01  8.00000000E-01  1.50000000E+00  1.50000000E+00  8.00000000E-01
  8.00000000E-01  1.50000000E+00  1.50000000E+00  8.00000000E-01  8.00000000E-01
  1.50000000E+00  1.50000000E+00  8.00000000E-01  8.00000000E-01  1.50000000E+00
  1.50000000E+00  8.00000000E-01  8.00000000E-01  1.50000000E+00  1.50000000E+00
  8.00000000E-01  8.00000000E-01  1.50000000E+00  1.50000000E+00  8.00000000E-01
  8.00000000E-01  1.50000000E+00  1.50000000E+00  8.00000000E-01  8.00000000E-01
  1.50000000E+00  1.50000000E+00  8.00000000E-01  8.00000000E-01  1.50000000E+00
  1.50000000E+00  8.00000000E-01  8.00000000E-01  1.50000000E+00  1.50000000E+00
  8.00000000E-01  8.00000000E-01  1.50000000E+00  1.50000000E+00  8.00000000E-01
  8.00000000E-01  1.50000000E+00  1.50000000E+00  8.00000000E-01  8.00000000E-01
  1.50000000E+00  1.50000000E+00  8.00000000E-01  8.00000000E-01  1.50000000E+00
  1.50000000E+00  8.00000000E-01  8.00000000E-01  1.50000000E+00  1.50000000E+00
  8.00000000E-01  8.00000000E-01  1.50000000E+00  1.50000000E+00  8.00000000E-01
  8.00000000E-01  1.50000000E+00  1.50000000E+00  8.00000000E-01  8.00000000E-01
  1.50000000E+00  1.50000000E+00  8.00000000E-01  8.00000000E-01  1.50000000E+00
  1.50000000E+00  8.00000000E-01  8.00000000E-01  1.50000000E+00  1.50000000E+00
  8.00000000E-01  8.00000000E-01  1.50000000E+00  1.50000000E+00  8.00000000E-01
  8.00000000E-01  1.50000000E+00  1.50000000E+00  8.00000000E-01  8.00000000E-01
  1.50000000E+00  1.50000000E+00  8.00000000E-01  8.00000000E-01  1.50000000E+00
  1.50000000E+00  8.00000000E-01  8.00000000E-01  1.50000000E+00  1.50000000E+00
  8.00000000E-01  8.00000000E-01  1.50000000E+00  1.50000000E+00  8.00000000E-01
  8.00000000E-01  1.50000000E+00  1.50000000E+00  8.00000000E-01  8.00000000E-01
  1.50000000E+00  1.50000000E+00  8.00000000E-01  8.00000000E-01  1.50000000E+00
  1.50000000E+00  8.00000000E-01  8.00000000E-01  1.50000000E+00  1.50000000E+00
  8.00000000E-01  8.00000000E-01  1.50000000E+00  1.50000000E+00  8.00000000E-01
  8.00000000E-01  1.50000000E+00  1.50000000E+00  8.00000000E-01  8.00000000E-01
  1.50000000E+00  1.50000000E+00  8.00000000E-01  8.00000000E-01  1.50000000E+00
  1.50000000E+00  8.00000000E-01  8.00000000E-01  1.50000000E+00  1.50000000E+00
  8.00000000E-01  8.00000000E-01  1.50000000E+00  1.50000000E+00  8.00000000E-01
  8.00000000E-01  1.50000000E+00  1.50000000E+00  8.00000000E-01  8.00000000E-01
  1.50000000E+00  1.50000000E+00  8.00000000E-01  8.00000000E-01  1.50000000E+00
  1.50000000E+00  8.00000000E-01  8.00000000E-01  1.50000000E+00  1.50000000E+00
  8.00000000E-01  8.00000000E-01  1.50000000E+00  1.50000000E+00  8.00000000E-01
  8.00000000E-01  1.50000000E+00  1.50000000E+00  8.00000000E-01  8.00000000E-01
  1.50000000E+00  1.50000000E+00  8.00000000E-01  8.00000000E-01  1.50000000E+00
  1.50000000E+00  8.00000000E-01  8.00000000E-01  1.50000000E+00  1.50000000E+00
  8.00000000E-01  8.00000000E-01  1.50000000E+00  1.50000000E+00  8.00000000E-01
  8.00000000E-01  1.50000000E+00  1.50000000E+00  8.00000000E-01  8.00000000E-01
  1.50000000E+00  1.50000000E+00  8.00000000E-01  8.00000000E-01  1.50000000E+00
  1.50000000E+00  8.00000000E-01  8.00000000E-01  1.50000000E+00  1.50000000E+00
  8.00000000E-01  8.00000000E-01  1.50000000E+00  1.50000000E+00  8.00000000E-01
  8.00000000E-01  1.50000000E+00  1.50000000E+00  8.00000000E-01  8.00000000E-01
  1.50000000E+00  1.50000000E+00  8.00000000E-01  8.00000000E-01  1.50000000E+00
  1.50000000E+00  8.00000000E-01  8.00000000E-01  1.50000000E+00  1.50000000E+00
  8.00000000E-01  8.00000000E-01  1.50000000E+00  1.50000000E+00  8.00000000E-01
  8.00000000E-01  1.50000000E+00  1.50000000E+00  8.00000000E-01  8.00000000E-01
  1.50000000E+00  1.50000000E+00  8.00000000E-01  8.00000000E-01  1.50000000E+00
  1.50000000E+00  8.00000000E-01  8.00000000E-01  1.50000000E+00  1.50000000E+00
  8.00000000E-01  8.00000000E-01  1.50000000E+00  1.50000000E+00  8.00000000E-01
  8.00000000E-01  1.50000000E+00  1.50000000E+00  8.00000000E-01  8.00000000E-01
  1.50000000E+00  1.50000000E+00  8.00000000E-01  8.00000000E-01  1.50000000E+00
  1.50000000E+00  8.00000000E-01  8.00000000E-01  1.50000000E+00  1.50000000E+00
  8.00000000E-01  8.00000000E-01  1.50000000E+00  1.50000000E+00  8.00000000E-01
  8.00000000E-01  1.50000000E+00  1.50000000E+00  8.00000000E-01  8.00000000E-01
  1.50000000E+00  1.50000000E+00  8.00000000E-01  8.00000000E-01  1.50000000E+00
  1.50000000E+00  8.00000000E-01  8.00000000E-01  1.50000000E+00  1.50000000E+00
  8.00000000E-01  8.00000000E-01  1.50000000E+00  1.50000000E+00  8.00000000E-01
  8.00000000E-01  1.50000000E+00  1.50000000E+00  8.00000000E-01  8.00000000E-01
  1.50000000E+00  1.50000000E+00  8.00000000E-01  8.00000000E-01  1.50000000E+00
  1.50000000E+00  8.00000000E-01  8.00000000E-01  1.50000000E+00  1.50000000E+00
  8.00000000E-01  8.00000000E-01  1.50000000E+00  1.50000000E+00  8.00000000E-01
  8.00000000E-01  1.50000000E+00  1.50000000E+00  8.00000000E-01  8.00000000E-01
  1.50000000E+00  1.50000000E+00  8.00000000E-01  8.00000000E-01  1.50000000E+00
  1.50000000E+00  8.00000000E-01  8.00000000E-01  1.50000000E+00  1.50000000E+00
  8.00000000E-01  8.00000000E-01  1.50000000E+00  1.50000000E+00  8.00000000E-01
  8.00000000E-01  1.50000000E+00  1.50000000E+00  8.00000000E-01  8.00000000E-01
  1.50000000E+00  1.50000000E+00  8.00000000E-01  8.00000000E-01  1.50000000E+00
  1.50000000E+00  8.00000000E-01  8.00000000E-01  1.50000000E+00  1.50000000E+00
  8.00000000E-01  8.00000000E-01  1.50000000E+00  1.50000000E+00  8.00000000E-01
  8.00000000E-01  1.50000000E+00  1.50000000E+00  8.00000000E-01  8.00000000E-01
  1.50000000E+00  1.50000000E+00  8.00000000E-01  8.00000000E-01  1.50000000E+00
  1.50000000E+00  8.00000000E-01  8.00000000E-01  1.50000000E+00  1.50000000E+00
  8.00000000E-01  8.00000000E-01  1.50000000E+00  1.50000000E+00  8.00000000E-01
  8.00000000E-01  1.50000000E+00  1.50000000E+00  8.00000000E-01  8.00000000E-01
  1.50000000E+00  1.50000000E+00  8.00000000E-01  8.00000000E-01  1.50000000E+00
  1.50000000E+00  8.00000000E-01  8.00000000E-01  1.50000000E+00  1.50000000E+00
  8.00000000E-01  8.00000000E-01  1.50000000E+00  1.50000000E+00  8.00000000E-01
  8.00000000E-01  1.50000000E+00  1.50000000E+00  8.00000000E-01  8.00000000E-01
  1.50000000E+00  1.50000000E+00  8.00000000E-01  8.00000000E-01  1.50000000E+00
  1.50000000E+00  8.00000000E-01  8.00000000E-01  1.50000000E+00  1.50000000E+00
  8.00000000E-01  8.00000000E-01  1.50000000E+00  1.50000000E+00  8.00000000E-01
  8.00000000E-01  1.50000000E+00  1.50000000E+00  8.00000000E-01  8.00000000E-01
  1.50000000E+00  1.50000000E+00  8.00000000E-01  8.00000000E-01  1.50000000E+00
  1.50000000E+00  8.00000000E-01  8.00000000E-01  1.50000000E+00  1.50000000E+00
  8.00000000E-01  8.00000000E-01  1.50000000E+00  1.50000000E+00  8.00000000E-01
  8.00000000E-01  1.50000000E+00  1.50000000E+00  8.00000000E-01  8.00000000E-01
  1.50000000E+00  1.50000000E+00  8.00000000E-01  8.00000000E-01  1.50000000E+00
  1.50000000E+00  8.00000000E-01  8.00000000E-01  1.50000000E+00  1.50000000E+00
  8.00000000E-01  8.00000000E-01  1.50000000E+00  1.50000000E+00  8.00000000E-01
  8.00000000E-01  1.50000000E+00  1.50000000E+00  8.00000000E-01  8.00000000E-01
  1.50000000E+00  1.50000000E+00  8.00000000E-01  8.00000000E-01  1.50000000E+00
  1.50000000E+00  8.00000000E-01  8.00000000E-01  1.50000000E+00  1.50000000E+00
  8.00000000E-01  8.00000000E-01  1.50000000E+00  1.50000000E+00  8.00000000E-01
  8.00000000E-01  1.50000000E+00  1.50000000E+00  8.00000000E-01  8.00000000E-01
  1.50000000E+00  1.50000000E+00  8.00000000E-01  8.00000000E-01  1.50000000E+00
  1.50000000E+00  8.00000000E-01  8.00000000E-01  1.50000000E+00  1.50000000E+00
  8.00000000E-01  8.00000000E-01  1.50000000E+00  1.50000000E+00  8.00000000E-01
  8.00000000E-01  1.50000000E+00  1.50000000E+00  8.00000000E-01  8.00000000E-01
  1.50000000E+00  1.50000000E+00  8.00000000E-01  8.00000000E-01  1.50000000E+00
  1.50000000E+00  8.00000000E-01  8.00000000E-01  1.50000000E+00  1.50000000E+00
  8.00000000E-01  8.00000000E-01  1.50000000E+00  1.50000000E+00  8.00000000E-01
  8.00000000E-01  1.50000000E+00  1.50000000E+00  8.00000000E-01  8.00000000E-01
  1.50000000E+00  1.50000000E+00  8.00000000E-01  8.00000000E-01  1.50000000E+00
  1.50000000E+00  8.00000000E-01  8.00000000E-01  1.50000000E+00  1.50000000E+00
  8.00000000E-01  8.00000000E-01  1.50000000E+00  1.50000000E+00  8.00000000E-01
  8.00000000E-01  1.50000000E+00  1.50000000E+00  8.00000000E-01  8.00000000E-01
  1.50000000E+00  1.50000000E+00  8.00000000E-01  8.00000000E-01  1.50000000E+00
  1.50000000E+00  8.00000000E-01  8.00000000E-01  1.50000000E+00  1.50000000E+00
  8.00000000E-01  8.00000000E-01  1.50000000E+00  1.50000000E+00  8.00000000E-01
  8.00000000E-01  1.50000000E+00  1.50000000E+00  8.00000000E-01  8.00000000E-01
  1.50000000E+00  1.50000000E+00  8.00000000E-01  8.00000000E-01  1.50000000E+00
  1.50000000E+00  8.00000000E-01  8.00000000E-01  1.50000000E+00  1.50000000E+00
  8.00000000E-01  8.00000000E-01  1.50000000E+00  1.50000000E+00  8.00000000E-01
  8.00000000E-01  1.50000000E+00  1.50000000E+00  8.00000000E-01  8.00000000E-01
  1.50000000E+00  1.50000000E+00  8.00000000E-01  8.00000000E-01  1.50000000E+00
  1.50000000E+00  8.00000000E-01  8.00000000E-01  1.50000000E+00  1.50000000E+00
  8.00000000E-01  8.00000000E-01  1.50000000E+00  1.50000000E+00  8.00000000E-01
  8.00000000E-01  1.50000000E+00  1.50000000E+00  8.00000000E-01  8.00000000E-01
  1.50000000E+00  1.50000000E+00  8.00000000E-01  8.00000000E-01  1.50000000E+00
  1.50000000E+00  8.00000000E-01  8.00000000E-01  1.50000000E+00  1.50000000E+00
  8.00000000E-01  8.00000000E-01  1.50000000E+00  1.50000000E+00  8.00000000E-01
  8.00000000E-01  1.50000000E+00  1.50000000E+00  8.00000000E-01  8.00000000E-01
  1.50000000E+00  1.50000000E+00  8.00000000E-01  8.00000000E-01  1.50000000E+00
  1.50000000E+00  8.00000000E-01  8.00000000E-01  1.50000000E+00  1.50000000E+00
  8.00000000E-01  8.00000000E-01  1.50000000E+00  1.50000000E+00  8.00000000E-01
  8.00000000E-01  1.50000000E+00  1.50000000E+00  8.00000000E-01  8.00000000E-01
  1.50000000E+00  1.50000000E+00  8.00000000E-01  8.00000000E-01  1.50000000E+00
  1.50000000E+00  8.00000000E-01  8.00000000E-01  1.50000000E+00  1.50000000E+00
  8.00000000E-01  8.00000000E-01  1.50000000E+00  1.50000000E+00  8.00000000E-01
  8.00000000E-01  1.50000000E+00  1.50000000E+00  8.00000000E-01  8.00000000E-01
  1.50000000E+00  1.50000000E+00  8.00000000E-01  8.00000000E-01  1.50000000E+00
  1.50000000E+00  8.00000000E-01  8.00000000E-01  1.50000000E+00  1.50000000E+00
  8.00000000E-01  8.00000000E-01  1.50000000E+00  1.50000000E+00  8.00000000E-01
  8.00000000E-01  1.50000000E+00  1.50000000E+00  8.00000000E-01  8.00000000E-01
  1.50000000E+00  1.50000000E+00  8.00000000E-01  8.00000000E-01  1.50000000E+00
  1.50000000E+00  8.00000000E-01  8.00000000E-01  1.50000000E+00  1.50000000E+00
  8.00000000E-01  8.00000000E-01  1.50000000E+00  1.50000000E+00  8.00000000E-01
  8.00000000E-01  1.50000000E+00  1.50000000E+00  8.00000000E-01  8.00000000E-01
  1.50000000E+00  1.50000000E+00  8.00000000E-01  8.00000000E-01  1.50000000E+00
  1.50000000E+00  8.00000000E-01  8.00000000E-01  1.50000000E+00  1.50000000E+00
  8.00000000E-01  8.00000000E-01  1.50000000E+00  1.50000000E+00  8.00000000E-01
  8.00000000E-01  1.50000000E+00  1.50000000E+00  8.00000000E-01  8.00000000E-01
  1.50000000E+00  1.50000000E+00  8.00000000E-01  8.00000000E-01  1.50000000E+00
  1.50000000E+00  8.00000000E-01  8.00000000E-01  1.50000000E+00  1.50000000E+00
  8.00000000E-01  8.00000000E-01  1.50000000E+00  1.50000000E+00  8.00000000E-01
  8.00000000E-01  1.50000000E+00  1.50000000E+00  8.00000000E-01  8.00000000E-01
  1.50000000E+00  1.50000000E+00  8.00000000E-01  8.00000000E-01  1.50000000E+00
  1.50000000E+00  8.00000000E-01  8.00000000E-01  1.50000000E+00  1.50000000E+00
  8.00000000E-01  8.00000000E-01  1.50000000E+00  1.50000000E+00  8.00000000E-01
  8.00000000E-01  1.50000000E+00  1.50000000E+00  8.00000000E-01  8.00000000E-01
  1.50000000E+00  1.50000000E+00  8.00000000E-01  8.00000000E-01  1.50000000E+00
  1.50000000E+00  8.00000000E-01  8.00000000E-01  1.50000000E+00  1.50000000E+00
  8.00000000E-01  8.00000000E-01  1.50000000E+00  1.50000000E+00  8.00000000E-01
  8.00000000E-01  1.50000000E+00  1.50000000E+00  8.00000000E-01  8.00000000E-01
  1.50000000E+00  1.50000000E+00  8.00000000E-01  8.00000000E-01  1.50000000E+00
  1.50000000E+00  8.00000000E-01  8.00000000E-01  1.50000000E+00  1.50000000E+00
  8.00000000E-01  8.00000000E-01  1.50000000E+00  1.50000000E+00  8.00000000E-01
  8.00000000E-01  1.50000000E+00  1.50000000E+00  8.00000000E-01  8.00000000E-01
  1.50000000E+00  1.50000000E+00  8.00000000E-01  8.00000000E-01  1.50000000E+00
  1.50000000E+00  8.00000000E-01  8.00000000E-01  1.50000000E+00  1.50000000E+00
  8.00000000E-01  8.00000000E-01  1.50000000E+00  1.50000000E+00  8.00000000E-01
  8.00000000E-01  1.50000000E+00  1.50000000E+00  8.00000000E-01  8.00000000E-01
  1.50000000E+00  1.50000000E+00  8.00000000E-01  8.00000000E-01  1.50000000E+00
  1.50000000E+00  8.00000000E-01  8.00000000E-01  1.50000000E+00  1.50000000E+00
  8.00000000E-01  8.00000000E-01  1.50000000E+00  1.50000000E+00  8.00000000E-01
  8.00000000E-01  1.50000000E+00  1.50000000E+00  8.00000000E-01  8.00000000E-01
  1.50000000E+00  1.50000000E+00  8.00000000E-01  8.00000000E-01  1.50000000E+00
  1.50000000E+00  8.00000000E-01  8.00000000E-01  1.50000000E+00  1.50000000E+00
  8.00000000E-01  8.00000000E-01  1.50000000E+00  1.50000000E+00  8.00000000E-01
  8.00000000E-01  1.50000000E+00  1.50000000E+00  8.00000000E-01  8.00000000E-01
  1.50000000E+00  1.50000000E+00  8.00000000E-01  8.00000000E-01  1.50000000E+00
  1.50000000E+00  8.00000000E-01  8.00000000E-01  1.50000000E+00  1.50000000E+00
  8.00000000E-01  8.00000000E-01  1.50000000E+00  1.50000000E+00  8.00000000E-01
  8.00000000E-01  1.50000000E+00  1.50000000E+00  8.00000000E-01  8.00000000E-01
  1.50000000E+00  1.50000000E+00  8.00000000E-01  8.00000000E-01  1.50000000E+00
  1.50000000E+00  8.00000000E-01  8.00000000E-01  1.50000000E+00  1.50000000E+00
  8.00000000E-01  8.00000000E-01  1.50000000E+00  1.50000000E+00  8.00000000E-01
  8.00000000E-01  1.50000000E+00  1.50000000E+00  8.00000000E-01  8.00000000E-01
  1.50000000E+00  1.50000000E+00  8.00000000E-01  8.00000000E-01  1.50000000E+00
  1.50000000E+00  8.00000000E-01  8.00000000E-01  1.50000000E+00  1.50000000E+00
  8.00000000E-01  8.00000000E-01  1.50000000E+00  1.50000000E+00  8.00000000E-01
  8.00000000E-01  1.50000000E+00  1.50000000E+00  8.00000000E-01  8.00000000E-01
  1.50000000E+00  1.50000000E+00  8.00000000E-01  8.00000000E-01  1.50000000E+00
  1.50000000E+00  8.00000000E-01  8.00000000E-01  1.50000000E+00  1.50000000E+00
  8.00000000E-01  8.00000000E-01  1.50000000E+00  1.50000000E+00  8.00000000E-01
  8.00000000E-01  1.50000000E+00  1.50000000E+00  8.00000000E-01  8.00000000E-01
  1.50000000E+00  1.50000000E+00  8.00000000E-01  8.00000000E-01  1.50000000E+00
  1.50000000E+00  8.00000000E-01  8.00000000E-01  1.50000000E+00  1.50000000E+00
  8.00000000E-01  8.00000000E-01  1.50000000E+00  1.50000000E+00  8.00000000E-01
  8.00000000E-01  1.50000000E+00  1.50000000E+00  8.00000000E-01  8.00000000E-01
  1.50000000E+00  1.50000000E+00  8.00000000E-01  8.00000000E-01  1.50000000E+00
  1.50000000E+00  8.00000000E-01  8.00000000E-01  1.50000000E+00  1.50000000E+00
  8.00000000E-01  8.00000000E-01  1.50000000E+00  1.50000000E+00  8.00000000E-01
  8.00000000E-01  1.50000000E+00  1.50000000E+00  8.00000000E-01  8.00000000E-01
  1.50000000E+00  1.50000000E+00  8.00000000E-01  8.00000000E-01  1.50000000E+00
  1.50000000E+00  8.00000000E-01  8.00000000E-01  1.50000000E+00  1.50000000E+00
  8.00000000E-01  8.00000000E-01  1.50000000E+00  1.50000000E+00  8.00000000E-01
  8.00000000E-01  1.50000000E+00  1.50000000E+00  8.00000000E-01  8.00000000E-01
  1.50000000E+00  1.50000000E+00  8.00000000E-01  8.00000000E-01  1.50000000E+00
  1.50000000E+00  8.00000000E-01  8.00000000E-01  1.50000000E+00  1.50000000E+00
  8.00000000E-01  8.00000000E-01  1.50000000E+00  1.50000000E+00  8.00000000E-01
  8.00000000E-01  1.50000000E+00  1.50000000E+00  8.00000000E-01  8.00000000E-01
  1.50000000E+00  1.50000000E+00  8.00000000E-01  8.00000000E-01  1.50000000E+00
  1.50000000E+00  8.00000000E-01  8.00000000E-01  1.50000000E+00  1.50000000E+00
  8.00000000E-01  8.00000000E-01  1.50000000E+00  1.50000000E+00  8.00000000E-01
  8.00000000E-01  1.50000000E+00  1.50000000E+00  8.00000000E-01  8.00000000E-01
  1.50000000E+00  1.50000000E+00  8.00000000E-01  8.00000000E-01  1.50000000E+00
  1.50000000E+00  8.00000000E-01  8.00000000E-01  1.50000000E+00  1.50000000E+00
  8.00000000E-01  8.00000000E-01  1.50000000E+00  1.50000000E+00  8.00000000E-01
  8.00000000E-01  1.50000000E+00  1.50000000E+00  8.00000000E-01  8.00000000E-01
  1.50000000E+00  1.50000000E+00  8.00000000E-01  8.00000000E-01  1.50000000E+00
  1.50000000E+00  8.00000000E-01  8.00000000E-01  1.50000000E+00  1.50000000E+00
  8.00000000E-01  8.00000000E-01  1.50000000E+00  1.50000000E+00  8.00000000E-01
  8.00000000E-01  1.50000000E+00  1.50000000E+00  8.00000000E-01  8.00000000E-01
  1.50000000E+00  1.50000000E+00  8.00000000E-01  8.00000000E-01  1.50000000E+00
  1.50000000E+00  8.00000000E-01  8.00000000E-01  1.50000000E+00  1.50000000E+00
  8.00000000E-01  8.00000000E-01  1.50000000E+00  1.50000000E+00  8.00000000E-01
  8.00000000E-01  1.50000000E+00  1.50000000E+00  8.00000000E-01  8.00000000E-01
  1.50000000E+00  1.50000000E+00  8.00000000E-01  8.00000000E-01  1.50000000E+00
  1.50000000E+00  8.00000000E-01  8.00000000E-01  1.50000000E+00  1.50000000E+00
  8.00000000E-01  8.00000000E-01  1.50000000E+00  1.50000000E+00  8.00000000E-01
  8.00000000E-01  1.50000000E+00  1.50000000E+00  8.00000000E-01  8.00000000E-01
  1.50000000E+00  1.50000000E+00  8.00000000E-01  8.00000000E-01  1.50000000E+00
  1.50000000E+00  8.00000000E-01  8.00000000E-01  1.50000000E+00  1.50000000E+00
  8.00000000E-01  8.00000000E-01  1.50000000E+00  1.50000000E+00  8.00000000E-01
  8.00000000E-01  1.50000000E+00  1.50000000E+00  8.00000000E-01  8.00000000E-01
  1.50000000E+00  1.50000000E+00  8.00000000E-01  8.00000000E-01  1.50000000E+00
  1.50000000E+00  8.00000000E-01  8.00000000E-01  1.50000000E+00  1.50000000E+00
  8.00000000E-01  8.00000000E-01  1.50000000E+00  1.50000000E+00  8.00000000E-01
  8.00000000E-01  1.50000000E+00  1.50000000E+00  8.00000000E-01  8.00000000E-01
  1.50000000E+00  1.50000000E+00  8.00000000E-01  8.00000000E-01  1.50000000E+00
  1.50000000E+00  8.00000000E-01  8.00000000E-01  1.50000000E+00  1.50000000E+00
  8.00000000E-01  8.00000000E-01  1.50000000E+00  1.50000000E+00  8.00000000E-01
  8.00000000E-01  1.50000000E+00  1.50000000E+00  8.00000000E-01  8.00000000E-01
  1.50000000E+00  1.50000000E+00  8.00000000E-01  8.00000000E-01  1.50000000E+00
  1.50000000E+00  8.00000000E-01  8.00000000E-01  1.50000000E+00  1.50000000E+00
  8.00000000E-01  8.00000000E-01  1.50000000E+00  1.50000000E+00  8.00000000E-01
  8.00000000E-01  1.50000000E+00  1.50000000E+00  8.00000000E-01  8.00000000E-01
  1.50000000E+00  1.50000000E+00  8.00000000E-01  8.00000000E-01  1.50000000E+00
  1.50000000E+00  8.00000000E-01  8.00000000E-01  1.50000000E+00  1.50000000E+00
  8.00000000E-01  8.00000000E-01  1.50000000E+00  1.50000000E+00  8.00000000E-01
  8.00000000E-01  1.50000000E+00  1.50000000E+00  8.00000000E-01  8.00000000E-01
  1.50000000E+00  1.50000000E+00  8.00000000E-01  8.00000000E-01  1.50000000E+00
  1.50000000E+00  8.00000000E-01  8.00000000E-01  1.50000000E+00  1.50000000E+00
  8.00000000E-01  8.00000000E-01  1.50000000E+00  1.50000000E+00  8.00000000E-01
  8.00000000E-01  1.50000000E+00  1.50000000E+00  8.00000000E-01  8.00000000E-01
  1.50000000E+00  1.50000000E+00  8.00000000E-01  8.00000000E-01  1.50000000E+00
  1.50000000E+00  8.00000000E-01  8.00000000E-01  1.50000000E+00  1.50000000E+00
  8.00000000E-01  8.00000000E-01  1.50000000E+00  1.50000000E+00  8.00000000E-01
  8.00000000E-01  1.50000000E+00  1.50000000E+00  8.00000000E-01  8.00000000E-01
  1.50000000E+00  1.50000000E+00  8.00000000E-01  8.00000000E-01  1.50000000E+00
  1.50000000E+00  8.00000000E-01  8.00000000E-01  1.50000000E+00  1.50000000E+00
  8.00000000E-01  8.00000000E-01  1.50000000E+00  1.50000000E+00  8.00000000E-01
  8.00000000E-01  1.50000000E+00  1.50000000E+00  8.00000000E-01  8.00000000E-01
  1.50000000E+00  1.50000000E+00  8.00000000E-01  8.00000000E-01  1.50000000E+00
  1.50000000E+00  8.00000000E-01  8.00000000E-01  1.50000000E+00  1.50000000E+00
  8.00000000E-01  8.00000000E-01  1.50000000E+00  1.50000000E+00  8.00000000E-01
  8.00000000E-01  1.50000000E+00  1.50000000E+00  8.00000000E-01  8.00000000E-01
  1.50000000E+00  1.50000000E+00  8.00000000E-01  8.00000000E-01  1.50000000E+00
  1.50000000E+00  8.00000000E-01  8.00000000E-01  1.50000000E+00  1.50000000E+00
  8.00000000E-01  8.00000000E-01  1.50000000E+00  1.50000000E+00  8.00000000E-01
  8.00000000E-01  1.50000000E+00  1.50000000E+00  8.00000000E-01  8.00000000E-01
  1.50000000E+00  1.50000000E+00  8.00000000E-01  8.00000000E-01  1.50000000E+00
  1.50000000E+00  8.00000000E-01  8.00000000E-01  1.50000000E+00  1.50000000E+00
  8.00000000E-01  8.00000000E-01  1.50000000E+00  1.50000000E+00  8.00000000E-01
  8.00000000E-01  1.50000000E+00  1.50000000E+00  8.00000000E-01  8.00000000E-01
  1.50000000E+00  1.50000000E+00  8.00000000E-01  8.00000000E-01  1.50000000E+00
  1.50000000E+00  8.00000000E-01  8.00000000E-01  1.50000000E+00  1.50000000E+00
  8.00000000E-01  8.00000000E-01  1.50000000E+00  1.50000000E+00  8.00000000E-01
  8.00000000E-01  1.50000000E+00  1.50000000E+00  8.00000000E-01  8.00000000E-01
  1.50000000E+00  1.50000000E+00  8.00000000E-01  8.00000000E-01  1.50000000E+00
  1.50000000E+00  8.00000000E-01  8.00000000E-01  1.50000000E+00  1.50000000E+00
  8.00000000E-01  8.00000000E-01  1.50000000E+00  1.50000000E+00  8.00000000E-01
  8.00000000E-01  1.50000000E+00  1.50000000E+00  8.00000000E-01  8.00000000E-01
  1.50000000E+00  1.50000000E+00  8.00000000E-01  8.00000000E-01  1.50000000E+00
  1.50000000E+00  8.00000000E-01  8.00000000E-01  1.50000000E+00  1.50000000E+00
  8.00000000E-01  8.00000000E-01  1.50000000E+00  1.50000000E+00  8.00000000E-01
  8.00000000E-01  1.50000000E+00  1.50000000E+00  8.00000000E-01  8.00000000E-01
  1.50000000E+00  1.50000000E+00  8.00000000E-01  8.00000000E-01  1.50000000E+00
  1.50000000E+00  8.00000000E-01  8.00000000E-01  1.50000000E+00  1.50000000E+00
  8.00000000E-01  8.00000000E-01  1.50000000E+00  1.50000000E+00  8.00000000E-01
  8.00000000E-01  1.50000000E+00  1.50000000E+00  8.00000000E-01  8.00000000E-01
  1.50000000E+00  1.50000000E+00  8.00000000E-01  8.00000000E-01  1.50000000E+00
  1.50000000E+00  8.00000000E-01  8.00000000E-01  1.50000000E+00  1.50000000E+00
  8.00000000E-01  8.00000000E-01  1.50000000E+00  1.50000000E+00  8.00000000E-01
  8.00000000E-01  1.50000000E+00  1.50000000E+00  8.00000000E-01  8.00000000E-01
  1.50000000E+00  1.50000000E+00  8.00000000E-01  8.00000000E-01  1.50000000E+00
  1.50000000E+00  8.00000000E-01  8.00000000E-01  1.50000000E+00  1.50000000E+00
  8.00000000E-01  8.00000000E-01  1.50000000E+00  1.50000000E+00  8.00000000E-01
  8.00000000E-01  1.50000000E+00  1.50000000E+00  8.00000000E-01  8.00000000E-01
  1.50000000E+00  1.50000000E+00  8.00000000E-01  8.00000000E-01  1.50000000E+00
  1.50000000E+00  8.00000000E-01  8.00000000E-01  1.50000000E+00  1.50000000E+00
  8.00000000E-01  8.00000000E-01  1.50000000E+00  1.50000000E+00  8.00000000E-01
  8.00000000E-01  1.50000000E+00  1.50000000E+00  8.00000000E-01  8.00000000E-01
  1.50000000E+00  1.50000000E+00  8.00000000E-01  8.00000000E-01  1.50000000E+00
  1.50000000E+00  8.00000000E-01  8.00000000E-01  1.50000000E+00  1.50000000E+00
  8.00000000E-01  8.00000000E-01  1.50000000E+00  1.50000000E+00  8.00000000E-01
  8.00000000E-01  1.50000000E+00  1.50000000E+00  8.00000000E-01  8.00000000E-01
  1.50000000E+00  1.50000000E+00  8.00000000E-01  8.00000000E-01  1.50000000E+00
  1.50000000E+00  8.00000000E-01  8.00000000E-01  1.50000000E+00  1.50000000E+00
  8.00000000E-01  8.00000000E-01  1.50000000E+00  1.50000000E+00  8.00000000E-01
  8.00000000E-01  1.50000000E+00  1.50000000E+00  8.00000000E-01  8.00000000E-01
  1.50000000E+00  1.50000000E+00  8.00000000E-01  8.00000000E-01  1.50000000E+00
  1.50000000E+00  8.00000000E-01  8.00000000E-01  1.50000000E+00  1.50000000E+00
  8.00000000E-01  8.00000000E-01  1.50000000E+00  1.50000000E+00  8.00000000E-01
  8.00000000E-01  1.50000000E+00  1.50000000E+00  8.00000000E-01  8.00000000E-01
  1.50000000E+00  1.50000000E+00  8.00000000E-01  8.00000000E-01  1.50000000E+00
  1.50000000E+00  8.00000000E-01  8.00000000E-01  1.50000000E+00  1.50000000E+00
  8.00000000E-01  8.00000000E-01  1.50000000E+00  1.50000000E+00  8.00000000E-01
  8.00000000E-01  1.50000000E+00  1.50000000E+00  8.00000000E-01  8.00000000E-01
  1.50000000E+00  1.50000000E+00  8.00000000E-01  8.00000000E-01  1.50000000E+00
  1.50000000E+00  8.00000000E-01  8.00000000E-01  1.50000000E+00  1.50000000E+00
  8.00000000E-01  8.00000000E-01  1.50000000E+00  1.50000000E+00  8.00000000E-01
  8.00000000E-01  1.50000000E+00  1.50000000E+00  8.00000000E-01  8.00000000E-01
  1.50000000E+00  1.50000000E+00  8.00000000E-01  8.00000000E-01  1.50000000E+00
  1.50000000E+00  8.00000000E-01  8.00000000E-01  1.50000000E+00  1.50000000E+00
  8.00000000E-01  8.00000000E-01  1.50000000E+00  1.50000000E+00  8.00000000E-01
  8.00000000E-01  1.50000000E+00  1.50000000E+00  8.00000000E-01  8.00000000E-01
  1.50000000E+00  1.50000000E+00  8.00000000E-01  8.00000000E-01  1.50000000E+00
  1.50000000E+00  8.00000000E-01  8.00000000E-01  1.50000000E+00  1.50000000E+00
  8.00000000E-01  8.00000000E-01  1.50000000E+00  1.50000000E+00  8.00000000E-01
  8.00000000E-01  1.50000000E+00  1.50000000E+00  8.00000000E-01  8.00000000E-01
  1.50000000E+00  1.50000000E+00  8.00000000E-01  8.00000000E-01  1.50000000E+00
  1.50000000E+00  8.00000000E-01  8.00000000E-01  1.50000000E+00  1.50000000E+00
  8.00000000E-01  8.00000000E-01  1.50000000E+00  1.50000000E+00  8.00000000E-01
  8.00000000E-01  1.50000000E+00  1.50000000E+00  8.00000000E-01  8.00000000E-01
  1.50000000E+00  1.50000000E+00  8.00000000E-01  8.00000000E-01  1.50000000E+00
  1.50000000E+00  8.00000000E-01  8.00000000E-01  1.50000000E+00  1.50000000E+00
  8.00000000E-01  8.00000000E-01  1.50000000E+00  1.50000000E+00  8.00000000E-01
  8.00000000E-01  1.50000000E+00  1.50000000E+00  8.00000000E-01  8.00000000E-01
  1.50000000E+00  1.50000000E+00  8.00000000E-01  8.00000000E-01  1.50000000E+00
  1.50000000E+00  8.00000000E-01  8.00000000E-01  1.50000000E+00  1.50000000E+00
  8.00000000E-01  8.00000000E-01  1.50000000E+00  1.50000000E+00  8.00000000E-01
  8.00000000E-01  1.50000000E+00  1.50000000E+00  8.00000000E-01  8.00000000E-01
  1.50000000E+00  1.50000000E+00  8.00000000E-01  8.00000000E-01  1.50000000E+00
  1.50000000E+00  8.00000000E-01  8.00000000E-01  1.50000000E+00  1.50000000E+00
  8.00000000E-01  8.00000000E-01  1.50000000E+00  1.50000000E+00  8.00000000E-01
  8.00000000E-01  1.50000000E+00  1.50000000E+00  8.00000000E-01  8.00000000E-01
  1.50000000E+00  1.50000000E+00  8.00000000E-01  8.00000000E-01  1.50000000E+00
  1.50000000E+00  8.00000000E-01  8.00000000E-01  1.50000000E+00  1.50000000E+00
  8.00000000E-01  8.00000000E-01  1.50000000E+00  1.50000000E+00  8.00000000E-01
  8.00000000E-01  1.50000000E+00  1.50000000E+00  8.00000000E-01  8.00000000E-01
  1.50000000E+00  1.50000000E+00  8.00000000E-01  8.00000000E-01  1.50000000E+00
  1.50000000E+00  8.00000000E-01  8.00000000E-01  1.50000000E+00  1.50000000E+00
  8.00000000E-01  8.00000000E-01  1.50000000E+00  1.50000000E+00  8.00000000E-01
  8.00000000E-01  1.50000000E+00  1.50000000E+00  8.00000000E-01  8.00000000E-01
  1.50000000E+00  1.50000000E+00  8.00000000E-01  8.00000000E-01  1.50000000E+00
  1.50000000E+00  8.00000000E-01  8.00000000E-01  1.50000000E+00  1.50000000E+00
  8.00000000E-01  8.00000000E-01  1.50000000E+00  1.50000000E+00  8.00000000E-01
  8.00000000E-01  1.50000000E+00  1.50000000E+00  8.00000000E-01  8.00000000E-01
  1.50000000E+00  1.50000000E+00  8.00000000E-01  8.00000000E-01  1.50000000E+00
  1.50000000E+00  8.00000000E-01  8.00000000E-01  1.50000000E+00  1.50000000E+00
  8.00000000E-01  8.00000000E-01  1.50000000E+00  1.50000000E+00  8.00000000E-01
  8.00000000E-01  1.50000000E+00  1.50000000E+00  8.00000000E-01  8.00000000E-01
  1.50000000E+00  1.50000000E+00  8.00000000E-01  8.00000000E-01  1.50000000E+00
  1.50000000E+00  8.00000000E-01  8.00000000E-01  1.50000000E+00  1.50000000E+00
  8.00000000E-01  8.00000000E-01  1.50000000E+00  1.50000000E+00  8.00000000E-01
  8.00000000E-01  1.50000000E+00  1.50000000E+00  8.00000000E-01  8.00000000E-01
  1.50000000E+00  1.50000000E+00  8.00000000E-01  8.00000000E-01  1.50000000E+00
  1.50000000E+00  8.00000000E-01  8.00000000E-01  1.50000000E+00  1.50000000E+00
  8.00000000E-01  8.00000000E-01  1.50000000E+00  1.50000000E+00  8.00000000E-01
  8.00000000E-01  1.50000000E+00  1.50000000E+00  8.00000000E-01  8.00000000E-01
  1.50000000E+00  1.50000000E+00  8.00000000E-01  8.00000000E-01  1.50000000E+00
  1.50000000E+00  8.00000000E-01  8.00000000E-01  1.50000000E+00  1.50000000E+00
  8.00000000E-01  8.00000000E-01  1.50000000E+00  1.50000000E+00  8.00000000E-01
  8.00000000E-01  1.50000000E+00  1.50000000E+00  8.00000000E-01  8.00000000E-01
  1.50000000E+00  1.50000000E+00  8.00000000E-01  8.00000000E-01  1.50000000E+00
  1.50000000E+00  8.00000000E-01  8.00000000E-01  1.50000000E+00  1.50000000E+00
  8.00000000E-01  8.00000000E-01  1.50000000E+00  1.50000000E+00  8.00000000E-01
  8.00000000E-01  1.50000000E+00  1.50000000E+00  8.00000000E-01  8.00000000E-01
  1.50000000E+00  1.50000000E+00  8.00000000E-01  8.00000000E-01  1.50000000E+00
  1.50000000E+00  8.00000000E-01  8.00000000E-01  1.50000000E+00  1.50000000E+00
  8.00000000E-01  8.00000000E-01  1.50000000E+00  1.50000000E+00  8.00000000E-01
  8.00000000E-01  1.50000000E+00  1.50000000E+00  8.00000000E-01  8.00000000E-01
  1.50000000E+00  1.50000000E+00  8.00000000E-01  8.00000000E-01  1.50000000E+00
  1.50000000E+00  8.00000000E-01  8.00000000E-01  1.50000000E+00  1.50000000E+00
  8.00000000E-01  8.00000000E-01  1.50000000E+00  1.50000000E+00  8.00000000E-01
  8.00000000E-01  1.50000000E+00  1.50000000E+00  8.00000000E-01  8.00000000E-01
  1.50000000E+00  1.50000000E+00  8.00000000E-01  8.00000000E-01  1.50000000E+00
  1.50000000E+00  8.00000000E-01  8.00000000E-01  1.50000000E+00  1.50000000E+00
  8.00000000E-01  8.00000000E-01  1.50000000E+00  1.50000000E+00  8.00000000E-01
  8.00000000E-01  1.50000000E+00  1.50000000E+00  8.00000000E-01  8.00000000E-01
  1.50000000E+00  1.50000000E+00  8.00000000E-01  8.00000000E-01  1.50000000E+00
  1.50000000E+00  8.00000000E-01  8.00000000E-01  1.50000000E+00  1.50000000E+00
  8.00000000E-01  8.00000000E-01  1.50000000E+00  1.50000000E+00  8.00000000E-01
  8.00000000E-01  1.50000000E+00  1.50000000E+00  8.00000000E-01  8.00000000E-01
  1.50000000E+00  1.50000000E+00  8.00000000E-01  8.00000000E-01  1.50000000E+00
  1.50000000E+00  8.00000000E-01  8.00000000E-01  1.50000000E+00  1.50000000E+00
  8.00000000E-01  8.00000000E-01  1.50000000E+00  1.50000000E+00  8.00000000E-01
  8.00000000E-01  1.50000000E+00  1.50000000E+00  8.00000000E-01  8.00000000E-01
  1.50000000E+00  1.50000000E+00  8.00000000E-01  8.00000000E-01  1.50000000E+00
  1.50000000E+00  8.00000000E-01  8.00000000E-01  1.50000000E+00  1.50000000E+00
  8.00000000E-01  8.00000000E-01  1.50000000E+00  1.50000000E+00  8.00000000E-01
  8.00000000E-01  1.50000000E+00  1.50000000E+00  8.00000000E-01  8.00000000E-01
  1.50000000E+00  1.50000000E+00  8.00000000E-01  8.00000000E-01  1.50000000E+00
  1.50000000E+00  8.00000000E-01  8.00000000E-01  1.50000000E+00  1.50000000E+00
  8.00000000E-01  8.00000000E-01  1.50000000E+00  1.50000000E+00  8.00000000E-01
  8.00000000E-01  1.50000000E+00  1.50000000E+00  8.00000000E-01  8.00000000E-01
  1.50000000E+00  1.50000000E+00  8.00000000E-01  8.00000000E-01  1.50000000E+00
  1.50000000E+00  8.00000000E-01  8.00000000E-01  1.50000000E+00  1.50000000E+00
  8.00000000E-01  8.00000000E-01  1.50000000E+00  1.50000000E+00  8.00000000E-01
  8.00000000E-01  1.50000000E+00  1.50000000E+00  8.00000000E-01  8.00000000E-01
  1.50000000E+00  1.50000000E+00  8.00000000E-01  8.00000000E-01  1.50000000E+00
  1.50000000E+00  8.00000000E-01  8.00000000E-01  1.50000000E+00  1.50000000E+00
  8.00000000E-01  8.00000000E-01  1.50000000E+00  1.50000000E+00  8.00000000E-01
  8.00000000E-01  1.50000000E+00  1.50000000E+00  8.00000000E-01  8.00000000E-01
  1.50000000E+00  1.50000000E+00  8.00000000E-01  8.00000000E-01  1.50000000E+00
  1.50000000E+00  8.00000000E-01  8.00000000E-01  1.50000000E+00  1.50000000E+00
  8.00000000E-01  8.00000000E-01  1.50000000E+00  1.50000000E+00  8.00000000E-01
  8.00000000E-01  1.50000000E+00  1.50000000E+00  8.00000000E-01  8.00000000E-01
  1.50000000E+00  1.50000000E+00  8.00000000E-01  8.00000000E-01  1.50000000E+00
  1.50000000E+00  8.00000000E-01  8.00000000E-01  1.50000000E+00  1.50000000E+00
  8.00000000E-01  8.00000000E-01  1.50000000E+00  1.50000000E+00  8.00000000E-01
  8.00000000E-01  1.50000000E+00  1.50000000E+00  8.00000000E-01  8.00000000E-01
  1.50000000E+00  1.50000000E+00  8.00000000E-01  8.00000000E-01  1.50000000E+00
  1.50000000E+00  8.00000000E-01  8.00000000E-01  1.50000000E+00  1.50000000E+00
  8.00000000E-01  8.00000000E-01  1.50000000E+00  1.50000000E+00  8.00000000E-01
  8.00000000E-01  1.50000000E+00  1.50000000E+00  8.00000000E-01  8.00000000E-01
  1.50000000E+00  1.50000000E+00  8.00000000E-01  8.00000000E-01  1.50000000E+00
  1.50000000E+00  8.00000000E-01  8.00000000E-01  1.50000000E+00  1.50000000E+00
  8.00000000E-01  8.00000000E-01  1.50000000E+00  1.50000000E+00  8.00000000E-01
  8.00000000E-01  1.50000000E+00  1.50000000E+00  8.00000000E-01  8.00000000E-01
  1.50000000E+00  1.50000000E+00  8.00000000E-01  8.00000000E-01  1.50000000E+00
  1.50000000E+00  8.00000000E-01  8.00000000E-01  1.50000000E+00  1.50000000E+00
  8.00000000E-01  8.00000000E-01  1.50000000E+00  1.50000000E+00  8.00000000E-01
  8.00000000E-01  1.50000000E+00  1.50000000E+00  8.00000000E-01  8.00000000E-01
  1.50000000E+00  1.50000000E+00  8.00000000E-01  8.00000000E-01  1.50000000E+00
  1.50000000E+00  8.00000000E-01  8.00000000E-01  1.50000000E+00  1.50000000E+00
  8.00000000E-01  8.00000000E-01  1.50000000E+00  1.50000000E+00  8.00000000E-01
  8.00000000E-01  1.50000000E+00  1.50000000E+00  8.00000000E-01  8.00000000E-01
  1.50000000E+00  1.50000000E+00  8.00000000E-01  8.00000000E-01  1.50000000E+00
  1.50000000E+00  8.00000000E-01  8.00000000E-01  1.50000000E+00  1.50000000E+00
  8.00000000E-01  8.00000000E-01  1.50000000E+00  1.50000000E+00  8.00000000E-01
  8.00000000E-01  1.50000000E+00  1.50000000E+00  8.00000000E-01  8.00000000E-01
  1.50000000E+00  1.50000000E+00  8.00000000E-01  8.00000000E-01  1.50000000E+00
  1.50000000E+00  8.00000000E-01  8.00000000E-01  1.50000000E+00  1.50000000E+00
  8.00000000E-01  8.00000000E-01  1.50000000E+00  1.50000000E+00  8.00000000E-01
  8.00000000E-01  1.50000000E+00  1.50000000E+00  8.00000000E-01  8.00000000E-01
  1.50000000E+00  1.50000000E+00  8.00000000E-01  8.00000000E-01  1.50000000E+00
  1.50000000E+00  8.00000000E-01  8.00000000E-01  1.50000000E+00  1.50000000E+00
  8.00000000E-01  8.00000000E-01  1.50000000E+00  1.50000000E+00  8.00000000E-01
  8.00000000E-01  1.50000000E+00  1.50000000E+00  8.00000000E-01  8.00000000E-01
  1.50000000E+00  1.50000000E+00  8.00000000E-01  8.00000000E-01  1.50000000E+00
  1.50000000E+00  8.00000000E-01  8.00000000E-01  1.50000000E+00  1.50000000E+00
  8.00000000E-01  8.00000000E-01  1.50000000E+00  1.50000000E+00  8.00000000E-01
  8.00000000E-01  1.50000000E+00  1.50000000E+00  8.00000000E-01  8.00000000E-01
  1.50000000E+00  1.50000000E+00  8.00000000E-01  8.00000000E-01  1.50000000E+00
  1.50000000E+00  8.00000000E-01  8.00000000E-01  1.50000000E+00  1.50000000E+00
  8.00000000E-01  8.00000000E-01  1.50000000E+00  1.50000000E+00  8.00000000E-01
  8.00000000E-01  1.50000000E+00  1.50000000E+00  8.00000000E-01  8.00000000E-01
  1.50000000E+00  1.50000000E+00  8.00000000E-01  8.00000000E-01  1.50000000E+00
  1.50000000E+00  8.00000000E-01  8.00000000E-01  1.50000000E+00  1.50000000E+00
  8.00000000E-01  8.00000000E-01  1.50000000E+00  1.50000000E+00  8.00000000E-01
  8.00000000E-01  1.50000000E+00  1.50000000E+00  8.00000000E-01  8.00000000E-01
  1.50000000E+00  1.50000000E+00  8.00000000E-01  8.00000000E-01  1.50000000E+00
  1.50000000E+00  8.00000000E-01  8.00000000E-01  1.50000000E+00  1.50000000E+00
  8.00000000E-01  8.00000000E-01  1.50000000E+00  1.50000000E+00  8.00000000E-01
  8.00000000E-01  1.50000000E+00  1.50000000E+00  8.00000000E-01  8.00000000E-01
  1.50000000E+00  1.50000000E+00  8.00000000E-01  8.00000000E-01  1.50000000E+00
  1.50000000E+00  8.00000000E-01  8.00000000E-01  1.50000000E+00  1.50000000E+00
  8.00000000E-01  8.00000000E-01  1.50000000E+00  1.50000000E+00  8.00000000E-01
  8.00000000E-01  1.50000000E+00  1.50000000E+00  8.00000000E-01  8.00000000E-01
  1.50000000E+00  1.50000000E+00  8.00000000E-01  8.00000000E-01  1.50000000E+00
  1.50000000E+00  8.00000000E-01  8.00000000E-01  1.50000000E+00  1.50000000E+00
  8.00000000E-01  8.00000000E-01  1.50000000E+00  1.50000000E+00  8.00000000E-01
  8.00000000E-01  1.50000000E+00  1.50000000E+00  8.00000000E-01  8.00000000E-01
  1.50000000E+00  1.50000000E+00  8.00000000E-01  8.00000000E-01  1.50000000E+00
  1.50000000E+00  8.00000000E-01  8.00000000E-01  1.50000000E+00  1.50000000E+00
  8.00000000E-01  8.00000000E-01  1.50000000E+00  1.50000000E+00  8.00000000E-01
  8.00000000E-01  1.50000000E+00  1.50000000E+00  8.00000000E-01  8.00000000E-01
  1.50000000E+00  1.50000000E+00  8.00000000E-01  8.00000000E-01  1.50000000E+00
  1.50000000E+00  8.00000000E-01  8.00000000E-01  1.50000000E+00  1.50000000E+00
  8.00000000E-01  8.00000000E-01  1.50000000E+00  1.50000000E+00  8.00000000E-01
  8.00000000E-01  1.50000000E+00  1.50000000E+00  8.00000000E-01  8.00000000E-01
  1.50000000E+00  1.50000000E+00  8.00000000E-01  8.00000000E-01  1.50000000E+00
  1.50000000E+00  8.00000000E-01  8.00000000E-01  1.50000000E+00  1.50000000E+00
  8.00000000E-01  8.00000000E-01  1.50000000E+00  1.50000000E+00  8.00000000E-01
  8.00000000E-01  1.50000000E+00  1.50000000E+00  8.00000000E-01  8.00000000E-01
  1.50000000E+00  1.50000000E+00  8.00000000E-01  8.00000000E-01  1.50000000E+00
  1.50000000E+00  8.00000000E-01  8.00000000E-01  1.50000000E+00  1.50000000E+00
  8.00000000E-01  8.00000000E-01  1.50000000E+00  1.50000000E+00  8.00000000E-01
  8.00000000E-01  1.50000000E+00  1.50000000E+00  8.00000000E-01  8.00000000E-01
  1.50000000E+00  1.50000000E+00  8.00000000E-01  8.00000000E-01  1.50000000E+00
  1.50000000E+00  8.00000000E-01  8.00000000E-01  1.50000000E+00  1.50000000E+00
  8.00000000E-01  8.00000000E-01  1.50000000E+00  1.50000000E+00  8.00000000E-01
  8.00000000E-01  1.50000000E+00  1.50000000E+00  8.00000000E-01  8.00000000E-01
  1.50000000E+00  1.50000000E+00  8.00000000E-01  8.00000000E-01  1.50000000E+00
  1.50000000E+00  8.00000000E-01  8.00000000E-01  1.50000000E+00  1.50000000E+00
  8.00000000E-01  8.00000000E-01  1.50000000E+00  1.50000000E+00  8.00000000E-01
  8.00000000E-01  1.50000000E+00  1.50000000E+00  8.00000000E-01  8.00000000E-01
  1.50000000E+00  1.50000000E+00  8.00000000E-01  8.00000000E-01  1.50000000E+00
  1.50000000E+00  8.00000000E-01  8.00000000E-01  1.50000000E+00  1.50000000E+00
  8.00000000E-01  8.00000000E-01  1.50000000E+00  1.50000000E+00  8.00000000E-01
  8.00000000E-01  1.50000000E+00  1.50000000E+00  8.00000000E-01  8.00000000E-01
  1.50000000E+00  1.50000000E+00  8.00000000E-01  8.00000000E-01  1.50000000E+00
  1.50000000E+00  8.00000000E-01  8.00000000E-01  1.50000000E+00  1.50000000E+00
  8.00000000E-01  8.00000000E-01  1.50000000E+00  1.50000000E+00  8.00000000E-01
  8.00000000E-01  1.50000000E+00  1.50000000E+00  8.00000000E-01  8.00000000E-01
  1.50000000E+00  1.50000000E+00  8.00000000E-01  8.00000000E-01  1.50000000E+00
  1.50000000E+00  8.00000000E-01  8.00000000E-01  1.50000000E+00  1.50000000E+00
  8.00000000E-01  8.00000000E-01  1.50000000E+00  1.50000000E+00  8.00000000E-01
  8.00000000E-01  1.50000000E+00  1.50000000E+00  8.00000000E-01  8.00000000E-01
  1.50000000E+00  1.50000000E+00  8.00000000E-01  8.00000000E-01  1.50000000E+00
  1.50000000E+00  8.00000000E-01  8.00000000E-01  1.50000000E+00  1.50000000E+00
  8.00000000E-01  8.00000000E-01  1.50000000E+00  1.50000000E+00  8.00000000E-01
  8.00000000E-01  1.50000000E+00  1.50000000E+00  8.00000000E-01  8.00000000E-01
  1.50000000E+00  1.50000000E+00  8.00000000E-01  8.00000000E-01  1.50000000E+00
  1.50000000E+00  8.00000000E-01  8.00000000E-01  1.50000000E+00  1.50000000E+00
  8.00000000E-01  8.00000000E-01  1.50000000E+00  1.50000000E+00  8.00000000E-01
  8.00000000E-01  1.50000000E+00  1.50000000E+00  8.00000000E-01  8.00000000E-01
  1.50000000E+00  1.50000000E+00  8.00000000E-01  8.00000000E-01  1.50000000E+00
  1.50000000E+00  8.00000000E-01  8.00000000E-01  1.50000000E+00  1.50000000E+00
  8.00000000E-01  8.00000000E-01  1.50000000E+00  1.50000000E+00  8.00000000E-01
  8.00000000E-01  1.50000000E+00  1.50000000E+00  8.00000000E-01  8.00000000E-01
  1.50000000E+00  1.50000000E+00  8.00000000E-01  8.00000000E-01  1.50000000E+00
  1.50000000E+00  8.00000000E-01  8.00000000E-01  1.50000000E+00  1.50000000E+00
  8.00000000E-01  8.00000000E-01  1.50000000E+00  1.50000000E+00  8.00000000E-01
  8.00000000E-01  1.50000000E+00  1.50000000E+00  8.00000000E-01  8.00000000E-01
  1.50000000E+00  1.50000000E+00  8.00000000E-01  8.00000000E-01  1.50000000E+00
  1.50000000E+00  8.00000000E-01  8.00000000E-01  1.50000000E+00  1.50000000E+00
  8.00000000E-01  8.00000000E-01  1.50000000E+00  1.50000000E+00  8.00000000E-01
  8.00000000E-01  1.50000000E+00  1.50000000E+00  8.00000000E-01  8.00000000E-01
  1.50000000E+00  1.50000000E+00  8.00000000E-01  8.00000000E-01  1.50000000E+00
  1.50000000E+00  8.00000000E-01  8.00000000E-01  1.50000000E+00  1.50000000E+00
  8.00000000E-01  8.00000000E-01  1.50000000E+00  1.50000000E+00  8.00000000E-01
  8.00000000E-01  1.50000000E+00  1.50000000E+00  8.00000000E-01  8.00000000E-01
  1.50000000E+00  1.50000000E+00  8.00000000E-01  8.00000000E-01  1.50000000E+00
  1.50000000E+00  8.00000000E-01  8.00000000E-01  1.50000000E+00  1.50000000E+00
  8.00000000E-01  8.00000000E-01  1.50000000E+00  1.50000000E+00  8.00000000E-01
  8.00000000E-01  1.50000000E+00  1.50000000E+00  8.00000000E-01  8.00000000E-01
  1.50000000E+00  1.50000000E+00  8.00000000E-01  8.00000000E-01  1.50000000E+00
  1.50000000E+00  8.00000000E-01  8.00000000E-01  1.50000000E+00  1.50000000E+00
  8.00000000E-01  8.00000000E-01  1.50000000E+00  1.50000000E+00  8.00000000E-01
  8.00000000E-01  1.50000000E+00  1.50000000E+00  8.00000000E-01  8.00000000E-01
  1.50000000E+00  1.50000000E+00  8.00000000E-01  8.00000000E-01  1.50000000E+00
  1.50000000E+00  8.00000000E-01  8.00000000E-01  1.50000000E+00  1.50000000E+00
  8.00000000E-01  8.00000000E-01  1.50000000E+00  1.50000000E+00  8.00000000E-01
  8.00000000E-01  1.50000000E+00  1.50000000E+00  8.00000000E-01  8.00000000E-01
  1.50000000E+00  1.50000000E+00  8.00000000E-01  8.00000000E-01  1.50000000E+00
  1.50000000E+00  8.00000000E-01  8.00000000E-01  1.50000000E+00  1.50000000E+00
  8.00000000E-01  8.00000000E-01  1.50000000E+00  1.50000000E+00  8.00000000E-01
  8.00000000E-01  1.50000000E+00  1.50000000E+00  8.00000000E-01  8.00000000E-01
  1.50000000E+00  1.50000000E+00  8.00000000E-01  8.00000000E-01  1.50000000E+00
  1.50000000E+00  8.00000000E-01  8.00000000E-01  1.50000000E+00  1.50000000E+00
  8.00000000E-01  8.00000000E-01  1.50000000E+00  1.50000000E+00  8.00000000E-01
  8.00000000E-01  1.50000000E+00  1.50000000E+00  8.00000000E-01  8.00000000E-01
  1.50000000E+00  1.50000000E+00  8.00000000E-01  8.00000000E-01  1.50000000E+00
  1.50000000E+00  8.00000000E-01  8.00000000E-01  1.50000000E+00  1.50000000E+00
  8.00000000E-01  8.00000000E-01  1.50000000E+00  1.50000000E+00  8.00000000E-01
  8.00000000E-01  1.50000000E+00  1.50000000E+00  8.00000000E-01  8.00000000E-01
  1.50000000E+00  1.50000000E+00  8.00000000E-01  8.00000000E-01  1.50000000E+00
  1.50000000E+00  8.00000000E-01  8.00000000E-01  1.50000000E+00  1.50000000E+00
  8.00000000E-01  8.00000000E-01  1.50000000E+00  1.50000000E+00  8.00000000E-01
  8.00000000E-01  1.50000000E+00  1.50000000E+00  8.00000000E-01  8.00000000E-01
  1.50000000E+00  1.50000000E+00  8.00000000E-01  8.00000000E-01  1.50000000E+00
  1.50000000E+00  8.00000000E-01  8.00000000E-01  1.50000000E+00  1.50000000E+00
  8.00000000E-01  8.00000000E-01  1.50000000E+00  1.50000000E+00  8.00000000E-01
  8.00000000E-01  1.50000000E+00  1.50000000E+00  8.00000000E-01  8.00000000E-01
  1.50000000E+00  1.50000000E+00  8.00000000E-01  8.00000000E-01  1.50000000E+00
  1.50000000E+00  8.00000000E-01  8.00000000E-01  1.50000000E+00  1.50000000E+00
  8.00000000E-01  8.00000000E-01  1.50000000E+00  1.50000000E+00  8.00000000E-01
  8.00000000E-01  1.50000000E+00  1.50000000E+00  8.00000000E-01  8.00000000E-01
  1.50000000E+00  1.50000000E+00  8.00000000E-01  8.00000000E-01  1.50000000E+00
  1.50000000E+00  8.00000000E-01  8.00000000E-01  1.50000000E+00  1.50000000E+00
  8.00000000E-01  8.00000000E-01  1.50000000E+00  1.50000000E+00  8.00000000E-01
  8.00000000E-01  1.50000000E+00  1.50000000E+00  8.00000000E-01  8.00000000E-01
  1.50000000E+00  1.50000000E+00  8.00000000E-01  8.00000000E-01  1.50000000E+00
  1.50000000E+00  8.00000000E-01  8.00000000E-01  1.50000000E+00  1.50000000E+00
  8.00000000E-01  8.00000000E-01  1.50000000E+00  1.50000000E+00  8.00000000E-01
  8.00000000E-01  1.50000000E+00  1.50000000E+00  8.00000000E-01  8.00000000E-01
  1.50000000E+00  1.50000000E+00  8.00000000E-01  8.00000000E-01  1.50000000E+00
  1.50000000E+00  8.00000000E-01  8.00000000E-01  1.50000000E+00  1.50000000E+00
  8.00000000E-01  8.00000000E-01  1.50000000E+00  1.50000000E+00  8.00000000E-01
  8.00000000E-01  1.50000000E+00  1.50000000E+00  8.00000000E-01  8.00000000E-01
  1.50000000E+00  1.50000000E+00  8.00000000E-01  8.00000000E-01  1.50000000E+00
  1.50000000E+00  8.00000000E-01  8.00000000E-01  1.50000000E+00  1.50000000E+00
  8.00000000E-01  8.00000000E-01  1.50000000E+00  1.50000000E+00  8.00000000E-01
  8.00000000E-01  1.50000000E+00  1.50000000E+00  8.00000000E-01  8.00000000E-01
  1.50000000E+00  1.50000000E+00  8.00000000E-01  8.00000000E-01  1.50000000E+00
  1.50000000E+00  8.00000000E-01  8.00000000E-01  1.50000000E+00  1.50000000E+00
  8.00000000E-01  8.00000000E-01  1.50000000E+00  1.50000000E+00  8.00000000E-01
  8.00000000E-01  1.50000000E+00  1.50000000E+00  8.00000000E-01  8.00000000E-01
  1.50000000E+00  1.50000000E+00  8.00000000E-01  8.00000000E-01  1.50000000E+00
  1.50000000E+00  8.00000000E-01  8.00000000E-01  1.50000000E+00  1.50000000E+00
  8.00000000E-01  8.00000000E-01  1.50000000E+00  1.50000000E+00  8.00000000E-01
  8.00000000E-01  1.50000000E+00  1.50000000E+00  8.00000000E-01  8.00000000E-01
  1.50000000E+00  1.50000000E+00  8.00000000E-01  8.00000000E-01  1.50000000E+00
  1.50000000E+00  8.00000000E-01  8.00000000E-01  1.50000000E+00  1.50000000E+00
  8.00000000E-01  8.00000000E-01  1.50000000E+00  1.50000000E+00  8.00000000E-01
  8.00000000E-01  1.50000000E+00  1.50000000E+00  8.00000000E-01  8.00000000E-01
  1.50000000E+00  1.50000000E+00  8.00000000E-01  8.00000000E-01  1.50000000E+00
  1.50000000E+00  8.00000000E-01  8.00000000E-01  1.50000000E+00  1.50000000E+00
  8.00000000E-01  8.00000000E-01  1.50000000E+00  1.50000000E+00  8.00000000E-01
  8.00000000E-01  1.50000000E+00  1.50000000E+00  8.00000000E-01  8.00000000E-01
  1.50000000E+00  1.50000000E+00  8.00000000E-01  8.00000000E-01  1.50000000E+00
  1.50000000E+00  8.00000000E-01  8.00000000E-01  1.50000000E+00  1.50000000E+00
  8.00000000E-01  8.00000000E-01  1.50000000E+00  1.50000000E+00  8.00000000E-01
  8.00000000E-01  1.50000000E+00  1.50000000E+00  8.00000000E-01  8.00000000E-01
  1.50000000E+00  1.50000000E+00  8.00000000E-01  8.00000000E-01  1.50000000E+00
  1.50000000E+00  8.00000000E-01  8.00000000E-01  1.50000000E+00  1.50000000E+00
  8.00000000E-01  8.00000000E-01  1.50000000E+00  1.50000000E+00  8.00000000E-01
  8.00000000E-01  1.50000000E+00  1.50000000E+00  8.00000000E-01  8.00000000E-01
  1.50000000E+00  1.50000000E+00  8.00000000E-01  8.00000000E-01  1.50000000E+00
  1.50000000E+00  8.00000000E-01  8.00000000E-01  1.50000000E+00  1.50000000E+00
  8.00000000E-01  8.00000000E-01  1.50000000E+00  1.50000000E+00  8.00000000E-01
  8.00000000E-01  1.50000000E+00  1.50000000E+00  8.00000000E-01  8.00000000E-01
  1.50000000E+00  1.50000000E+00  8.00000000E-01  8.00000000E-01  1.50000000E+00
  1.50000000E+00  8.00000000E-01  8.00000000E-01  1.50000000E+00  1.50000000E+00
  8.00000000E-01  8.00000000E-01  1.50000000E+00  1.50000000E+00  8.00000000E-01
  8.00000000E-01  1.50000000E+00  1.50000000E+00  8.00000000E-01  8.00000000E-01
  1.50000000E+00  1.50000000E+00  8.00000000E-01  8.00000000E-01  1.50000000E+00
  1.50000000E+00  8.00000000E-01  8.00000000E-01  1.50000000E+00  1.50000000E+00
  8.00000000E-01  8.00000000E-01  1.50000000E+00  1.50000000E+00  8.00000000E-01
  8.00000000E-01  1.50000000E+00  1.50000000E+00  8.00000000E-01  8.00000000E-01
  1.50000000E+00  1.50000000E+00  8.00000000E-01  8.00000000E-01  1.50000000E+00
  1.50000000E+00  8.00000000E-01  8.00000000E-01  1.50000000E+00  1.50000000E+00
  8.00000000E-01  8.00000000E-01  1.50000000E+00  1.50000000E+00  8.00000000E-01
  8.00000000E-01  1.50000000E+00  1.50000000E+00  8.00000000E-01  8.00000000E-01
  1.50000000E+00  1.50000000E+00  8.00000000E-01  8.00000000E-01  1.50000000E+00
  1.50000000E+00  8.00000000E-01  8.00000000E-01  1.50000000E+00  1.50000000E+00
  8.00000000E-01  8.00000000E-01  1.50000000E+00  1.50000000E+00  8.00000000E-01
  8.00000000E-01  1.50000000E+00  1.50000000E+00  8.00000000E-01  8.00000000E-01
  1.50000000E+00  1.50000000E+00  8.00000000E-01  8.00000000E-01  1.50000000E+00
  1.50000000E+00  8.00000000E-01  8.00000000E-01  1.50000000E+00  1.50000000E+00
  8.00000000E-01  8.00000000E-01  1.50000000E+00  1.50000000E+00  8.00000000E-01
  8.00000000E-01  1.50000000E+00  1.50000000E+00  8.00000000E-01  8.00000000E-01
  1.50000000E+00  1.50000000E+00  8.00000000E-01  8.00000000E-01  1.50000000E+00
  1.50000000E+00  8.00000000E-01  8.00000000E-01  1.50000000E+00  1.50000000E+00
  8.00000000E-01  8.00000000E-01  1.50000000E+00  1.50000000E+00  8.00000000E-01
  8.00000000E-01  1.50000000E+00  1.50000000E+00  8.00000000E-01  8.00000000E-01
  1.50000000E+00  1.50000000E+00  8.00000000E-01  8.00000000E-01  1.50000000E+00
  1.50000000E+00  8.00000000E-01  8.00000000E-01  1.50000000E+00  1.50000000E+00
  8.00000000E-01  8.00000000E-01  1.50000000E+00  1.50000000E+00  8.00000000E-01
  8.00000000E-01  1.50000000E+00  1.50000000E+00  8.00000000E-01  8.00000000E-01
  1.50000000E+00  1.50000000E+00  8.00000000E-01  8.00000000E-01  1.50000000E+00
  1.50000000E+00  8.00000000E-01  8.00000000E-01  1.50000000E+00  1.50000000E+00
  8.00000000E-01  8.00000000E-01  1.50000000E+00  1.50000000E+00  8.00000000E-01
  8.00000000E-01  1.50000000E+00  1.50000000E+00  8.00000000E-01  8.00000000E-01
  1.50000000E+00  1.50000000E+00  8.00000000E-01  8.00000000E-01  1.50000000E+00
  1.50000000E+00  8.00000000E-01  8.00000000E-01  1.50000000E+00  1.50000000E+00
  8.00000000E-01  8.00000000E-01  1.50000000E+00  1.50000000E+00  8.00000000E-01
  8.00000000E-01  1.50000000E+00  1.50000000E+00  8.00000000E-01  8.00000000E-01
  1.50000000E+00  1.50000000E+00  8.00000000E-01  8.00000000E-01  1.50000000E+00
  1.50000000E+00  8.00000000E-01  8.00000000E-01  1.50000000E+00  1.50000000E+00
  8.00000000E-01  8.00000000E-01  1.50000000E+00  1.50000000E+00  8.00000000E-01
  8.00000000E-01  1.50000000E+00  1.50000000E+00  8.00000000E-01  8.00000000E-01
  1.50000000E+00  1.50000000E+00  8.00000000E-01  8.00000000E-01  1.50000000E+00
  1.50000000E+00  8.00000000E-01  8.00000000E-01  1.50000000E+00  1.50000000E+00
  8.00000000E-01  8.00000000E-01  1.50000000E+00  1.50000000E+00  8.00000000E-01
  8.00000000E-01  1.50000000E+00  1.50000000E+00  8.00000000E-01  8.00000000E-01
  1.50000000E+00  1.50000000E+00  8.00000000E-01  8.00000000E-01  1.50000000E+00
  1.50000000E+00  8.00000000E-01  8.00000000E-01  1.50000000E+00  1.50000000E+00
  8.00000000E-01  8.00000000E-01  1.50000000E+00  1.50000000E+00  8.00000000E-01
  8.00000000E-01  1.50000000E+00  1.50000000E+00  8.00000000E-01  8.00000000E-01
  1.50000000E+00  1.50000000E+00  8.00000000E-01  8.00000000E-01  1.50000000E+00
  1.50000000E+00  8.00000000E-01  8.00000000E-01  1.50000000E+00  1.50000000E+00
  8.00000000E-01  8.00000000E-01  1.50000000E+00  1.50000000E+00  8.00000000E-01
  8.00000000E-01  1.50000000E+00  1.50000000E+00  8.00000000E-01  8.00000000E-01
  1.50000000E+00  1.50000000E+00  8.00000000E-01  8.00000000E-01  1.50000000E+00
  1.50000000E+00  8.00000000E-01  8.00000000E-01  1.50000000E+00  1.50000000E+00
  8.00000000E-01  8.00000000E-01  1.50000000E+00  1.50000000E+00  8.00000000E-01
  8.00000000E-01  1.50000000E+00  1.50000000E+00  8.00000000E-01  8.00000000E-01
  1.50000000E+00  1.50000000E+00  8.00000000E-01  8.00000000E-01  1.50000000E+00
  1.50000000E+00  8.00000000E-01  8.00000000E-01  1.50000000E+00  1.50000000E+00
  8.00000000E-01  8.00000000E-01  1.50000000E+00  1.50000000E+00  8.00000000E-01
  8.00000000E-01  1.50000000E+00  1.50000000E+00  8.00000000E-01  8.00000000E-01
  1.50000000E+00  1.50000000E+00  8.00000000E-01  8.00000000E-01  1.50000000E+00
  1.50000000E+00  8.00000000E-01  8.00000000E-01  1.50000000E+00  1.50000000E+00
  8.00000000E-01  8.00000000E-01  1.50000000E+00  1.50000000E+00  8.00000000E-01
  8.00000000E-01  1.50000000E+00  1.50000000E+00  8.00000000E-01  8.00000000E-01
  1.50000000E+00  1.50000000E+00  8.00000000E-01  8.00000000E-01  1.50000000E+00
  1.50000000E+00  8.00000000E-01  8.00000000E-01  1.50000000E+00  1.50000000E+00
  8.00000000E-01  8.00000000E-01  1.50000000E+00  1.50000000E+00  8.00000000E-01
  8.00000000E-01  1.50000000E+00  1.50000000E+00  8.00000000E-01  8.00000000E-01
  1.50000000E+00  1.50000000E+00  8.00000000E-01  8.00000000E-01  1.50000000E+00
  1.50000000E+00  8.00000000E-01  8.00000000E-01  1.50000000E+00  1.50000000E+00
  8.00000000E-01  8.00000000E-01  1.50000000E+00  1.50000000E+00  8.00000000E-01
  8.00000000E-01  1.50000000E+00  1.50000000E+00  8.00000000E-01  8.00000000E-01
  1.50000000E+00  1.50000000E+00  8.00000000E-01  8.00000000E-01  1.50000000E+00
  1.50000000E+00  8.00000000E-01  8.00000000E-01  1.50000000E+00  1.50000000E+00
  8.00000000E-01  8.00000000E-01  1.50000000E+00  1.50000000E+00  8.00000000E-01
  8.00000000E-01  1.50000000E+00  1.50000000E+00  8.00000000E-01  8.00000000E-01
  1.50000000E+00  1.50000000E+00  8.00000000E-01  8.00000000E-01  1.50000000E+00
  1.50000000E+00  8.00000000E-01  8.00000000E-01  1.50000000E+00  1.50000000E+00
  8.00000000E-01  8.00000000E-01  1.50000000E+00  1.50000000E+00  8.00000000E-01
  8.00000000E-01  1.50000000E+00  1.50000000E+00  8.00000000E-01  8.00000000E-01
  1.50000000E+00  1.50000000E+00  8.00000000E-01  8.00000000E-01  1.50000000E+00
  1.50000000E+00  8.00000000E-01  8.00000000E-01  1.50000000E+00  1.50000000E+00
  8.00000000E-01  8.00000000E-01  1.50000000E+00  1.50000000E+00  8.00000000E-01
  8.00000000E-01  1.50000000E+00  1.50000000E+00  8.00000000E-01  8.00000000E-01
  1.50000000E+00  1.50000000E+00  8.00000000E-01  8.00000000E-01  1.50000000E+00
  1.50000000E+00  8.00000000E-01  8.00000000E-01  1.50000000E+00  1.50000000E+00
  8.00000000E-01  8.00000000E-01  1.50000000E+00  1.50000000E+00  8.00000000E-01
  8.00000000E-01  1.50000000E+00  1.50000000E+00  8.00000000E-01  8.00000000E-01
  1.50000000E+00  1.50000000E+00  8.00000000E-01  8.00000000E-01  1.50000000E+00
  1.50000000E+00  8.00000000E-01  8.00000000E-01  1.50000000E+00  1.50000000E+00
  8.00000000E-01  8.00000000E-01  1.50000000E+00  1.50000000E+00  8.00000000E-01
  8.00000000E-01  1.50000000E+00  1.50000000E+00  8.00000000E-01  8.00000000E-01
  1.50000000E+00  1.50000000E+00  8.00000000E-01  8.00000000E-01  1.50000000E+00
  1.50000000E+00  8.00000000E-01  8.00000000E-01  1.50000000E+00  1.50000000E+00
  8.00000000E-01  8.00000000E-01  1.50000000E+00  1.50000000E+00  8.00000000E-01
  8.00000000E-01  1.50000000E+00  1.50000000E+00  8.00000000E-01  8.00000000E-01
  1.50000000E+00  1.50000000E+00  8.00000000E-01  8.00000000E-01  1.50000000E+00
  1.50000000E+00  8.00000000E-01  8.00000000E-01  1.50000000E+00  1.50000000E+00
  8.00000000E-01  8.00000000E-01  1.50000000E+00  1.50000000E+00  8.00000000E-01
  8.00000000E-01  1.50000000E+00  1.50000000E+00  8.00000000E-01  8.00000000E-01
  1.50000000E+00  1.50000000E+00  8.00000000E-01  8.00000000E-01  1.50000000E+00
  1.50000000E+00  8.00000000E-01  8.00000000E-01  1.50000000E+00  1.50000000E+00
  8.00000000E-01  8.00000000E-01  1.50000000E+00  1.50000000E+00  8.00000000E-01
  8.00000000E-01  1.50000000E+00  1.50000000E+00  8.00000000E-01  8.00000000E-01
  1.50000000E+00  1.50000000E+00  8.00000000E-01  8.00000000E-01  1.50000000E+00
  1.50000000E+00  8.00000000E-01  8.00000000E-01  1.50000000E+00  1.50000000E+00
  8.00000000E-01  8.00000000E-01  1.50000000E+00  1.50000000E+00  8.00000000E-01
  8.00000000E-01  1.50000000E+00  1.50000000E+00  8.00000000E-01  8.00000000E-01
  1.50000000E+00  1.50000000E+00  8.00000000E-01  8.00000000E-01  1.50000000E+00
  1.50000000E+00  8.00000000E-01  8.00000000E-01  1.50000000E+00  1.50000000E+00
  8.00000000E-01  8.00000000E-01  1.50000000E+00  1.50000000E+00  8.00000000E-01
  8.00000000E-01  1.50000000E+00  1.50000000E+00  8.00000000E-01  8.00000000E-01
  1.50000000E+00  1.50000000E+00  8.00000000E-01  8.00000000E-01  1.50000000E+00
  1.50000000E+00  8.00000000E-01  8.00000000E-01  1.50000000E+00  1.50000000E+00
  8.00000000E-01  8.00000000E-01  1.50000000E+00  1.50000000E+00  8.00000000E-01
  8.00000000E-01  1.50000000E+00  1.50000000E+00  8.00000000E-01  8.00000000E-01
  1.50000000E+00  1.50000000E+00  8.00000000E-01  8.00000000E-01  1.50000000E+00
  1.50000000E+00  8.00000000E-01  8.00000000E-01  1.50000000E+00  1.50000000E+00
  8.00000000E-01  8.00000000E-01  1.50000000E+00  1.50000000E+00  8.00000000E-01
  8.00000000E-01  1.50000000E+00  1.50000000E+00  8.00000000E-01  8.00000000E-01
  1.50000000E+00  1.50000000E+00  8.00000000E-01  8.00000000E-01  1.50000000E+00
  1.50000000E+00  8.00000000E-01  8.00000000E-01  1.50000000E+00  1.50000000E+00
  8.00000000E-01  8.00000000E-01  1.50000000E+00  1.50000000E+00  8.00000000E-01
  8.00000000E-01  1.50000000E+00  1.50000000E+00  8.00000000E-01  8.00000000E-01
  1.50000000E+00  1.50000000E+00  8.00000000E-01  8.00000000E-01  1.50000000E+00
  1.50000000E+00  8.00000000E-01  8.00000000E-01  1.50000000E+00  1.50000000E+00
  8.00000000E-01  8.00000000E-01  1.50000000E+00  1.50000000E+00  8.00000000E-01
  8.00000000E-01  1.50000000E+00  1.50000000E+00  8.00000000E-01  8.00000000E-01
  1.50000000E+00  1.50000000E+00  8.00000000E-01  8.00000000E-01  1.50000000E+00
  1.50000000E+00  8.00000000E-01  8.00000000E-01  1.50000000E+00  1.50000000E+00
  8.00000000E-01  8.00000000E-01  1.50000000E+00  1.50000000E+00  8.00000000E-01
  8.00000000E-01  1.50000000E+00  1.50000000E+00  8.00000000E-01  8.00000000E-01
  1.50000000E+00  1.50000000E+00  8.00000000E-01  8.00000000E-01  1.50000000E+00
  1.50000000E+00  8.00000000E-01  8.00000000E-01  1.50000000E+00  1.50000000E+00
  8.00000000E-01  8.00000000E-01  1.50000000E+00  1.50000000E+00  8.00000000E-01
  8.00000000E-01  1.50000000E+00  1.50000000E+00  8.00000000E-01  8.00000000E-01
  1.50000000E+00  1.50000000E+00  8.00000000E-01  8.00000000E-01  1.50000000E+00
  1.50000000E+00  8.00000000E-01  8.00000000E-01  1.50000000E+00  1.50000000E+00
  8.00000000E-01  8.00000000E-01  1.50000000E+00  1.50000000E+00  8.00000000E-01
  8.00000000E-01  1.50000000E+00  1.50000000E+00  8.00000000E-01  8.00000000E-01
  1.50000000E+00  1.50000000E+00  8.00000000E-01  8.00000000E-01  1.50000000E+00
  1.50000000E+00  8.00000000E-01  8.00000000E-01  1.50000000E+00  1.50000000E+00
  8.00000000E-01  8.00000000E-01  1.50000000E+00  1.50000000E+00  8.00000000E-01
  8.00000000E-01  1.50000000E+00  1.50000000E+00  8.00000000E-01  8.00000000E-01
  1.50000000E+00  1.50000000E+00  8.00000000E-01  8.00000000E-01  1.50000000E+00
  1.50000000E+00  8.00000000E-01  8.00000000E-01  1.50000000E+00  1.50000000E+00
  8.00000000E-01  8.00000000E-01  1.50000000E+00  1.50000000E+00  8.00000000E-01
  8.00000000E-01  1.50000000E+00  1.50000000E+00  8.00000000E-01  8.00000000E-01
  1.50000000E+00  1.50000000E+00  8.00000000E-01  8.00000000E-01  1.50000000E+00
  1.50000000E+00  8.00000000E-01  8.00000000E-01  1.50000000E+00  1.50000000E+00
  8.00000000E-01  8.00000000E-01  1.50000000E+00  1.50000000E+00  8.00000000E-01
  8.00000000E-01  1.50000000E+00  1.50000000E+00  8.00000000E-01  8.00000000E-01
  1.50000000E+00  1.50000000E+00  8.00000000E-01  8.00000000E-01  1.50000000E+00
  1.50000000E+00  8.00000000E-01  8.00000000E-01  1.50000000E+00  1.50000000E+00
  8.00000000E-01  8.00000000E-01  1.50000000E+00  1.50000000E+00  8.00000000E-01
  8.00000000E-01  1.50000000E+00  1.50000000E+00  8.00000000E-01  8.00000000E-01
  1.50000000E+00  1.50000000E+00  8.00000000E-01  8.00000000E-01  1.50000000E+00
  1.50000000E+00  8.00000000E-01  8.00000000E-01  1.50000000E+00  1.50000000E+00
  8.00000000E-01  8.00000000E-01  1.50000000E+00  1.50000000E+00  8.00000000E-01
  8.00000000E-01  1.50000000E+00  1.50000000E+00  8.00000000E-01  8.00000000E-01
  1.50000000E+00  1.50000000E+00  8.00000000E-01  8.00000000E-01  1.50000000E+00
  1.50000000E+00  8.00000000E-01  8.00000000E-01  1.50000000E+00  1.50000000E+00
  8.00000000E-01  8.00000000E-01  1.50000000E+00  1.50000000E+00  8.00000000E-01
  8.00000000E-01  1.50000000E+00  1.50000000E+00  8.00000000E-01  8.00000000E-01
  1.50000000E+00  1.50000000E+00  8.00000000E-01  8.00000000E-01  1.50000000E+00
  1.50000000E+00  8.00000000E-01  8.00000000E-01  1.50000000E+00  1.50000000E+00
  8.00000000E-01  8.00000000E-01  1.50000000E+00  1.50000000E+00  8.00000000E-01
  8.00000000E-01  1.50000000E+00  1.50000000E+00  8.00000000E-01  8.00000000E-01
  1.50000000E+00  1.50000000E+00  8.00000000E-01  8.00000000E-01  1.50000000E+00
  1.50000000E+00  8.00000000E-01  8.00000000E-01  1.50000000E+00  1.50000000E+00
  8.00000000E-01  8.00000000E-01  1.50000000E+00  1.50000000E+00  8.00000000E-01
  8.00000000E-01  1.50000000E+00  1.50000000E+00  8.00000000E-01  8.00000000E-01
  1.50000000E+00  1.50000000E+00  8.00000000E-01  8.00000000E-01  1.50000000E+00
  1.50000000E+00  8.00000000E-01  8.00000000E-01  1.50000000E+00  1.50000000E+00
  8.00000000E-01  8.00000000E-01  1.50000000E+00  1.50000000E+00  8.00000000E-01
  8.00000000E-01  1.50000000E+00  1.50000000E+00  8.00000000E-01  8.00000000E-01
  1.50000000E+00  1.50000000E+00  8.00000000E-01  8.00000000E-01  1.50000000E+00
  1.50000000E+00  8.00000000E-01  8.00000000E-01  1.50000000E+00  1.50000000E+00
  8.00000000E-01  8.00000000E-01  1.50000000E+00  1.50000000E+00  8.00000000E-01
  8.00000000E-01  1.50000000E+00  1.50000000E+00  8.00000000E-01  8.00000000E-01
  1.50000000E+00  1.50000000E+00  8.00000000E-01  8.00000000E-01  1.50000000E+00
  1.50000000E+00  8.00000000E-01  8.00000000E-01  1.50000000E+00  1.50000000E+00
  8.00000000E-01  8.00000000E-01  1.50000000E+00  1.50000000E+00  8.00000000E-01
  8.00000000E-01  1.50000000E+00  1.50000000E+00  8.00000000E-01  8.00000000E-01
  1.50000000E+00  1.50000000E+00  8.00000000E-01  8.00000000E-01  1.50000000E+00
  1.50000000E+00  8.00000000E-01  8.00000000E-01  1.50000000E+00  1.50000000E+00
  8.00000000E-01  8.00000000E-01  1.50000000E+00  1.50000000E+00  8.00000000E-01
  8.00000000E-01  1.50000000E+00  1.50000000E+00  8.00000000E-01  8.00000000E-01
  1.50000000E+00  1.50000000E+00  8.00000000E-01  8.00000000E-01  1.50000000E+00
  1.50000000E+00  8.00000000E-01  8.00000000E-01  1.50000000E+00  1.50000000E+00
  8.00000000E-01  8.00000000E-01  1.50000000E+00  1.50000000E+00  8.00000000E-01
  8.00000000E-01  1.50000000E+00  1.50000000E+00  8.00000000E-01  8.00000000E-01
  1.50000000E+00  1.50000000E+00  8.00000000E-01  8.00000000E-01  1.50000000E+00
  1.50000000E+00  8.00000000E-01  8.00000000E-01  1.50000000E+00  1.50000000E+00
  8.00000000E-01  8.00000000E-01  1.50000000E+00  1.50000000E+00  8.00000000E-01
  8.00000000E-01  1.50000000E+00  1.50000000E+00  8.00000000E-01  8.00000000E-01
  1.50000000E+00  1.50000000E+00  8.00000000E-01  8.00000000E-01  1.50000000E+00
  1.50000000E+00  8.00000000E-01  8.00000000E-01  1.50000000E+00  1.50000000E+00
  8.00000000E-01  8.00000000E-01  1.50000000E+00  1.50000000E+00  8.00000000E-01
  8.00000000E-01  1.50000000E+00  1.50000000E+00  8.00000000E-01  8.00000000E-01
  1.50000000E+00  1.50000000E+00  8.00000000E-01  8.00000000E-01  1.50000000E+00
  1.50000000E+00  8.00000000E-01  8.00000000E-01  1.50000000E+00  1.50000000E+00
  8.00000000E-01  8.00000000E-01  1.50000000E+00  1.50000000E+00  8.00000000E-01
  8.00000000E-01  1.50000000E+00  1.50000000E+00  8.00000000E-01  8.00000000E-01
  1.50000000E+00  1.50000000E+00  8.00000000E-01  8.00000000E-01  1.50000000E+00
  1.50000000E+00  8.00000000E-01  8.00000000E-01  1.50000000E+00  1.50000000E+00
  8.00000000E-01  8.00000000E-01  1.50000000E+00  1.50000000E+00  8.00000000E-01
  8.00000000E-01  1.50000000E+00  1.50000000E+00  8.00000000E-01  8.00000000E-01
  1.50000000E+00  1.50000000E+00  8.00000000E-01  8.00000000E-01  1.50000000E+00
  1.50000000E+00  8.00000000E-01  8.00000000E-01  1.50000000E+00  1.50000000E+00
  8.00000000E-01  8.00000000E-01  1.50000000E+00  1.50000000E+00  8.00000000E-01
  8.00000000E-01  1.50000000E+00  1.50000000E+00  8.00000000E-01  8.00000000E-01
  1.50000000E+00  1.50000000E+00  8.00000000E-01  8.00000000E-01  1.50000000E+00
  1.50000000E+00  8.00000000E-01  8.00000000E-01  1.50000000E+00  1.50000000E+00
  8.00000000E-01  8.00000000E-01  1.50000000E+00  1.50000000E+00  8.00000000E-01
  8.00000000E-01  1.50000000E+00  1.50000000E+00  8.00000000E-01  8.00000000E-01
  1.50000000E+00  1.50000000E+00  8.00000000E-01  8.00000000E-01  1.50000000E+00
  1.50000000E+00  8.00000000E-01  8.00000000E-01  1.50000000E+00  1.50000000E+00
  8.00000000E-01  8.00000000E-01  1.50000000E+00  1.50000000E+00  8.00000000E-01
  8.00000000E-01  1.50000000E+00  1.50000000E+00  8.00000000E-01  8.00000000E-01
  1.50000000E+00  1.50000000E+00  8.00000000E-01  8.00000000E-01  1.50000000E+00
  1.50000000E+00  8.00000000E-01  8.00000000E-01  1.50000000E+00  1.50000000E+00
  8.00000000E-01  8.00000000E-01  1.50000000E+00  1.50000000E+00  8.00000000E-01
  8.00000000E-01  1.50000000E+00  1.50000000E+00  8.00000000E-01  8.00000000E-01
  1.50000000E+00  1.50000000E+00  8.00000000E-01  8.00000000E-01  1.50000000E+00
  1.50000000E+00  8.00000000E-01  8.00000000E-01  1.50000000E+00  1.50000000E+00
  8.00000000E-01  8.00000000E-01  1.50000000E+00  1.50000000E+00  8.00000000E-01
  8.00000000E-01  1.50000000E+00  1.50000000E+00  8.00000000E-01  8.00000000E-01
  1.50000000E+00  1.50000000E+00  8.00000000E-01  8.00000000E-01  1.50000000E+00
  1.50000000E+00  8.00000000E-01  8.00000000E-01  1.50000000E+00  1.50000000E+00
  8.00000000E-01  8.00000000E-01  1.50000000E+00  1.50000000E+00  8.00000000E-01
  8.00000000E-01  1.50000000E+00  1.50000000E+00  8.00000000E-01  8.00000000E-01
  1.50000000E+00  1.50000000E+00  8.00000000E-01  8.00000000E-01  1.50000000E+00
  1.50000000E+00  8.00000000E-01  8.00000000E-01  1.50000000E+00  1.50000000E+00
  8.00000000E-01  8.00000000E-01  1.50000000E+00  1.50000000E+00  8.00000000E-01
  8.00000000E-01  1.50000000E+00  1.50000000E+00  8.00000000E-01  8.00000000E-01
  1.50000000E+00  1.50000000E+00  8.00000000E-01  8.00000000E-01  1.50000000E+00
  1.50000000E+00  8.00000000E-01  8.00000000E-01  1.50000000E+00  1.50000000E+00
  8.00000000E-01  8.00000000E-01  1.50000000E+00  1.50000000E+00  8.00000000E-01
  8.00000000E-01  1.50000000E+00  1.50000000E+00  8.00000000E-01  8.00000000E-01
  1.50000000E+00  1.50000000E+00  8.00000000E-01  8.00000000E-01  1.50000000E+00
  1.50000000E+00  8.00000000E-01  8.00000000E-01  1.50000000E+00  1.50000000E+00
  8.00000000E-01  8.00000000E-01  1.50000000E+00  1.50000000E+00  8.00000000E-01
  8.00000000E-01  1.50000000E+00  1.50000000E+00  8.00000000E-01  8.00000000E-01
  1.50000000E+00  1.50000000E+00  8.00000000E-01  8.00000000E-01  1.50000000E+00
  1.50000000E+00  8.00000000E-01  8.00000000E-01  1.50000000E+00  1.50000000E+00
  8.00000000E-01  8.00000000E-01  1.50000000E+00  1.50000000E+00  8.00000000E-01
  8.00000000E-01  1.50000000E+00  1.50000000E+00  8.00000000E-01  8.00000000E-01
  1.50000000E+00  1.50000000E+00  8.00000000E-01  8.00000000E-01  1.50000000E+00
  1.50000000E+00  8.00000000E-01  8.00000000E-01  1.50000000E+00  1.50000000E+00
  8.00000000E-01  8.00000000E-01  1.50000000E+00  1.50000000E+00  8.00000000E-01
  8.00000000E-01  1.50000000E+00  1.50000000E+00  8.00000000E-01  8.00000000E-01
  1.50000000E+00  1.50000000E+00  8.00000000E-01  8.00000000E-01  1.50000000E+00
  1.50000000E+00  8.00000000E-01  8.00000000E-01  1.50000000E+00  1.50000000E+00
  8.00000000E-01  8.00000000E-01  1.50000000E+00  1.50000000E+00  8.00000000E-01
  8.00000000E-01  1.50000000E+00  1.50000000E+00  8.00000000E-01  8.00000000E-01
  1.50000000E+00  1.50000000E+00  8.00000000E-01  8.00000000E-01  1.50000000E+00
  1.50000000E+00  8.00000000E-01  8.00000000E-01  1.50000000E+00  1.50000000E+00
  8.00000000E-01  8.00000000E-01  1.50000000E+00  1.50000000E+00  8.00000000E-01
  8.00000000E-01  1.50000000E+00  1.50000000E+00  8.00000000E-01  8.00000000E-01
  1.50000000E+00  1.50000000E+00  8.00000000E-01  8.00000000E-01  1.50000000E+00
  1.50000000E+00  8.00000000E-01  8.00000000E-01  1.50000000E+00  1.50000000E+00
  8.00000000E-01  8.00000000E-01  1.50000000E+00  1.50000000E+00  8.00000000E-01
  8.00000000E-01  1.50000000E+00  1.50000000E+00  8.00000000E-01  8.00000000E-01
  1.50000000E+00  1.50000000E+00  8.00000000E-01  8.00000000E-01  1.50000000E+00
  1.50000000E+00  8.00000000E-01  8.00000000E-01  1.50000000E+00  1.50000000E+00
  8.00000000E-01  8.00000000E-01  1.50000000E+00  1.50000000E+00  8.00000000E-01
  8.00000000E-01  1.50000000E+00  1.50000000E+00  8.00000000E-01  8.00000000E-01
  1.50000000E+00  1.50000000E+00  8.00000000E-01  8.00000000E-01  1.50000000E+00
  1.50000000E+00  8.00000000E-01  8.00000000E-01  1.50000000E+00  1.50000000E+00
  8.00000000E-01  8.00000000E-01  1.50000000E+00  1.50000000E+00  8.00000000E-01
  8.00000000E-01  1.50000000E+00  1.50000000E+00  8.00000000E-01  8.00000000E-01
  1.50000000E+00  1.50000000E+00  8.00000000E-01  8.00000000E-01  1.50000000E+00
  1.50000000E+00  8.00000000E-01  8.00000000E-01  1.50000000E+00  1.50000000E+00
  8.00000000E-01  8.00000000E-01  1.50000000E+00  1.50000000E+00  8.00000000E-01
  8.00000000E-01  1.50000000E+00  1.50000000E+00  8.00000000E-01  8.00000000E-01
  1.50000000E+00  1.50000000E+00  8.00000000E-01  8.00000000E-01  1.50000000E+00
  1.50000000E+00  8.00000000E-01  8.00000000E-01  1.50000000E+00  1.50000000E+00
  8.00000000E-01  8.00000000E-01  1.50000000E+00  1.50000000E+00  8.00000000E-01
  8.00000000E-01  1.50000000E+00  1.50000000E+00  8.00000000E-01  8.00000000E-01
  1.50000000E+00  1.50000000E+00  8.00000000E-01  8.00000000E-01  1.50000000E+00
  1.50000000E+00  8.00000000E-01  8.00000000E-01  1.50000000E+00  1.50000000E+00
  8.00000000E-01  8.00000000E-01  1.50000000E+00  1.50000000E+00  8.00000000E-01
  8.00000000E-01  1.50000000E+00  1.50000000E+00  8.00000000E-01  8.00000000E-01
  1.50000000E+00  1.50000000E+00  8.00000000E-01  8.00000000E-01  1.50000000E+00
  1.50000000E+00  8.00000000E-01  8.00000000E-01  1.50000000E+00  1.50000000E+00
  8.00000000E-01  8.00000000E-01  1.50000000E+00  1.50000000E+00  8.00000000E-01
  8.00000000E-01  1.50000000E+00  1.50000000E+00  8.00000000E-01  8.00000000E-01
  1.50000000E+00  1.50000000E+00  8.00000000E-01  8.00000000E-01  1.50000000E+00
  1.50000000E+00  8.00000000E-01  8.00000000E-01  1.50000000E+00  1.50000000E+00
  8.00000000E-01  8.00000000E-01  1.50000000E+00  1.50000000E+00  8.00000000E-01
  8.00000000E-01  1.50000000E+00  1.50000000E+00  8.00000000E-01  8.00000000E-01
  1.50000000E+00  1.50000000E+00  8.00000000E-01  8.00000000E-01  1.50000000E+00
  1.50000000E+00  8.00000000E-01  8.00000000E-01  1.50000000E+00  1.50000000E+00
  8.00000000E-01  8.00000000E-01  1.50000000E+00  1.50000000E+00  8.00000000E-01
  8.00000000E-01  1.50000000E+00  1.50000000E+00  8.00000000E-01  8.00000000E-01
  1.50000000E+00  1.50000000E+00  8.00000000E-01  8.00000000E-01  1.50000000E+00
  1.50000000E+00  8.00000000E-01  8.00000000E-01  1.50000000E+00  1.50000000E+00
  8.00000000E-01  8.00000000E-01  1.50000000E+00  1.50000000E+00  8.00000000E-01
  8.00000000E-01  1.50000000E+00  1.50000000E+00  8.00000000E-01  8.00000000E-01
  1.50000000E+00  1.50000000E+00  8.00000000E-01  8.00000000E-01  1.50000000E+00
  1.50000000E+00  8.00000000E-01  8.00000000E-01  1.50000000E+00  1.50000000E+00
  8.00000000E-01  8.00000000E-01  1.50000000E+00  1.50000000E+00  8.00000000E-01
  8.00000000E-01  1.50000000E+00  1.50000000E+00  8.00000000E-01  8.00000000E-01
  1.50000000E+00  1.50000000E+00  8.00000000E-01  8.00000000E-01  1.50000000E+00
  1.50000000E+00  8.00000000E-01  8.00000000E-01  1.50000000E+00  1.50000000E+00
  8.00000000E-01  8.00000000E-01  1.50000000E+00  1.50000000E+00  8.00000000E-01
  8.00000000E-01  1.50000000E+00  1.50000000E+00  8.00000000E-01  8.00000000E-01
  1.50000000E+00  1.50000000E+00  8.00000000E-01  8.00000000E-01  1.50000000E+00
  1.50000000E+00  8.00000000E-01  8.00000000E-01  1.50000000E+00  1.50000000E+00
  8.00000000E-01  8.00000000E-01  1.50000000E+00  1.50000000E+00  8.00000000E-01
  8.00000000E-01  1.50000000E+00  1.50000000E+00  8.00000000E-01  8.00000000E-01
  1.50000000E+00  1.50000000E+00  8.00000000E-01  8.00000000E-01  1.50000000E+00
  1.50000000E+00  8.00000000E-01  8.00000000E-01  1.50000000E+00  1.50000000E+00
  8.00000000E-01  8.00000000E-01  1.50000000E+00  1.50000000E+00  8.00000000E-01
  8.00000000E-01  1.50000000E+00  1.50000000E+00  8.00000000E-01  8.00000000E-01
  1.50000000E+00  1.50000000E+00  8.00000000E-01  8.00000000E-01  1.50000000E+00
  1.50000000E+00  8.00000000E-01  8.00000000E-01  1.50000000E+00  1.50000000E+00
  8.00000000E-01  8.00000000E-01  1.50000000E+00  1.50000000E+00  8.00000000E-01
  8.00000000E-01  1.50000000E+00  1.50000000E+00  8.00000000E-01  8.00000000E-01
  1.50000000E+00  1.50000000E+00  8.00000000E-01  8.00000000E-01  1.50000000E+00
  1.50000000E+00  8.00000000E-01  8.00000000E-01  1.50000000E+00  1.50000000E+00
  8.00000000E-01  8.00000000E-01  1.50000000E+00  1.50000000E+00  8.00000000E-01
  8.00000000E-01  1.50000000E+00  1.50000000E+00  8.00000000E-01  8.00000000E-01
  1.50000000E+00  1.50000000E+00  8.00000000E-01  8.00000000E-01  1.50000000E+00
  1.50000000E+00  8.00000000E-01  8.00000000E-01  1.50000000E+00  1.50000000E+00
  8.00000000E-01  8.00000000E-01  1.50000000E+00  1.50000000E+00  8.00000000E-01
  8.00000000E-01  1.50000000E+00  1.50000000E+00  8.00000000E-01  8.00000000E-01
  1.50000000E+00  1.50000000E+00  8.00000000E-01  8.00000000E-01  1.50000000E+00
  1.50000000E+00  8.00000000E-01  8.00000000E-01  1.50000000E+00  1.50000000E+00
  8.00000000E-01  8.00000000E-01  1.50000000E+00  1.50000000E+00  8.00000000E-01
  8.00000000E-01  1.50000000E+00  1.50000000E+00  8.00000000E-01  8.00000000E-01
  1.50000000E+00  1.50000000E+00  8.00000000E-01  8.00000000E-01  1.50000000E+00
  1.50000000E+00  8.00000000E-01  8.00000000E-01  1.50000000E+00  1.50000000E+00
  8.00000000E-01  8.00000000E-01  1.50000000E+00  1.50000000E+00  8.00000000E-01
  8.00000000E-01  1.50000000E+00  1.50000000E+00  8.00000000E-01  8.00000000E-01
  1.50000000E+00  1.50000000E+00  8.00000000E-01  8.00000000E-01  1.50000000E+00
  1.50000000E+00  8.00000000E-01  8.00000000E-01  1.50000000E+00  1.50000000E+00
  8.00000000E-01  8.00000000E-01  1.50000000E+00  1.50000000E+00  8.00000000E-01
  8.00000000E-01  1.50000000E+00  1.50000000E+00  8.00000000E-01  8.00000000E-01
  1.50000000E+00  1.50000000E+00  8.00000000E-01  8.00000000E-01  1.50000000E+00
  1.50000000E+00  8.00000000E-01  8.00000000E-01  1.50000000E+00  1.50000000E+00
  8.00000000E-01  8.00000000E-01  1.50000000E+00  1.50000000E+00  8.00000000E-01
  8.00000000E-01  1.50000000E+00  1.50000000E+00  8.00000000E-01  8.00000000E-01
  1.50000000E+00  1.50000000E+00  8.00000000E-01  8.00000000E-01  1.50000000E+00
  1.50000000E+00  8.00000000E-01  8.00000000E-01  1.50000000E+00  1.50000000E+00
  8.00000000E-01  8.00000000E-01  1.50000000E+00  1.50000000E+00  8.00000000E-01
  8.00000000E-01  1.50000000E+00  1.50000000E+00  8.00000000E-01  8.00000000E-01
  1.50000000E+00  1.50000000E+00  8.00000000E-01  8.00000000E-01  1.50000000E+00
  1.50000000E+00  8.00000000E-01  8.00000000E-01  1.50000000E+00  1.50000000E+00
  8.00000000E-01  8.00000000E-01  1.50000000E+00  1.50000000E+00  8.00000000E-01
  8.00000000E-01  1.50000000E+00  1.50000000E+00  8.00000000E-01  8.00000000E-01
  1.50000000E+00  1.50000000E+00  8.00000000E-01  8.00000000E-01  1.50000000E+00
  1.50000000E+00  8.00000000E-01  8.00000000E-01  1.50000000E+00  1.50000000E+00
  8.00000000E-01  8.00000000E-01  1.50000000E+00  1.50000000E+00  8.00000000E-01
  8.00000000E-01  1.50000000E+00  1.50000000E+00  8.00000000E-01  8.00000000E-01
  1.50000000E+00  1.50000000E+00  8.00000000E-01  8.00000000E-01  1.50000000E+00
  1.50000000E+00  8.00000000E-01  8.00000000E-01  1.50000000E+00  1.50000000E+00
  8.00000000E-01  8.00000000E-01  1.50000000E+00  1.50000000E+00  8.00000000E-01
  8.00000000E-01  1.50000000E+00  1.50000000E+00  8.00000000E-01  8.00000000E-01
  1.50000000E+00  1.50000000E+00  8.00000000E-01  8.00000000E-01  1.50000000E+00
  1.50000000E+00  8.00000000E-01  8.00000000E-01  1.50000000E+00  1.50000000E+00
  8.00000000E-01  8.00000000E-01  1.50000000E+00  1.50000000E+00  8.00000000E-01
  8.00000000E-01  1.50000000E+00  1.50000000E+00  8.00000000E-01  8.00000000E-01
  1.50000000E+00  1.50000000E+00  8.00000000E-01  8.00000000E-01  1.50000000E+00
  1.50000000E+00  8.00000000E-01  8.00000000E-01  1.50000000E+00  1.50000000E+00
  8.00000000E-01  8.00000000E-01  1.50000000E+00  1.50000000E+00  8.00000000E-01
  8.00000000E-01  1.50000000E+00  1.50000000E+00  8.00000000E-01  8.00000000E-01
  1.50000000E+00  1.50000000E+00  8.00000000E-01  8.00000000E-01  1.50000000E+00
  1.50000000E+00  8.00000000E-01  8.00000000E-01  1.50000000E+00  1.50000000E+00
  8.00000000E-01  8.00000000E-01  1.50000000E+00  1.50000000E+00  8.00000000E-01
  8.00000000E-01  1.50000000E+00  1.50000000E+00  8.00000000E-01  8.00000000E-01
  1.50000000E+00  1.50000000E+00  8.00000000E-01  8.00000000E-01  1.50000000E+00
  1.50000000E+00  8.00000000E-01  8.00000000E-01  1.50000000E+00  1.50000000E+00
  8.00000000E-01  8.00000000E-01  1.50000000E+00  1.50000000E+00  8.00000000E-01
  8.00000000E-01  1.50000000E+00  1.50000000E+00  8.00000000E-01  8.00000000E-01
  1.50000000E+00  1.50000000E+00  8.00000000E-01  8.00000000E-01  1.50000000E+00
  1.50000000E+00  8.00000000E-01  8.00000000E-01  1.50000000E+00  1.50000000E+00
  8.00000000E-01  8.00000000E-01  1.50000000E+00  1.50000000E+00  8.00000000E-01
  8.00000000E-01  1.50000000E+00  1.50000000E+00  8.00000000E-01  8.00000000E-01
  1.50000000E+00  1.50000000E+00  8.00000000E-01  8.00000000E-01  1.50000000E+00
  1.50000000E+00  8.00000000E-01  8.00000000E-01  1.50000000E+00  1.50000000E+00
  8.00000000E-01  8.00000000E-01  1.50000000E+00  1.50000000E+00  8.00000000E-01
  8.00000000E-01  1.50000000E+00  1.50000000E+00  8.00000000E-01  8.00000000E-01
  1.50000000E+00  1.50000000E+00  8.00000000E-01  8.00000000E-01  1.50000000E+00
  1.50000000E+00  8.00000000E-01  8.00000000E-01  1.50000000E+00  1.50000000E+00
  8.00000000E-01  8.00000000E-01  1.50000000E+00  1.50000000E+00  8.00000000E-01
  8.00000000E-01  1.50000000E+00  1.50000000E+00  8.00000000E-01  8.00000000E-01
  1.50000000E+00  1.50000000E+00  8.00000000E-01  8.00000000E-01  1.50000000E+00
  1.50000000E+00  8.00000000E-01  8.00000000E-01  1.50000000E+00  1.50000000E+00
  8.00000000E-01  8.00000000E-01  1.50000000E+00  1.50000000E+00  8.00000000E-01
  8.00000000E-01  1.50000000E+00  1.50000000E+00  8.00000000E-01  8.00000000E-01
  1.50000000E+00  1.50000000E+00  8.00000000E-01  8.00000000E-01  1.50000000E+00
  1.50000000E+00  8.00000000E-01  8.00000000E-01  1.50000000E+00  1.50000000E+00
  8.00000000E-01  8.00000000E-01  1.50000000E+00  1.50000000E+00  8.00000000E-01
  8.00000000E-01  1.50000000E+00  1.50000000E+00  8.00000000E-01  8.00000000E-01
  1.50000000E+00  1.50000000E+00  8.00000000E-01  8.00000000E-01  1.50000000E+00
  1.50000000E+00  8.00000000E-01  8.00000000E-01  1.50000000E+00  1.50000000E+00
  8.00000000E-01  8.00000000E-01  1.50000000E+00  1.50000000E+00  8.00000000E-01
  8.00000000E-01  1.50000000E+00  1.50000000E+00  8.00000000E-01  8.00000000E-01
  1.50000000E+00  1.50000000E+00  8.00000000E-01  8.00000000E-01  1.50000000E+00
  1.50000000E+00  8.00000000E-01  8.00000000E-01  1.50000000E+00  1.50000000E+00
  8.00000000E-01  8.00000000E-01  1.50000000E+00  1.50000000E+00  8.00000000E-01
  8.00000000E-01  1.50000000E+00  1.50000000E+00  8.00000000E-01  8.00000000E-01
  1.50000000E+00  1.50000000E+00  8.00000000E-01  8.00000000E-01  1.50000000E+00
  1.50000000E+00  8.00000000E-01  8.00000000E-01  1.50000000E+00  1.50000000E+00
  8.00000000E-01  8.00000000E-01  1.50000000E+00  1.50000000E+00  8.00000000E-01
  8.00000000E-01  1.50000000E+00  1.50000000E+00  8.00000000E-01  8.00000000E-01
  1.50000000E+00  1.50000000E+00  8.00000000E-01  8.00000000E-01  1.50000000E+00
  1.50000000E+00  8.00000000E-01  8.00000000E-01  1.50000000E+00  1.50000000E+00
  8.00000000E-01  8.00000000E-01  1.50000000E+00  1.50000000E+00  8.00000000E-01
  8.00000000E-01  1.50000000E+00  1.50000000E+00  8.00000000E-01  8.00000000E-01
  1.50000000E+00  1.50000000E+00  8.00000000E-01  8.00000000E-01  1.50000000E+00
  1.50000000E+00  8.00000000E-01  8.00000000E-01  1.50000000E+00  1.50000000E+00
  8.00000000E-01  8.00000000E-01  1.50000000E+00  1.50000000E+00  8.00000000E-01
  8.00000000E-01  1.50000000E+00  1.50000000E+00  8.00000000E-01  8.00000000E-01
  1.50000000E+00  1.50000000E+00  8.00000000E-01  8.00000000E-01  1.50000000E+00
  1.50000000E+00  8.00000000E-01  8.00000000E-01  1.50000000E+00  1.50000000E+00
  8.00000000E-01  8.00000000E-01  1.50000000E+00  1.50000000E+00  8.00000000E-01
  8.00000000E-01  1.50000000E+00  1.50000000E+00  8.00000000E-01  8.00000000E-01
  1.50000000E+00  1.50000000E+00  8.00000000E-01  8.00000000E-01  1.50000000E+00
  1.50000000E+00  8.00000000E-01  8.00000000E-01  1.50000000E+00  1.50000000E+00
  8.00000000E-01  8.00000000E-01  1.50000000E+00  1.50000000E+00  8.00000000E-01
  8.00000000E-01  1.50000000E+00  1.50000000E+00  8.00000000E-01  8.00000000E-01
  1.50000000E+00  1.50000000E+00  8.00000000E-01  8.00000000E-01  1.50000000E+00
  1.50000000E+00  8.00000000E-01  8.00000000E-01  1.50000000E+00  1.50000000E+00
  8.00000000E-01  8.00000000E-01  1.50000000E+00  1.50000000E+00  8.00000000E-01
  8.00000000E-01  1.50000000E+00  1.50000000E+00  8.00000000E-01  8.00000000E-01
  1.50000000E+00  1.50000000E+00  8.00000000E-01  8.00000000E-01  1.50000000E+00
  1.50000000E+00  8.00000000E-01  8.00000000E-01  1.50000000E+00  1.50000000E+00
  8.00000000E-01  8.00000000E-01  1.50000000E+00  1.50000000E+00  8.00000000E-01
  8.00000000E-01  1.50000000E+00  1.50000000E+00  8.00000000E-01  8.00000000E-01
  1.50000000E+00  1.50000000E+00  8.00000000E-01  8.00000000E-01  1.50000000E+00
  1.50000000E+00  8.00000000E-01  8.00000000E-01  1.50000000E+00  1.50000000E+00
  8.00000000E-01  8.00000000E-01  1.50000000E+00  1.50000000E+00  8.00000000E-01
  8.00000000E-01  1.50000000E+00  1.50000000E+00  8.00000000E-01  8.00000000E-01
  1.50000000E+00  1.50000000E+00  8.00000000E-01  8.00000000E-01  1.50000000E+00
  1.50000000E+00  8.00000000E-01  8.00000000E-01  1.50000000E+00  1.50000000E+00
  8.00000000E-01  8.00000000E-01  1.50000000E+00  1.50000000E+00  8.00000000E-01
  8.00000000E-01  1.50000000E+00  1.50000000E+00  8.00000000E-01  8.00000000E-01
  1.50000000E+00  1.50000000E+00  8.00000000E-01  8.00000000E-01  1.50000000E+00
  1.50000000E+00  8.00000000E-01  8.00000000E-01  1.50000000E+00  1.50000000E+00
  8.00000000E-01  8.00000000E-01  1.50000000E+00  1.50000000E+00  8.00000000E-01
  8.00000000E-01  1.50000000E+00  1.50000000E+00  8.00000000E-01  8.00000000E-01
  1.50000000E+00  1.50000000E+00  8.00000000E-01  8.00000000E-01  1.50000000E+00
  1.50000000E+00  8.00000000E-01  8.00000000E-01  1.50000000E+00  1.50000000E+00
  8.00000000E-01  8.00000000E-01  1.50000000E+00  1.50000000E+00  8.00000000E-01
  8.00000000E-01  1.50000000E+00  1.50000000E+00  8.00000000E-01  8.00000000E-01
  1.50000000E+00  1.50000000E+00  8.00000000E-01  8.00000000E-01  1.50000000E+00
  1.50000000E+00  8.00000000E-01  8.00000000E-01  1.50000000E+00  1.50000000E+00
  8.00000000E-01  8.00000000E-01  1.50000000E+00  1.50000000E+00  8.00000000E-01
  8.00000000E-01  1.50000000E+00  1.50000000E+00  8.00000000E-01  8.00000000E-01
  1.50000000E+00  1.50000000E+00  8.00000000E-01  8.00000000E-01  1.50000000E+00
  1.50000000E+00  8.00000000E-01  8.00000000E-01  1.50000000E+00  1.50000000E+00
  8.00000000E-01  8.00000000E-01  1.50000000E+00  1.50000000E+00  8.00000000E-01
  8.00000000E-01  1.50000000E+00  1.50000000E+00  8.00000000E-01  8.00000000E-01
  1.50000000E+00  1.50000000E+00  8.00000000E-01  8.00000000E-01  1.50000000E+00
  1.50000000E+00  8.00000000E-01  8.00000000E-01  1.50000000E+00  1.50000000E+00
  8.00000000E-01  8.00000000E-01  1.50000000E+00  1.50000000E+00  8.00000000E-01
  8.00000000E-01  1.50000000E+00  1.50000000E+00  8.00000000E-01  8.00000000E-01
  1.50000000E+00  1.50000000E+00  8.00000000E-01  8.00000000E-01  1.50000000E+00
  1.50000000E+00  8.00000000E-01  8.00000000E-01  1.50000000E+00  1.50000000E+00
  8.00000000E-01  8.00000000E-01  1.50000000E+00  1.50000000E+00  8.00000000E-01
  8.00000000E-01  1.50000000E+00  1.50000000E+00  8.00000000E-01  8.00000000E-01
  1.50000000E+00  1.50000000E+00  8.00000000E-01  8.00000000E-01  1.50000000E+00
  1.50000000E+00  8.00000000E-01  8.00000000E-01  1.50000000E+00  1.50000000E+00
  8.00000000E-01  8.00000000E-01  1.50000000E+00  1.50000000E+00  8.00000000E-01
  8.00000000E-01  1.50000000E+00  1.50000000E+00  8.00000000E-01  8.00000000E-01
  1.50000000E+00  1.50000000E+00  8.00000000E-01  8.00000000E-01  1.50000000E+00
  1.50000000E+00  8.00000000E-01  8.00000000E-01  1.50000000E+00  1.50000000E+00
  8.00000000E-01  8.00000000E-01  1.50000000E+00  1.50000000E+00  8.00000000E-01
  8.00000000E-01  1.50000000E+00  1.50000000E+00  8.00000000E-01  8.00000000E-01
  1.50000000E+00  1.50000000E+00  8.00000000E-01  8.00000000E-01  1.50000000E+00
  1.50000000E+00  8.00000000E-01  8.00000000E-01  1.50000000E+00  1.50000000E+00
  8.00000000E-01  8.00000000E-01  1.50000000E+00  1.50000000E+00  8.00000000E-01
  8.00000000E-01  1.50000000E+00  1.50000000E+00  8.00000000E-01  8.00000000E-01
  1.50000000E+00  1.50000000E+00  8.00000000E-01  8.00000000E-01  1.50000000E+00
  1.50000000E+00  8.00000000E-01  8.00000000E-01  1.50000000E+00  1.50000000E+00
  8.00000000E-01  8.00000000E-01  1.50000000E+00  1.50000000E+00  8.00000000E-01
  8.00000000E-01  1.50000000E+00  1.50000000E+00  8.00000000E-01  8.00000000E-01
  1.50000000E+00  1.50000000E+00  8.00000000E-01  8.00000000E-01  1.50000000E+00
  1.50000000E+00  8.00000000E-01  8.00000000E-01  1.50000000E+00  1.50000000E+00
  8.00000000E-01  8.00000000E-01  1.50000000E+00  1.50000000E+00  8.00000000E-01
  8.00000000E-01  1.50000000E+00  1.50000000E+00  8.00000000E-01  8.00000000E-01
  1.50000000E+00  1.50000000E+00  8.00000000E-01  8.00000000E-01  1.50000000E+00
  1.50000000E+00  8.00000000E-01  8.00000000E-01  1.50000000E+00  1.50000000E+00
  8.00000000E-01  8.00000000E-01  1.50000000E+00  1.50000000E+00  8.00000000E-01
  8.00000000E-01  1.50000000E+00  1.50000000E+00  8.00000000E-01  8.00000000E-01
  1.50000000E+00  1.50000000E+00  8.00000000E-01  8.00000000E-01  1.50000000E+00
  1.50000000E+00  8.00000000E-01  8.00000000E-01  1.50000000E+00  1.50000000E+00
  8.00000000E-01  8.00000000E-01  1.50000000E+00  1.50000000E+00  8.00000000E-01
  8.00000000E-01  1.50000000E+00  1.50000000E+00  8.00000000E-01  8.00000000E-01
  1.50000000E+00  1.50000000E+00  8.00000000E-01  8.00000000E-01  1.50000000E+00
  1.50000000E+00  8.00000000E-01  8.00000000E-01  1.50000000E+00  1.50000000E+00
  8.00000000E-01  8.00000000E-01  1.50000000E+00  1.50000000E+00  8.00000000E-01
  8.00000000E-01  1.50000000E+00  1.50000000E+00  8.00000000E-01  8.00000000E-01
  1.50000000E+00  1.50000000E+00  8.00000000E-01  8.00000000E-01  1.50000000E+00
  1.50000000E+00  8.00000000E-01  8.00000000E-01  1.50000000E+00  1.50000000E+00
  8.00000000E-01  8.00000000E-01  1.50000000E+00  1.50000000E+00  8.00000000E-01
  8.00000000E-01  1.50000000E+00  1.50000000E+00  8.00000000E-01  8.00000000E-01
  1.50000000E+00  1.50000000E+00  8.00000000E-01  8.00000000E-01  1.50000000E+00
  1.50000000E+00  8.00000000E-01  8.00000000E-01  1.50000000E+00  1.50000000E+00
  8.00000000E-01  8.00000000E-01  1.50000000E+00  1.50000000E+00  8.00000000E-01
  8.00000000E-01  1.50000000E+00  1.50000000E+00  8.00000000E-01  8.00000000E-01
  1.50000000E+00  1.50000000E+00  8.00000000E-01  8.00000000E-01  1.50000000E+00
  1.50000000E+00  8.00000000E-01  8.00000000E-01  1.50000000E+00  1.50000000E+00
  8.00000000E-01  8.00000000E-01  1.50000000E+00  1.50000000E+00  8.00000000E-01
  8.00000000E-01  1.50000000E+00  1.50000000E+00  8.00000000E-01  8.00000000E-01
  1.50000000E+00  1.50000000E+00  8.00000000E-01  8.00000000E-01  1.50000000E+00
  1.50000000E+00  8.00000000E-01  8.00000000E-01  1.50000000E+00  1.50000000E+00
  8.00000000E-01  8.00000000E-01  1.50000000E+00  1.50000000E+00  8.00000000E-01
  8.00000000E-01  1.50000000E+00  1.50000000E+00  8.00000000E-01  8.00000000E-01
  1.50000000E+00  1.50000000E+00  8.00000000E-01  8.00000000E-01  1.50000000E+00
  1.50000000E+00  8.00000000E-01  8.00000000E-01  1.50000000E+00  1.50000000E+00
  8.00000000E-01  8.00000000E-01  1.50000000E+00  1.50000000E+00  8.00000000E-01
  8.00000000E-01  1.50000000E+00  1.50000000E+00  8.00000000E-01  8.00000000E-01
  1.50000000E+00  1.50000000E+00  8.00000000E-01  8.00000000E-01  1.50000000E+00
  1.50000000E+00  8.00000000E-01  8.00000000E-01  1.50000000E+00  1.50000000E+00
  8.00000000E-01  8.00000000E-01  1.50000000E+00  1.50000000E+00  8.00000000E-01
  8.00000000E-01  1.50000000E+00  1.50000000E+00  8.00000000E-01  8.00000000E-01
  1.50000000E+00  1.50000000E+00  8.00000000E-01  8.00000000E-01  1.50000000E+00
  1.50000000E+00  8.00000000E-01  8.00000000E-01  1.50000000E+00  1.50000000E+00
  8.00000000E-01  8.00000000E-01  1.50000000E+00  1.50000000E+00  8.00000000E-01
  8.00000000E-01  1.50000000E+00  1.50000000E+00  8.00000000E-01  8.00000000E-01
  1.50000000E+00  1.50000000E+00  8.00000000E-01  8.00000000E-01  1.50000000E+00
  1.50000000E+00  8.00000000E-01  8.00000000E-01  1.50000000E+00  1.50000000E+00
  8.00000000E-01  8.00000000E-01  1.50000000E+00  1.50000000E+00  8.00000000E-01
  8.00000000E-01  1.50000000E+00  1.50000000E+00  8.00000000E-01  8.00000000E-01
  1.50000000E+00  1.50000000E+00  8.00000000E-01  8.00000000E-01  1.50000000E+00
  1.50000000E+00  8.00000000E-01  8.00000000E-01  1.50000000E+00  1.50000000E+00
  8.00000000E-01  8.00000000E-01  1.50000000E+00  1.50000000E+00  8.00000000E-01
  8.00000000E-01  1.50000000E+00  1.50000000E+00  8.00000000E-01  8.00000000E-01
  1.50000000E+00  1.50000000E+00  8.00000000E-01  8.00000000E-01  1.50000000E+00
  1.50000000E+00  8.00000000E-01  8.00000000E-01  1.50000000E+00  1.50000000E+00
  8.00000000E-01  8.00000000E-01  1.50000000E+00  1.50000000E+00  8.00000000E-01
  8.00000000E-01  1.50000000E+00  1.50000000E+00  8.00000000E-01  8.00000000E-01
  1.50000000E+00  1.50000000E+00  8.00000000E-01  8.00000000E-01  1.50000000E+00
  1.50000000E+00  8.00000000E-01  8.00000000E-01  1.50000000E+00  1.50000000E+00
  8.00000000E-01  8.00000000E-01  1.50000000E+00  1.50000000E+00  8.00000000E-01
  8.00000000E-01  1.50000000E+00  1.50000000E+00  8.00000000E-01  8.00000000E-01
  1.50000000E+00  1.50000000E+00  8.00000000E-01  8.00000000E-01  1.50000000E+00
  1.50000000E+00  8.00000000E-01  8.00000000E-01  1.50000000E+00  1.50000000E+00
  8.00000000E-01  8.00000000E-01  1.50000000E+00  1.50000000E+00  8.00000000E-01
  8.00000000E-01  1.50000000E+00  1.50000000E+00  8.00000000E-01  8.00000000E-01
  1.50000000E+00  1.50000000E+00  8.00000000E-01  8.00000000E-01  1.50000000E+00
  1.50000000E+00  8.00000000E-01  8.00000000E-01  1.50000000E+00  1.50000000E+00
  8.00000000E-01  8.00000000E-01  1.50000000E+00  1.50000000E+00  8.00000000E-01
  8.00000000E-01  1.50000000E+00  1.50000000E+00  8.00000000E-01  8.00000000E-01
  1.50000000E+00  1.50000000E+00  8.00000000E-01  8.00000000E-01  1.50000000E+00
  1.50000000E+00  8.00000000E-01  8.00000000E-01  1.50000000E+00  1.50000000E+00
  8.00000000E-01  8.00000000E-01  1.50000000E+00  1.50000000E+00  8.00000000E-01
  8.00000000E-01  1.50000000E+00  1.50000000E+00  8.00000000E-01  8.00000000E-01
  1.50000000E+00  1.50000000E+00  8.00000000E-01  8.00000000E-01  1.50000000E+00
  1.50000000E+00  8.00000000E-01  8.00000000E-01  1.50000000E+00  1.50000000E+00
  8.00000000E-01  8.00000000E-01  1.50000000E+00  1.50000000E+00  8.00000000E-01
  8.00000000E-01  1.50000000E+00  1.50000000E+00  8.00000000E-01  8.00000000E-01
  1.50000000E+00  1.50000000E+00  8.00000000E-01  8.00000000E-01  1.50000000E+00
  1.50000000E+00  8.00000000E-01  8.00000000E-01  1.50000000E+00  1.50000000E+00
  8.00000000E-01  8.00000000E-01  1.50000000E+00  1.50000000E+00  8.00000000E-01
  8.00000000E-01  1.50000000E+00  1.50000000E+00  8.00000000E-01  8.00000000E-01
  1.50000000E+00  1.50000000E+00  8.00000000E-01  8.00000000E-01  1.50000000E+00
  1.50000000E+00  8.00000000E-01  8.00000000E-01  1.50000000E+00  1.50000000E+00
  8.00000000E-01  8.00000000E-01  1.50000000E+00  1.50000000E+00  8.00000000E-01
  8.00000000E-01  1.50000000E+00  1.50000000E+00  8.00000000E-01  8.00000000E-01
  1.50000000E+00  1.50000000E+00  8.00000000E-01  8.00000000E-01  1.50000000E+00
  1.50000000E+00  8.00000000E-01  8.00000000E-01  1.50000000E+00  1.50000000E+00
  8.00000000E-01  8.00000000E-01  1.50000000E+00  1.50000000E+00  8.00000000E-01
  8.00000000E-01  1.50000000E+00  1.50000000E+00  8.00000000E-01  8.00000000E-01
  1.50000000E+00  1.50000000E+00  8.00000000E-01  8.00000000E-01  1.50000000E+00
  1.50000000E+00  8.00000000E-01  8.00000000E-01  1.50000000E+00  1.50000000E+00
  8.00000000E-01  8.00000000E-01  1.50000000E+00  1.50000000E+00  8.00000000E-01
  8.00000000E-01  1.50000000E+00  1.50000000E+00  8.00000000E-01  8.00000000E-01
  1.50000000E+00  1.50000000E+00  8.00000000E-01  8.00000000E-01  1.50000000E+00
  1.50000000E+00  8.00000000E-01  8.00000000E-01  1.50000000E+00  1.50000000E+00
  8.00000000E-01  8.00000000E-01  1.50000000E+00  1.50000000E+00  8.00000000E-01
  8.00000000E-01  1.50000000E+00  1.50000000E+00  8.00000000E-01  8.00000000E-01
  1.50000000E+00  1.50000000E+00  8.00000000E-01  8.00000000E-01  1.50000000E+00
  1.50000000E+00  8.00000000E-01  8.00000000E-01  1.50000000E+00  1.50000000E+00
  8.00000000E-01  8.00000000E-01  1.50000000E+00  1.50000000E+00  8.00000000E-01
  8.00000000E-01  1.50000000E+00  1.50000000E+00  8.00000000E-01  8.00000000E-01
  1.50000000E+00  1.50000000E+00  8.00000000E-01  8.00000000E-01  1.50000000E+00
  1.50000000E+00  8.00000000E-01  8.00000000E-01  1.50000000E+00  1.50000000E+00
  8.00000000E-01  8.00000000E-01  1.50000000E+00  1.50000000E+00  8.00000000E-01
  8.00000000E-01  1.50000000E+00  1.50000000E+00  8.00000000E-01  8.00000000E-01
  1.50000000E+00  1.50000000E+00  8.00000000E-01  8.00000000E-01  1.50000000E+00
  1.50000000E+00  8.00000000E-01  8.00000000E-01  1.50000000E+00  1.50000000E+00
  8.00000000E-01  8.00000000E-01  1.50000000E+00  1.50000000E+00  8.00000000E-01
  8.00000000E-01  1.50000000E+00  1.50000000E+00  8.00000000E-01  8.00000000E-01
  1.50000000E+00  1.50000000E+00  8.00000000E-01  8.00000000E-01  1.50000000E+00
  1.50000000E+00  8.00000000E-01  8.00000000E-01  1.50000000E+00  1.50000000E+00
  8.00000000E-01  8.00000000E-01  1.50000000E+00  1.50000000E+00  8.00000000E-01
  8.00000000E-01  1.50000000E+00  1.50000000E+00  8.00000000E-01  8.00000000E-01
  1.50000000E+00  1.50000000E+00  8.00000000E-01  8.00000000E-01  1.50000000E+00
  1.50000000E+00  8.00000000E-01  8.00000000E-01  1.50000000E+00  1.50000000E+00
  8.00000000E-01  8.00000000E-01  1.50000000E+00  1.50000000E+00  8.00000000E-01
  8.00000000E-01  1.50000000E+00  1.50000000E+00  8.00000000E-01  8.00000000E-01
  1.50000000E+00  1.50000000E+00  8.00000000E-01  8.00000000E-01  1.50000000E+00
  1.50000000E+00  8.00000000E-01  8.00000000E-01  1.50000000E+00  1.50000000E+00
  8.00000000E-01  8.00000000E-01  1.50000000E+00  1.50000000E+00  8.00000000E-01
  8.00000000E-01  1.50000000E+00  1.50000000E+00  8.00000000E-01  8.00000000E-01
  1.50000000E+00  1.50000000E+00  8.00000000E-01  8.00000000E-01  1.50000000E+00
  1.50000000E+00  8.00000000E-01  8.00000000E-01  1.50000000E+00  1.50000000E+00
  8.00000000E-01  8.00000000E-01  1.50000000E+00  1.50000000E+00  8.00000000E-01
  8.00000000E-01  1.50000000E+00  1.50000000E+00  8.00000000E-01  8.00000000E-01
  1.50000000E+00  1.50000000E+00  8.00000000E-01  8.00000000E-01  1.50000000E+00
  1.50000000E+00  8.00000000E-01  8.00000000E-01  1.50000000E+00  1.50000000E+00
  8.00000000E-01  8.00000000E-01  1.50000000E+00  1.50000000E+00  8.00000000E-01
  8.00000000E-01  1.50000000E+00  1.50000000E+00  8.00000000E-01  8.00000000E-01
  1.50000000E+00  1.50000000E+00  8.00000000E-01  8.00000000E-01  1.50000000E+00
  1.50000000E+00  8.00000000E-01  8.00000000E-01  1.50000000E+00  1.50000000E+00
  8.00000000E-01  8.00000000E-01  1.50000000E+00  1.50000000E+00  8.00000000E-01
  8.00000000E-01  1.50000000E+00  1.50000000E+00  8.00000000E-01  8.00000000E-01
  1.50000000E+00  1.50000000E+00  8.00000000E-01  8.00000000E-01  1.50000000E+00
  1.50000000E+00  8.00000000E-01  8.00000000E-01  1.50000000E+00  1.50000000E+00
  8.00000000E-01  8.00000000E-01  1.50000000E+00  1.50000000E+00  8.00000000E-01
  8.00000000E-01  1.50000000E+00  1.50000000E+00  8.00000000E-01  8.00000000E-01
  1.50000000E+00  1.50000000E+00  8.00000000E-01  8.00000000E-01  1.50000000E+00
  1.50000000E+00  8.00000000E-01  8.00000000E-01  1.50000000E+00  1.50000000E+00
  8.00000000E-01  8.00000000E-01  1.50000000E+00  1.50000000E+00  8.00000000E-01
  8.00000000E-01  1.50000000E+00  1.50000000E+00  8.00000000E-01  8.00000000E-01
  1.50000000E+00  1.50000000E+00  8.00000000E-01  8.00000000E-01  1.50000000E+00
  1.50000000E+00  8.00000000E-01  8.00000000E-01  1.50000000E+00  1.50000000E+00
  8.00000000E-01  8.00000000E-01  1.50000000E+00  1.50000000E+00  8.00000000E-01
  8.00000000E-01  1.50000000E+00  1.50000000E+00  8.00000000E-01  8.00000000E-01
  1.50000000E+00  1.50000000E+00  8.00000000E-01  8.00000000E-01  1.50000000E+00
  1.50000000E+00  8.00000000E-01  8.00000000E-01  1.50000000E+00  1.50000000E+00
  8.00000000E-01  8.00000000E-01  1.50000000E+00  1.50000000E+00  8.00000000E-01
  8.00000000E-01  1.50000000E+00  1.50000000E+00  8.00000000E-01  8.00000000E-01
  1.50000000E+00  1.50000000E+00  8.00000000E-01  8.00000000E-01  1.50000000E+00
  1.50000000E+00  8.00000000E-01  8.00000000E-01  1.50000000E+00  1.50000000E+00
  8.00000000E-01  8.00000000E-01  1.50000000E+00  1.50000000E+00  8.00000000E-01
  8.00000000E-01  1.50000000E+00  1.50000000E+00  8.00000000E-01  8.00000000E-01
  1.50000000E+00  1.50000000E+00  8.00000000E-01  8.00000000E-01  1.50000000E+00
  1.50000000E+00  8.00000000E-01  8.00000000E-01  1.50000000E+00  1.50000000E+00
  8.00000000E-01  8.00000000E-01  1.50000000E+00  1.50000000E+00  8.00000000E-01
  8.00000000E-01  1.50000000E+00  1.50000000E+00  8.00000000E-01  8.00000000E-01
  1.50000000E+00  1.50000000E+00  8.00000000E-01  8.00000000E-01  1.50000000E+00
  1.50000000E+00  8.00000000E-01  8.00000000E-01  1.50000000E+00  1.50000000E+00
  8.00000000E-01  8.00000000E-01  1.50000000E+00  1.50000000E+00  8.00000000E-01
  8.00000000E-01  1.50000000E+00  1.50000000E+00  8.00000000E-01  8.00000000E-01
  1.50000000E+00  1.50000000E+00  8.00000000E-01  8.00000000E-01  1.50000000E+00
  1.50000000E+00  8.00000000E-01  8.00000000E-01  1.50000000E+00  1.50000000E+00
  8.00000000E-01  8.00000000E-01  1.50000000E+00  1.50000000E+00  8.00000000E-01
  8.00000000E-01  1.50000000E+00  1.50000000E+00  8.00000000E-01  8.00000000E-01
  1.50000000E+00  1.50000000E+00  8.00000000E-01  8.00000000E-01  1.50000000E+00
  1.50000000E+00  8.00000000E-01  8.00000000E-01  1.50000000E+00  1.50000000E+00
  8.00000000E-01  8.00000000E-01  1.50000000E+00  1.50000000E+00  8.00000000E-01
  8.00000000E-01  1.50000000E+00  1.50000000E+00  8.00000000E-01  8.00000000E-01
  1.50000000E+00  1.50000000E+00  8.00000000E-01  8.00000000E-01  1.50000000E+00
  1.50000000E+00  8.00000000E-01  8.00000000E-01  1.50000000E+00  1.50000000E+00
  8.00000000E-01  8.00000000E-01  1.50000000E+00  1.50000000E+00  8.00000000E-01
  8.00000000E-01  1.50000000E+00  1.50000000E+00  8.00000000E-01  8.00000000E-01
  1.50000000E+00  1.50000000E+00  8.00000000E-01  8.00000000E-01  1.50000000E+00
  1.50000000E+00  8.00000000E-01  8.00000000E-01  1.50000000E+00  1.50000000E+00
  8.00000000E-01  8.00000000E-01  1.50000000E+00  1.50000000E+00  8.00000000E-01
  8.00000000E-01  1.50000000E+00  1.50000000E+00  8.00000000E-01  8.00000000E-01
  1.50000000E+00  1.50000000E+00  8.00000000E-01  8.00000000E-01  1.50000000E+00
  1.50000000E+00  8.00000000E-01  8.00000000E-01  1.50000000E+00  1.50000000E+00
  8.00000000E-01  8.00000000E-01  1.50000000E+00  1.50000000E+00  8.00000000E-01
  8.00000000E-01  1.50000000E+00  1.50000000E+00  8.00000000E-01  8.00000000E-01
  1.50000000E+00  1.50000000E+00  8.00000000E-01  8.00000000E-01  1.50000000E+00
  1.50000000E+00  8.00000000E-01  8.00000000E-01  1.50000000E+00  1.50000000E+00
  8.00000000E-01  8.00000000E-01  1.50000000E+00  1.50000000E+00  8.00000000E-01
  8.00000000E-01  1.50000000E+00  1.50000000E+00  8.00000000E-01  8.00000000E-01
  1.50000000E+00  1.50000000E+00  8.00000000E-01  8.00000000E-01  1.50000000E+00
  1.50000000E+00  8.00000000E-01  8.00000000E-01  1.50000000E+00  1.50000000E+00
  8.00000000E-01  8.00000000E-01  1.50000000E+00  1.50000000E+00  8.00000000E-01
  8.00000000E-01  1.50000000E+00  1.50000000E+00  8.00000000E-01  8.00000000E-01
  1.50000000E+00  1.50000000E+00  8.00000000E-01  8.00000000E-01  1.50000000E+00
  1.50000000E+00  8.00000000E-01  8.00000000E-01  1.50000000E+00  1.50000000E+00
  8.00000000E-01  8.00000000E-01  1.50000000E+00  1.50000000E+00  8.00000000E-01
  8.00000000E-01  1.50000000E+00  1.50000000E+00  8.00000000E-01  8.00000000E-01
  1.50000000E+00  1.50000000E+00  8.00000000E-01  8.00000000E-01  1.50000000E+00
  1.50000000E+00  8.00000000E-01  8.00000000E-01  1.50000000E+00  1.50000000E+00
  8.00000000E-01  8.00000000E-01  1.50000000E+00  1.50000000E+00  8.00000000E-01
  8.00000000E-01  1.50000000E+00  1.50000000E+00  8.00000000E-01  8.00000000E-01
  1.50000000E+00  1.50000000E+00  8.00000000E-01  8.00000000E-01  1.50000000E+00
  1.50000000E+00  8.00000000E-01  8.00000000E-01  1.50000000E+00  1.50000000E+00
  8.00000000E-01  8.00000000E-01  1.50000000E+00  1.50000000E+00  8.00000000E-01
  8.00000000E-01  1.50000000E+00  1.50000000E+00  8.00000000E-01  8.00000000E-01
  1.50000000E+00  1.50000000E+00  8.00000000E-01  8.00000000E-01  1.50000000E+00
  1.50000000E+00  8.00000000E-01  8.00000000E-01  1.50000000E+00  1.50000000E+00
  8.00000000E-01  8.00000000E-01  1.50000000E+00  1.50000000E+00  8.00000000E-01
  8.00000000E-01  1.50000000E+00  1.50000000E+00  8.00000000E-01  8.00000000E-01
  1.50000000E+00  1.50000000E+00  8.00000000E-01  8.00000000E-01  1.50000000E+00
  1.50000000E+00  8.00000000E-01  8.00000000E-01  1.50000000E+00  1.50000000E+00
  8.00000000E-01  8.00000000E-01  1.50000000E+00  1.50000000E+00  8.00000000E-01
  8.00000000E-01  1.50000000E+00  1.50000000E+00  8.00000000E-01  8.00000000E-01
  1.50000000E+00  1.50000000E+00  8.00000000E-01  8.00000000E-01  1.50000000E+00
  1.50000000E+00  8.00000000E-01  8.00000000E-01  1.50000000E+00  1.50000000E+00
  8.00000000E-01  8.00000000E-01  1.50000000E+00  1.50000000E+00  8.00000000E-01
  8.00000000E-01  1.50000000E+00  1.50000000E+00  8.00000000E-01  8.00000000E-01
  1.50000000E+00  1.50000000E+00  8.00000000E-01  8.00000000E-01  1.50000000E+00
  1.50000000E+00  8.00000000E-01  8.00000000E-01  1.50000000E+00  1.50000000E+00
  8.00000000E-01  8.00000000E-01  1.50000000E+00  1.50000000E+00  8.00000000E-01
  8.00000000E-01  1.50000000E+00  1.50000000E+00  8.00000000E-01  8.00000000E-01
  1.50000000E+00  1.50000000E+00  8.00000000E-01  8.00000000E-01  1.50000000E+00
  1.50000000E+00  8.00000000E-01  8.00000000E-01  1.50000000E+00  1.50000000E+00
  8.00000000E-01  8.00000000E-01  1.50000000E+00  1.50000000E+00  8.00000000E-01
  8.00000000E-01  1.50000000E+00  1.50000000E+00  8.00000000E-01  8.00000000E-01
  1.50000000E+00  1.50000000E+00  8.00000000E-01  8.00000000E-01  1.50000000E+00
  1.50000000E+00  8.00000000E-01  8.00000000E-01  1.50000000E+00  1.50000000E+00
  8.00000000E-01  8.00000000E-01  1.50000000E+00  1.50000000E+00  8.00000000E-01
  8.00000000E-01  1.50000000E+00  1.50000000E+00  8.00000000E-01  8.00000000E-01
  1.50000000E+00  1.50000000E+00  8.00000000E-01  8.00000000E-01  1.50000000E+00
  1.50000000E+00  8.00000000E-01  8.00000000E-01  1.50000000E+00  1.50000000E+00
  8.00000000E-01  8.00000000E-01  1.50000000E+00  1.50000000E+00  8.00000000E-01
  8.00000000E-01  1.50000000E+00  1.50000000E+00  8.00000000E-01  8.00000000E-01
  1.50000000E+00  1.50000000E+00  8.00000000E-01  8.00000000E-01  1.50000000E+00
  1.50000000E+00  8.00000000E-01  8.00000000E-01  1.50000000E+00  1.50000000E+00
  8.00000000E-01  8.00000000E-01  1.50000000E+00  1.50000000E+00  8.00000000E-01
  8.00000000E-01  1.50000000E+00  1.50000000E+00  8.00000000E-01  8.00000000E-01
  1.50000000E+00  1.50000000E+00  8.00000000E-01  8.00000000E-01  1.50000000E+00
  1.50000000E+00  8.00000000E-01  8.00000000E-01  1.50000000E+00  1.50000000E+00
  8.00000000E-01  8.00000000E-01  1.50000000E+00  1.50000000E+00  8.00000000E-01
  8.00000000E-01  1.50000000E+00  1.50000000E+00  8.00000000E-01  8.00000000E-01
  1.50000000E+00  1.50000000E+00  8.00000000E-01  8.00000000E-01  1.50000000E+00
  1.50000000E+00  8.00000000E-01  8.00000000E-01  1.50000000E+00  1.50000000E+00
  8.00000000E-01  8.00000000E-01  1.50000000E+00  1.50000000E+00  8.00000000E-01
  8.00000000E-01  1.50000000E+00  1.50000000E+00  8.00000000E-01  8.00000000E-01
  1.50000000E+00  1.50000000E+00  8.00000000E-01  8.00000000E-01  1.50000000E+00
  1.50000000E+00  8.00000000E-01  8.00000000E-01  1.50000000E+00  1.50000000E+00
  8.00000000E-01  8.00000000E-01  1.50000000E+00  1.50000000E+00  8.00000000E-01
  8.00000000E-01  1.50000000E+00  1.50000000E+00  8.00000000E-01  8.00000000E-01
  1.50000000E+00  1.50000000E+00  8.00000000E-01  8.00000000E-01  1.50000000E+00
  1.50000000E+00  8.00000000E-01  8.00000000E-01  1.50000000E+00  1.50000000E+00
  8.00000000E-01  8.00000000E-01  1.50000000E+00  1.50000000E+00  8.00000000E-01
  8.00000000E-01  1.50000000E+00  1.50000000E+00  8.00000000E-01  8.00000000E-01
  1.50000000E+00  1.50000000E+00  8.00000000E-01  8.00000000E-01  1.50000000E+00
  1.50000000E+00  8.00000000E-01  8.00000000E-01  1.50000000E+00  1.50000000E+00
  8.00000000E-01  8.00000000E-01  1.50000000E+00  1.50000000E+00  8.00000000E-01
  8.00000000E-01  1.50000000E+00  1.50000000E+00  8.00000000E-01  8.00000000E-01
  1.50000000E+00  1.50000000E+00  8.00000000E-01  8.00000000E-01  1.50000000E+00
  1.50000000E+00  8.00000000E-01  8.00000000E-01  1.50000000E+00  1.50000000E+00
  8.00000000E-01  8.00000000E-01  1.50000000E+00  1.50000000E+00  8.00000000E-01
  8.00000000E-01  1.50000000E+00  1.50000000E+00  8.00000000E-01  8.00000000E-01
  1.50000000E+00  1.50000000E+00  8.00000000E-01  8.00000000E-01  1.50000000E+00
  1.50000000E+00  8.00000000E-01  8.00000000E-01  1.50000000E+00  1.50000000E+00
  8.00000000E-01  8.00000000E-01  1.50000000E+00  1.50000000E+00  8.00000000E-01
  8.00000000E-01  1.50000000E+00  1.50000000E+00  8.00000000E-01  8.00000000E-01
  1.50000000E+00  1.50000000E+00  8.00000000E-01  8.00000000E-01  1.50000000E+00
  1.50000000E+00  8.00000000E-01  8.00000000E-01  1.50000000E+00  1.50000000E+00
  8.00000000E-01  8.00000000E-01  1.50000000E+00  1.50000000E+00  8.00000000E-01
  8.00000000E-01  1.50000000E+00  1.50000000E+00  8.00000000E-01  8.00000000E-01
  1.50000000E+00  1.50000000E+00  8.00000000E-01  8.00000000E-01  1.50000000E+00
  1.50000000E+00  8.00000000E-01  8.00000000E-01  1.50000000E+00  1.50000000E+00
  8.00000000E-01  8.00000000E-01  1.50000000E+00  1.50000000E+00  8.00000000E-01
  8.00000000E-01  1.50000000E+00  1.50000000E+00  8.00000000E-01  8.00000000E-01
  1.50000000E+00  1.50000000E+00  8.00000000E-01  8.00000000E-01  1.50000000E+00
  1.50000000E+00  8.00000000E-01  8.00000000E-01  1.50000000E+00  1.50000000E+00
  8.00000000E-01  8.00000000E-01  1.50000000E+00  1.50000000E+00  8.00000000E-01
  8.00000000E-01  1.50000000E+00  1.50000000E+00  8.00000000E-01  8.00000000E-01
  1.50000000E+00  1.50000000E+00  8.00000000E-01  8.00000000E-01  1.50000000E+00
  1.50000000E+00  8.00000000E-01  8.00000000E-01  1.50000000E+00  1.50000000E+00
  8.00000000E-01  8.00000000E-01  1.50000000E+00  1.50000000E+00  8.00000000E-01
  8.00000000E-01  1.50000000E+00  1.50000000E+00  8.00000000E-01  8.00000000E-01
  1.50000000E+00  1.50000000E+00  8.00000000E-01  8.00000000E-01  1.50000000E+00
  1.50000000E+00  8.00000000E-01  8.00000000E-01  1.50000000E+00  1.50000000E+00
  8.00000000E-01  8.00000000E-01  1.50000000E+00  1.50000000E+00  8.00000000E-01
  8.00000000E-01  1.50000000E+00  1.50000000E+00  8.00000000E-01  8.00000000E-01
  1.50000000E+00  1.50000000E+00  8.00000000E-01  8.00000000E-01  1.50000000E+00
  1.50000000E+00  8.00000000E-01  8.00000000E-01  1.50000000E+00  1.50000000E+00
  8.00000000E-01  8.00000000E-01  1.50000000E+00  1.50000000E+00  8.00000000E-01
  8.00000000E-01  1.50000000E+00  1.50000000E+00  8.00000000E-01  8.00000000E-01
  1.50000000E+00  1.50000000E+00  8.00000000E-01  8.00000000E-01  1.50000000E+00
  1.50000000E+00  8.00000000E-01  8.00000000E-01  1.50000000E+00  1.50000000E+00
  8.00000000E-01  8.00000000E-01  1.50000000E+00  1.50000000E+00  8.00000000E-01
  8.00000000E-01  1.50000000E+00  1.50000000E+00  8.00000000E-01  8.00000000E-01
  1.50000000E+00  1.50000000E+00  8.00000000E-01  8.00000000E-01  1.50000000E+00
  1.50000000E+00  8.00000000E-01  8.00000000E-01  1.50000000E+00  1.50000000E+00
  8.00000000E-01  8.00000000E-01  1.50000000E+00  1.50000000E+00  8.00000000E-01
  8.00000000E-01  1.50000000E+00  1.50000000E+00  8.00000000E-01  8.00000000E-01
  1.50000000E+00  1.50000000E+00  8.00000000E-01  8.00000000E-01  1.50000000E+00
  1.50000000E+00  8.00000000E-01  8.00000000E-01  1.50000000E+00  1.50000000E+00
  8.00000000E-01  8.00000000E-01  1.50000000E+00  1.50000000E+00  8.00000000E-01
  8.00000000E-01  1.50000000E+00  1.50000000E+00  8.00000000E-01  8.00000000E-01
  1.50000000E+00  1.50000000E+00  8.00000000E-01  8.00000000E-01  1.50000000E+00
  1.50000000E+00  8.00000000E-01  8.00000000E-01  1.50000000E+00  1.50000000E+00
  8.00000000E-01  8.00000000E-01  1.50000000E+00  1.50000000E+00  8.00000000E-01
  8.00000000E-01  1.50000000E+00  1.50000000E+00  8.00000000E-01  8.00000000E-01
  1.50000000E+00  1.50000000E+00  8.00000000E-01  8.00000000E-01  1.50000000E+00
  1.50000000E+00  8.00000000E-01  8.00000000E-01  1.50000000E+00  1.50000000E+00
  8.00000000E-01  8.00000000E-01  1.50000000E+00  1.50000000E+00  8.00000000E-01
  8.00000000E-01  1.50000000E+00  1.50000000E+00  8.00000000E-01  8.00000000E-01
  1.50000000E+00  1.50000000E+00  8.00000000E-01  8.00000000E-01  1.50000000E+00
  1.50000000E+00  8.00000000E-01  8.00000000E-01  1.50000000E+00  1.50000000E+00
  8.00000000E-01  8.00000000E-01  1.50000000E+00  1.50000000E+00  8.00000000E-01
  8.00000000E-01  1.50000000E+00  1.50000000E+00  8.00000000E-01  8.00000000E-01
  1.50000000E+00  1.50000000E+00  8.00000000E-01  8.00000000E-01  1.50000000E+00
  1.50000000E+00  8.00000000E-01  8.00000000E-01  1.50000000E+00  1.50000000E+00
  8.00000000E-01  8.00000000E-01  1.50000000E+00  1.50000000E+00  8.00000000E-01
  8.00000000E-01  1.50000000E+00  1.50000000E+00  8.00000000E-01  8.00000000E-01
  1.50000000E+00  1.50000000E+00  8.00000000E-01  8.00000000E-01  1.50000000E+00
  1.50000000E+00  8.00000000E-01  8.00000000E-01  1.50000000E+00  1.50000000E+00
  8.00000000E-01  8.00000000E-01  1.50000000E+00  1.50000000E+00  8.00000000E-01
  8.00000000E-01  1.50000000E+00  1.50000000E+00  8.00000000E-01  8.00000000E-01
  1.50000000E+00  1.50000000E+00  8.00000000E-01  8.00000000E-01  1.50000000E+00
  1.50000000E+00  8.00000000E-01  8.00000000E-01  1.50000000E+00  1.50000000E+00
  8.00000000E-01  8.00000000E-01  1.50000000E+00  1.50000000E+00  8.00000000E-01
  8.00000000E-01  1.50000000E+00  1.50000000E+00  8.00000000E-01  8.00000000E-01
  1.50000000E+00  1.50000000E+00  8.00000000E-01  8.00000000E-01  1.50000000E+00
  1.50000000E+00  8.00000000E-01  8.00000000E-01  1.50000000E+00  1.50000000E+00
  8.00000000E-01  8.00000000E-01  1.50000000E+00  1.50000000E+00  8.00000000E-01
  8.00000000E-01  1.50000000E+00  1.50000000E+00  8.00000000E-01  8.00000000E-01
  1.50000000E+00  1.50000000E+00  8.00000000E-01  8.00000000E-01  1.50000000E+00
  1.50000000E+00  8.00000000E-01  8.00000000E-01  1.50000000E+00  1.50000000E+00
  8.00000000E-01  8.00000000E-01  1.50000000E+00  1.50000000E+00  8.00000000E-01
  8.00000000E-01  1.50000000E+00  1.50000000E+00  8.00000000E-01  8.00000000E-01
  1.50000000E+00  1.50000000E+00  8.00000000E-01  8.00000000E-01  1.50000000E+00
  1.50000000E+00  8.00000000E-01  8.00000000E-01  1.50000000E+00  1.50000000E+00
  8.00000000E-01  8.00000000E-01  1.50000000E+00  1.50000000E+00  8.00000000E-01
  8.00000000E-01  1.50000000E+00  1.50000000E+00  8.00000000E-01  8.00000000E-01
  1.50000000E+00  1.50000000E+00  8.00000000E-01  8.00000000E-01  1.50000000E+00
  1.50000000E+00  8.00000000E-01  8.00000000E-01  1.50000000E+00  1.50000000E+00
  8.00000000E-01  8.00000000E-01  1.50000000E+00  1.50000000E+00  8.00000000E-01
  8.00000000E-01  1.50000000E+00  1.50000000E+00  8.00000000E-01  8.00000000E-01
  1.50000000E+00  1.50000000E+00  8.00000000E-01  8.00000000E-01  1.50000000E+00
  1.50000000E+00  8.00000000E-01  8.00000000E-01  1.50000000E+00  1.50000000E+00
  8.00000000E-01  8.00000000E-01  1.50000000E+00  1.50000000E+00  8.00000000E-01
  8.00000000E-01  1.50000000E+00  1.50000000E+00  8.00000000E-01  8.00000000E-01
  1.50000000E+00  1.50000000E+00  8.00000000E-01  8.00000000E-01  1.50000000E+00
  1.50000000E+00  8.00000000E-01  8.00000000E-01  1.50000000E+00  1.50000000E+00
  8.00000000E-01  8.00000000E-01  1.50000000E+00  1.50000000E+00  8.00000000E-01
  8.00000000E-01  1.50000000E+00  1.50000000E+00  8.00000000E-01  8.00000000E-01
  1.50000000E+00  1.50000000E+00  8.00000000E-01  8.00000000E-01  1.50000000E+00
  1.50000000E+00  8.00000000E-01  8.00000000E-01  1.50000000E+00  1.50000000E+00
  8.00000000E-01  8.00000000E-01  1.50000000E+00  1.50000000E+00  8.00000000E-01
  8.00000000E-01  1.50000000E+00  1.50000000E+00  8.00000000E-01  8.00000000E-01
  1.50000000E+00  1.50000000E+00  8.00000000E-01  8.00000000E-01  1.50000000E+00
  1.50000000E+00  8.00000000E-01  8.00000000E-01  1.50000000E+00  1.50000000E+00
  8.00000000E-01  8.00000000E-01  1.50000000E+00  1.50000000E+00  8.00000000E-01
  8.00000000E-01  1.50000000E+00  1.50000000E+00  8.00000000E-01  8.00000000E-01
  1.50000000E+00  1.50000000E+00  8.00000000E-01  8.00000000E-01  1.50000000E+00
  1.50000000E+00  8.00000000E-01  8.00000000E-01  1.50000000E+00  1.50000000E+00
  8.00000000E-01  8.00000000E-01  1.50000000E+00  1.50000000E+00  8.00000000E-01
  8.00000000E-01  1.50000000E+00  1.50000000E+00  8.00000000E-01  8.00000000E-01
  1.50000000E+00  1.50000000E+00  8.00000000E-01  8.00000000E-01  1.50000000E+00
  1.50000000E+00  8.00000000E-01  8.00000000E-01  1.50000000E+00  1.50000000E+00
  8.00000000E-01  8.00000000E-01  1.50000000E+00  1.50000000E+00  8.00000000E-01
  8.00000000E-01  1.50000000E+00  1.50000000E+00  8.00000000E-01  8.00000000E-01
  1.50000000E+00  1.50000000E+00  8.00000000E-01  8.00000000E-01  1.50000000E+00
  1.50000000E+00  8.00000000E-01  8.00000000E-01  1.50000000E+00  1.50000000E+00
  8.00000000E-01  8.00000000E-01  1.50000000E+00  1.50000000E+00  8.00000000E-01
  8.00000000E-01  1.50000000E+00  1.50000000E+00  8.00000000E-01  8.00000000E-01
  1.50000000E+00  1.50000000E+00  8.00000000E-01  8.00000000E-01  1.50000000E+00
  1.50000000E+00  8.00000000E-01  8.00000000E-01  1.50000000E+00  1.50000000E+00
  8.00000000E-01  8.00000000E-01  1.50000000E+00  1.50000000E+00  8.00000000E-01
  8.00000000E-01  1.50000000E+00  1.50000000E+00  8.00000000E-01  8.00000000E-01
  1.50000000E+00  1.50000000E+00  8.00000000E-01  8.00000000E-01  1.50000000E+00
  1.50000000E+00  8.00000000E-01  8.00000000E-01  1.50000000E+00  1.50000000E+00
  8.00000000E-01  8.00000000E-01  1.50000000E+00  1.50000000E+00  8.00000000E-01
  8.00000000E-01  1.50000000E+00  1.50000000E+00  8.00000000E-01  8.00000000E-01
  1.50000000E+00  1.50000000E+00  8.00000000E-01  8.00000000E-01  1.50000000E+00
  1.50000000E+00  8.00000000E-01  8.00000000E-01  1.50000000E+00  1.50000000E+00
  8.00000000E-01  8.00000000E-01  1.50000000E+00  1.50000000E+00  8.00000000E-01
  8.00000000E-01  1.50000000E+00  1.50000000E+00  8.00000000E-01  8.00000000E-01
  1.50000000E+00  1.50000000E+00  8.00000000E-01  8.00000000E-01  1.50000000E+00
  1.50000000E+00  8.00000000E-01  8.00000000E-01  1.50000000E+00  1.50000000E+00
  8.00000000E-01  8.00000000E-01  1.50000000E+00  1.50000000E+00  8.00000000E-01
  8.00000000E-01  1.50000000E+00  1.50000000E+00  8.00000000E-01  8.00000000E-01
  1.50000000E+00  1.50000000E+00  8.00000000E-01  8.00000000E-01  1.50000000E+00
  1.50000000E+00  8.00000000E-01  8.00000000E-01  1.50000000E+00  1.50000000E+00
  8.00000000E-01  8.00000000E-01  1.50000000E+00  1.50000000E+00  8.00000000E-01
  8.00000000E-01  1.50000000E+00  1.50000000E+00  8.00000000E-01  8.00000000E-01
  1.50000000E+00  1.50000000E+00  8.00000000E-01  8.00000000E-01  1.50000000E+00
  1.50000000E+00  8.00000000E-01  8.00000000E-01  1.50000000E+00  1.50000000E+00
  8.00000000E-01  8.00000000E-01  1.50000000E+00  1.50000000E+00  8.00000000E-01
  8.00000000E-01  1.50000000E+00  1.50000000E+00  8.00000000E-01  8.00000000E-01
  1.50000000E+00  1.50000000E+00  8.00000000E-01  8.00000000E-01  1.50000000E+00
  1.50000000E+00  8.00000000E-01  8.00000000E-01  1.50000000E+00  1.50000000E+00
  8.00000000E-01  8.00000000E-01  1.50000000E+00  1.50000000E+00  8.00000000E-01
  8.00000000E-01  1.50000000E+00  1.50000000E+00  8.00000000E-01  8.00000000E-01
  1.50000000E+00  1.50000000E+00  8.00000000E-01  8.00000000E-01  1.50000000E+00
  1.50000000E+00  8.00000000E-01  8.00000000E-01  1.50000000E+00  1.50000000E+00
  8.00000000E-01  8.00000000E-01  1.50000000E+00  1.50000000E+00  8.00000000E-01
  8.00000000E-01  1.50000000E+00  1.50000000E+00  8.00000000E-01  8.00000000E-01
  1.50000000E+00  1.50000000E+00  8.00000000E-01  8.00000000E-01  1.50000000E+00
  1.50000000E+00  8.00000000E-01  8.00000000E-01  1.50000000E+00  1.50000000E+00
  8.00000000E-01  8.00000000E-01  1.50000000E+00  1.50000000E+00  8.00000000E-01
  8.00000000E-01  1.50000000E+00  1.50000000E+00  8.00000000E-01  8.00000000E-01
  1.50000000E+00  1.50000000E+00  8.00000000E-01  8.00000000E-01  1.50000000E+00
  1.50000000E+00  8.00000000E-01  8.00000000E-01  1.50000000E+00  1.50000000E+00
  8.00000000E-01  8.00000000E-01  1.50000000E+00  1.50000000E+00  8.00000000E-01
  8.00000000E-01  1.50000000E+00  1.50000000E+00  8.00000000E-01  8.00000000E-01
  1.50000000E+00  1.50000000E+00  8.00000000E-01  8.00000000E-01  1.50000000E+00
  1.50000000E+00  8.00000000E-01  8.00000000E-01  1.50000000E+00  1.50000000E+00
  8.00000000E-01  8.00000000E-01  1.50000000E+00  1.50000000E+00  8.00000000E-01
  8.00000000E-01  1.50000000E+00  1.50000000E+00  8.00000000E-01  8.00000000E-01
  1.50000000E+00  1.50000000E+00  8.00000000E-01  8.00000000E-01  1.50000000E+00
  1.50000000E+00  8.00000000E-01  8.00000000E-01  1.50000000E+00  1.50000000E+00
  8.00000000E-01  8.00000000E-01  1.50000000E+00  1.50000000E+00  8.00000000E-01
  8.00000000E-01  1.50000000E+00  1.50000000E+00  8.00000000E-01  8.00000000E-01
  1.50000000E+00  1.50000000E+00  8.00000000E-01  8.00000000E-01  1.50000000E+00
  1.50000000E+00  8.00000000E-01  8.00000000E-01  1.50000000E+00  1.50000000E+00
  8.00000000E-01  8.00000000E-01  1.50000000E+00  1.50000000E+00  8.00000000E-01
  8.00000000E-01  1.50000000E+00  1.50000000E+00  8.00000000E-01  8.00000000E-01
  1.50000000E+00  1.50000000E+00  8.00000000E-01  8.00000000E-01  1.50000000E+00
  1.50000000E+00  8.00000000E-01  8.00000000E-01  1.50000000E+00  1.50000000E+00
  8.00000000E-01  8.00000000E-01  1.50000000E+00  1.50000000E+00  8.00000000E-01
  8.00000000E-01  1.50000000E+00  1.50000000E+00  8.00000000E-01  8.00000000E-01
  1.50000000E+00  1.50000000E+00  8.00000000E-01  8.00000000E-01  1.50000000E+00
  1.50000000E+00  8.00000000E-01  8.00000000E-01  1.50000000E+00  1.50000000E+00
  8.00000000E-01  8.00000000E-01  1.50000000E+00  1.50000000E+00  8.00000000E-01
  8.00000000E-01  1.50000000E+00  1.50000000E+00  8.00000000E-01  8.00000000E-01
  1.50000000E+00  1.50000000E+00  8.00000000E-01  8.00000000E-01  1.50000000E+00
  1.50000000E+00  8.00000000E-01  8.00000000E-01  1.50000000E+00  1.50000000E+00
  8.00000000E-01  8.00000000E-01  1.50000000E+00  1.50000000E+00  8.00000000E-01
  8.00000000E-01  1.50000000E+00  1.50000000E+00  8.00000000E-01  8.00000000E-01
  1.50000000E+00  1.50000000E+00  8.00000000E-01  8.00000000E-01  1.50000000E+00
  1.50000000E+00  8.00000000E-01  8.00000000E-01  1.50000000E+00  1.50000000E+00
  8.00000000E-01  8.00000000E-01  1.50000000E+00  1.50000000E+00  8.00000000E-01
  8.00000000E-01  1.50000000E+00  1.50000000E+00  8.00000000E-01  8.00000000E-01
  1.50000000E+00  1.50000000E+00  8.00000000E-01  8.00000000E-01  1.50000000E+00
  1.50000000E+00  8.00000000E-01  8.00000000E-01  1.50000000E+00  1.50000000E+00
  8.00000000E-01  8.00000000E-01  1.50000000E+00  1.50000000E+00  8.00000000E-01
  8.00000000E-01  1.50000000E+00  1.50000000E+00  8.00000000E-01  8.00000000E-01
  1.50000000E+00  1.50000000E+00  8.00000000E-01  8.00000000E-01  1.50000000E+00
  1.50000000E+00  8.00000000E-01  8.00000000E-01  1.50000000E+00  1.50000000E+00
  8.00000000E-01  8.00000000E-01  1.50000000E+00  1.50000000E+00  8.00000000E-01
  8.00000000E-01  1.50000000E+00  1.50000000E+00  8.00000000E-01  8.00000000E-01
  1.50000000E+00  1.50000000E+00  8.00000000E-01  8.00000000E-01  1.50000000E+00
  1.50000000E+00  8.00000000E-01  8.00000000E-01  1.50000000E+00  1.50000000E+00
  8.00000000E-01  8.00000000E-01  1.50000000E+00  1.50000000E+00  8.00000000E-01
  8.00000000E-01  1.50000000E+00  1.50000000E+00  8.00000000E-01  8.00000000E-01
  1.50000000E+00  1.50000000E+00  8.00000000E-01  8.00000000E-01  1.50000000E+00
  1.50000000E+00  8.00000000E-01  8.00000000E-01  1.50000000E+00  1.50000000E+00
  8.00000000E-01  8.00000000E-01  1.50000000E+00  1.50000000E+00  8.00000000E-01
  8.00000000E-01  1.50000000E+00  1.50000000E+00  8.00000000E-01  8.00000000E-01
  1.50000000E+00  1.50000000E+00  8.00000000E-01  8.00000000E-01  1.50000000E+00
  1.50000000E+00  8.00000000E-01  8.00000000E-01  1.50000000E+00  1.50000000E+00
  8.00000000E-01  8.00000000E-01  1.50000000E+00  1.50000000E+00  8.00000000E-01
  8.00000000E-01  1.50000000E+00  1.50000000E+00  8.00000000E-01  8.00000000E-01
  1.50000000E+00  1.50000000E+00  8.00000000E-01  8.00000000E-01  1.50000000E+00
  1.50000000E+00  8.00000000E-01  8.00000000E-01  1.50000000E+00  1.50000000E+00
  8.00000000E-01  8.00000000E-01  1.50000000E+00  1.50000000E+00  8.00000000E-01
  8.00000000E-01  1.50000000E+00  1.50000000E+00  8.00000000E-01  8.00000000E-01
  1.50000000E+00  1.50000000E+00  8.00000000E-01  8.00000000E-01  1.50000000E+00
  1.50000000E+00  8.00000000E-01  8.00000000E-01  1.50000000E+00  1.50000000E+00
  8.00000000E-01  8.00000000E-01  1.50000000E+00  1.50000000E+00  8.00000000E-01
  8.00000000E-01  1.50000000E+00  1.50000000E+00  8.00000000E-01  8.00000000E-01
  1.50000000E+00  1.50000000E+00  8.00000000E-01  8.00000000E-01  1.50000000E+00
  1.50000000E+00  8.00000000E-01  8.00000000E-01  1.50000000E+00  1.50000000E+00
  8.00000000E-01  8.00000000E-01  1.50000000E+00  1.50000000E+00  8.00000000E-01
  8.00000000E-01  1.50000000E+00  1.50000000E+00  8.00000000E-01  8.00000000E-01
  1.50000000E+00  1.50000000E+00  8.00000000E-01  8.00000000E-01  1.50000000E+00
  1.50000000E+00  8.00000000E-01  8.00000000E-01  1.50000000E+00  1.50000000E+00
  8.00000000E-01  8.00000000E-01  1.50000000E+00  1.50000000E+00  8.00000000E-01
  8.00000000E-01  1.50000000E+00  1.50000000E+00  8.00000000E-01  8.00000000E-01
  1.50000000E+00  1.50000000E+00  8.00000000E-01  8.00000000E-01  1.50000000E+00
  1.50000000E+00  8.00000000E-01  8.00000000E-01  1.50000000E+00  1.50000000E+00
  8.00000000E-01  8.00000000E-01  1.50000000E+00  1.50000000E+00  8.00000000E-01
  8.00000000E-01  1.50000000E+00  1.50000000E+00  8.00000000E-01  8.00000000E-01
  1.50000000E+00  1.50000000E+00  8.00000000E-01  8.00000000E-01  1.50000000E+00
  1.50000000E+00  8.00000000E-01  8.00000000E-01  1.50000000E+00  1.50000000E+00
  8.00000000E-01  8.00000000E-01  1.50000000E+00  1.50000000E+00  8.00000000E-01
  8.00000000E-01  1.50000000E+00  1.50000000E+00  8.00000000E-01  8.00000000E-01
  1.50000000E+00  1.50000000E+00  8.00000000E-01  8.00000000E-01  1.50000000E+00
  1.50000000E+00  8.00000000E-01  8.00000000E-01  1.50000000E+00  1.50000000E+00
  8.00000000E-01  8.00000000E-01  1.50000000E+00  1.50000000E+00  8.00000000E-01
  8.00000000E-01  1.50000000E+00  1.50000000E+00  8.00000000E-01  8.00000000E-01
  1.50000000E+00  1.50000000E+00  8.00000000E-01  8.00000000E-01  1.50000000E+00
  1.50000000E+00  8.00000000E-01  8.00000000E-01  1.50000000E+00  1.50000000E+00
  8.00000000E-01  8.00000000E-01  1.50000000E+00  1.50000000E+00  8.00000000E-01
  8.00000000E-01  1.50000000E+00  1.50000000E+00  8.00000000E-01  8.00000000E-01
  1.50000000E+00  1.50000000E+00  8.00000000E-01  8.00000000E-01  1.50000000E+00
  1.50000000E+00  8.00000000E-01  8.00000000E-01  1.50000000E+00  1.50000000E+00
  8.00000000E-01  8.00000000E-01  1.50000000E+00  1.50000000E+00  8.00000000E-01
  8.00000000E-01  1.50000000E+00  1.50000000E+00  8.00000000E-01  8.00000000E-01
  1.50000000E+00  1.50000000E+00  8.00000000E-01  8.00000000E-01  1.50000000E+00
  1.50000000E+00  8.00000000E-01  8.00000000E-01  1.50000000E+00  1.50000000E+00
  8.00000000E-01  8.00000000E-01  1.50000000E+00  1.50000000E+00  8.00000000E-01
  8.00000000E-01  1.50000000E+00  1.50000000E+00  8.00000000E-01  8.00000000E-01
  1.50000000E+00  1.50000000E+00  8.00000000E-01  8.00000000E-01  1.50000000E+00
  1.50000000E+00  8.00000000E-01  8.00000000E-01  1.50000000E+00  1.50000000E+00
  8.00000000E-01  8.00000000E-01  1.50000000E+00  1.50000000E+00  8.00000000E-01
  8.00000000E-01  1.50000000E+00  1.50000000E+00  8.00000000E-01  8.00000000E-01
  1.50000000E+00  1.50000000E+00  8.00000000E-01  8.00000000E-01  1.50000000E+00
  1.50000000E+00  8.00000000E-01  8.00000000E-01  1.50000000E+00  1.50000000E+00
  8.00000000E-01  8.00000000E-01  1.50000000E+00  1.50000000E+00  8.00000000E-01
  8.00000000E-01  1.50000000E+00  1.50000000E+00  8.00000000E-01  8.00000000E-01
  1.50000000E+00  1.50000000E+00  8.00000000E-01  8.00000000E-01  1.50000000E+00
  1.50000000E+00  8.00000000E-01  8.00000000E-01  1.50000000E+00  1.50000000E+00
  8.00000000E-01  8.00000000E-01  1.50000000E+00  1.50000000E+00  8.00000000E-01
  8.00000000E-01  1.50000000E+00  1.50000000E+00  8.00000000E-01  8.00000000E-01
  1.50000000E+00  1.50000000E+00  8.00000000E-01  8.00000000E-01  1.50000000E+00
  1.50000000E+00  8.00000000E-01  8.00000000E-01  1.50000000E+00  1.50000000E+00
  8.00000000E-01  8.00000000E-01  1.50000000E+00  1.50000000E+00  8.00000000E-01
  8.00000000E-01  1.50000000E+00  1.50000000E+00  8.00000000E-01  8.00000000E-01
  1.50000000E+00  1.50000000E+00  8.00000000E-01  8.00000000E-01  1.50000000E+00
  1.50000000E+00  8.00000000E-01  8.00000000E-01  1.50000000E+00  1.50000000E+00
  8.00000000E-01  8.00000000E-01  1.50000000E+00  1.50000000E+00  8.00000000E-01
  8.00000000E-01  1.50000000E+00  1.50000000E+00  8.00000000E-01  8.00000000E-01
  1.50000000E+00  1.50000000E+00  8.00000000E-01  8.00000000E-01  1.50000000E+00
  1.50000000E+00  8.00000000E-01  8.00000000E-01  1.50000000E+00  1.50000000E+00
  8.00000000E-01  8.00000000E-01  1.50000000E+00  1.50000000E+00  8.00000000E-01
  8.00000000E-01  1.50000000E+00  1.50000000E+00  8.00000000E-01  8.00000000E-01
  1.50000000E+00  1.50000000E+00  8.00000000E-01  8.00000000E-01  1.50000000E+00
  1.50000000E+00  8.00000000E-01  8.00000000E-01  1.50000000E+00  1.50000000E+00
  8.00000000E-01  8.00000000E-01  1.50000000E+00  1.50000000E+00  8.00000000E-01
  8.00000000E-01  1.50000000E+00  1.50000000E+00  8.00000000E-01  8.00000000E-01
  1.50000000E+00  1.50000000E+00  8.00000000E-01  8.00000000E-01  1.50000000E+00
  1.50000000E+00  8.00000000E-01  8.00000000E-01  1.50000000E+00  1.50000000E+00
  8.00000000E-01  8.00000000E-01  1.50000000E+00  1.50000000E+00  8.00000000E-01
  8.00000000E-01  1.50000000E+00  1.50000000E+00  8.00000000E-01  8.00000000E-01
  1.50000000E+00  1.50000000E+00  8.00000000E-01  8.00000000E-01  1.50000000E+00
  1.50000000E+00  8.00000000E-01  8.00000000E-01  1.50000000E+00  1.50000000E+00
  8.00000000E-01  8.00000000E-01  1.50000000E+00  1.50000000E+00  8.00000000E-01
  8.00000000E-01  1.50000000E+00  1.50000000E+00  8.00000000E-01  8.00000000E-01
  1.50000000E+00  1.50000000E+00  8.00000000E-01  8.00000000E-01  1.50000000E+00
  1.50000000E+00  8.00000000E-01  8.00000000E-01  1.50000000E+00  1.50000000E+00
  8.00000000E-01  8.00000000E-01  1.50000000E+00  1.50000000E+00  8.00000000E-01
  8.00000000E-01  1.50000000E+00  1.50000000E+00  8.00000000E-01  8.00000000E-01
  1.50000000E+00  1.50000000E+00  8.00000000E-01  8.00000000E-01  1.50000000E+00
  1.50000000E+00  8.00000000E-01  8.00000000E-01  1.50000000E+00  1.50000000E+00
  8.00000000E-01  8.00000000E-01  1.50000000E+00  1.50000000E+00  8.00000000E-01
  8.00000000E-01  1.50000000E+00  1.50000000E+00  8.00000000E-01  8.00000000E-01
  1.50000000E+00  1.50000000E+00  8.00000000E-01  8.00000000E-01  1.50000000E+00
  1.50000000E+00  8.00000000E-01  8.00000000E-01  1.50000000E+00  1.50000000E+00
  8.00000000E-01  8.00000000E-01  1.50000000E+00  1.50000000E+00  8.00000000E-01
  8.00000000E-01  1.50000000E+00  1.50000000E+00  8.00000000E-01  8.00000000E-01
  1.50000000E+00  1.50000000E+00  8.00000000E-01  8.00000000E-01  1.50000000E+00
  1.50000000E+00  8.00000000E-01  8.00000000E-01  1.50000000E+00  1.50000000E+00
  8.00000000E-01  8.00000000E-01  1.50000000E+00  1.50000000E+00  8.00000000E-01
  8.00000000E-01  1.50000000E+00  1.50000000E+00  8.00000000E-01  8.00000000E-01
  1.50000000E+00  1.50000000E+00  8.00000000E-01  8.00000000E-01  1.50000000E+00
  1.50000000E+00  8.00000000E-01  8.00000000E-01  1.50000000E+00  1.50000000E+00
  8.00000000E-01  8.00000000E-01  1.50000000E+00  1.50000000E+00  8.00000000E-01
  8.00000000E-01  1.50000000E+00  1.50000000E+00  8.00000000E-01  8.00000000E-01
  1.50000000E+00  1.50000000E+00  8.00000000E-01  8.00000000E-01  1.50000000E+00
  1.50000000E+00  8.00000000E-01  8.00000000E-01  1.50000000E+00  1.50000000E+00
  8.00000000E-01  8.00000000E-01  1.50000000E+00  1.50000000E+00  8.00000000E-01
  8.00000000E-01  1.50000000E+00  1.50000000E+00  8.00000000E-01  8.00000000E-01
  1.50000000E+00  1.50000000E+00  8.00000000E-01  8.00000000E-01  1.50000000E+00
  1.50000000E+00  8.00000000E-01  8.00000000E-01  1.50000000E+00  1.50000000E+00
  8.00000000E-01  8.00000000E-01  1.50000000E+00  1.50000000E+00  8.00000000E-01
  8.00000000E-01  1.50000000E+00  1.50000000E+00  8.00000000E-01  8.00000000E-01
  1.50000000E+00  1.50000000E+00  8.00000000E-01  8.00000000E-01  1.50000000E+00
  1.50000000E+00  8.00000000E-01  8.00000000E-01  1.50000000E+00  1.50000000E+00
  8.00000000E-01  8.00000000E-01  1.50000000E+00  1.50000000E+00  8.00000000E-01
  8.00000000E-01  1.50000000E+00  1.50000000E+00  8.00000000E-01  8.00000000E-01
  1.50000000E+00  1.50000000E+00  8.00000000E-01  8.00000000E-01  1.50000000E+00
  1.50000000E+00  8.00000000E-01  8.00000000E-01  1.50000000E+00  1.50000000E+00
  8.00000000E-01  8.00000000E-01  1.50000000E+00  1.50000000E+00  8.00000000E-01
  8.00000000E-01  1.50000000E+00  1.50000000E+00  8.00000000E-01  8.00000000E-01
  1.50000000E+00  1.50000000E+00  8.00000000E-01  8.00000000E-01  1.50000000E+00
  1.50000000E+00  8.00000000E-01  8.00000000E-01  1.50000000E+00  1.50000000E+00
  8.00000000E-01  8.00000000E-01  1.50000000E+00  1.50000000E+00  8.00000000E-01
  8.00000000E-01  1.50000000E+00  1.50000000E+00  8.00000000E-01  8.00000000E-01
  1.50000000E+00  1.50000000E+00  8.00000000E-01  8.00000000E-01  1.50000000E+00
  1.50000000E+00  8.00000000E-01  8.00000000E-01  1.50000000E+00  1.50000000E+00
  8.00000000E-01  8.00000000E-01  1.50000000E+00  1.50000000E+00  8.00000000E-01
  8.00000000E-01  1.50000000E+00  1.50000000E+00  8.00000000E-01  8.00000000E-01
  1.50000000E+00  1.50000000E+00  8.00000000E-01  8.00000000E-01  1.50000000E+00
  1.50000000E+00  8.00000000E-01  8.00000000E-01  1.50000000E+00  1.50000000E+00
  8.00000000E-01  8.00000000E-01  1.50000000E+00  1.50000000E+00  8.00000000E-01
  8.00000000E-01  1.50000000E+00  1.50000000E+00  8.00000000E-01  8.00000000E-01
  1.50000000E+00  1.50000000E+00  8.00000000E-01  8.00000000E-01  1.50000000E+00
  1.50000000E+00  8.00000000E-01  8.00000000E-01  1.50000000E+00  1.50000000E+00
  8.00000000E-01  8.00000000E-01  1.50000000E+00  1.50000000E+00  8.00000000E-01
  8.00000000E-01  1.50000000E+00  1.50000000E+00  8.00000000E-01  8.00000000E-01
  1.50000000E+00  1.50000000E+00  8.00000000E-01  8.00000000E-01  1.50000000E+00
  1.50000000E+00  8.00000000E-01  8.00000000E-01  1.50000000E+00  1.50000000E+00
  8.00000000E-01  8.00000000E-01  1.50000000E+00  1.50000000E+00  8.00000000E-01
  8.00000000E-01  1.50000000E+00  1.50000000E+00  8.00000000E-01  8.00000000E-01
  1.50000000E+00  1.50000000E+00  8.00000000E-01  8.00000000E-01  1.50000000E+00
  1.50000000E+00  8.00000000E-01  8.00000000E-01  1.50000000E+00  1.50000000E+00
  8.00000000E-01  8.00000000E-01  1.50000000E+00  1.50000000E+00  8.00000000E-01
  8.00000000E-01  1.50000000E+00  1.50000000E+00  8.00000000E-01  8.00000000E-01
  1.50000000E+00  1.50000000E+00  8.00000000E-01  8.00000000E-01  1.50000000E+00
  1.50000000E+00  8.00000000E-01  8.00000000E-01  1.50000000E+00  1.50000000E+00
  8.00000000E-01  8.00000000E-01  1.50000000E+00  1.50000000E+00  8.00000000E-01
  8.00000000E-01  1.50000000E+00  1.50000000E+00  8.00000000E-01  8.00000000E-01
  1.50000000E+00  1.50000000E+00  8.00000000E-01  8.00000000E-01  1.50000000E+00
  1.50000000E+00  8.00000000E-01  8.00000000E-01  1.50000000E+00  1.50000000E+00
  8.00000000E-01  8.00000000E-01  1.50000000E+00  1.50000000E+00  8.00000000E-01
  8.00000000E-01  1.50000000E+00  1.50000000E+00  8.00000000E-01  8.00000000E-01
  1.50000000E+00  1.50000000E+00  8.00000000E-01  8.00000000E-01  1.50000000E+00
  1.50000000E+00  8.00000000E-01  8.00000000E-01  1.50000000E+00  1.50000000E+00
  8.00000000E-01  8.00000000E-01  1.50000000E+00  1.50000000E+00  8.00000000E-01
  8.00000000E-01  1.50000000E+00  1.50000000E+00  8.00000000E-01  8.00000000E-01
  1.50000000E+00  1.50000000E+00  8.00000000E-01  8.00000000E-01  1.50000000E+00
  1.50000000E+00  8.00000000E-01  8.00000000E-01  1.50000000E+00  1.50000000E+00
  8.00000000E-01  8.00000000E-01  1.50000000E+00  1.50000000E+00  8.00000000E-01
  8.00000000E-01  1.50000000E+00  1.50000000E+00  8.00000000E-01  8.00000000E-01
  1.50000000E+00  1.50000000E+00  8.00000000E-01  8.00000000E-01  1.50000000E+00
  1.50000000E+00  8.00000000E-01  8.00000000E-01  1.50000000E+00  1.50000000E+00
  8.00000000E-01  8.00000000E-01  1.50000000E+00  1.50000000E+00  8.00000000E-01
  8.00000000E-01  1.50000000E+00  1.50000000E+00  8.00000000E-01  8.00000000E-01
  1.50000000E+00  1.50000000E+00  8.00000000E-01  8.00000000E-01  1.50000000E+00
  1.50000000E+00  8.00000000E-01  8.00000000E-01  1.50000000E+00  1.50000000E+00
  8.00000000E-01  8.00000000E-01  1.50000000E+00  1.50000000E+00  8.00000000E-01
  8.00000000E-01  1.50000000E+00  1.50000000E+00  8.00000000E-01  8.00000000E-01
  1.50000000E+00  1.50000000E+00  8.00000000E-01  8.00000000E-01  1.50000000E+00
  1.50000000E+00  8.00000000E-01  8.00000000E-01  1.50000000E+00  1.50000000E+00
  8.00000000E-01  8.00000000E-01  1.50000000E+00  1.50000000E+00  8.00000000E-01
  8.00000000E-01  1.50000000E+00  1.50000000E+00  8.00000000E-01  8.00000000E-01
  1.50000000E+00  1.50000000E+00  8.00000000E-01  8.00000000E-01  1.50000000E+00
  1.50000000E+00  8.00000000E-01  8.00000000E-01  1.50000000E+00  1.50000000E+00
  8.00000000E-01  8.00000000E-01  1.50000000E+00  1.50000000E+00  8.00000000E-01
  8.00000000E-01  1.50000000E+00  1.50000000E+00  8.00000000E-01  8.00000000E-01
  1.50000000E+00  1.50000000E+00  8.00000000E-01  8.00000000E-01  1.50000000E+00
  1.50000000E+00  8.00000000E-01  8.00000000E-01  1.50000000E+00  1.50000000E+00
  8.00000000E-01  8.00000000E-01  1.50000000E+00  1.50000000E+00  8.00000000E-01
  8.00000000E-01  1.50000000E+00  1.50000000E+00  8.00000000E-01  8.00000000E-01
  1.50000000E+00  1.50000000E+00  8.00000000E-01  8.00000000E-01  1.50000000E+00
  1.50000000E+00  8.00000000E-01  8.00000000E-01  1.50000000E+00  1.50000000E+00
  8.00000000E-01  8.00000000E-01  1.50000000E+00  1.50000000E+00  8.00000000E-01
  8.00000000E-01  1.50000000E+00  1.50000000E+00  8.00000000E-01  8.00000000E-01
  1.50000000E+00  1.50000000E+00  8.00000000E-01  8.00000000E-01  1.50000000E+00
  1.50000000E+00  8.00000000E-01  8.00000000E-01  1.50000000E+00  1.50000000E+00
  8.00000000E-01  8.00000000E-01  1.50000000E+00  1.50000000E+00  8.00000000E-01
  8.00000000E-01  1.50000000E+00  1.50000000E+00  8.00000000E-01  8.00000000E-01
  1.50000000E+00  1.50000000E+00  8.00000000E-01  8.00000000E-01  1.50000000E+00
  1.50000000E+00  8.00000000E-01  8.00000000E-01  1.50000000E+00  1.50000000E+00
  8.00000000E-01  8.00000000E-01  1.50000000E+00  1.50000000E+00  8.00000000E-01
  8.00000000E-01  1.50000000E+00  1.50000000E+00  8.00000000E-01  8.00000000E-01
  1.50000000E+00  1.50000000E+00  8.00000000E-01  8.00000000E-01  1.50000000E+00
  1.50000000E+00  8.00000000E-01  8.00000000E-01  1.50000000E+00  1.50000000E+00
  8.00000000E-01  8.00000000E-01  1.50000000E+00  1.50000000E+00  8.00000000E-01
  8.00000000E-01  1.50000000E+00  1.50000000E+00  8.00000000E-01  8.00000000E-01
  1.50000000E+00  1.50000000E+00  8.00000000E-01  8.00000000E-01  1.50000000E+00
  1.50000000E+00  8.00000000E-01  8.00000000E-01  1.50000000E+00  1.50000000E+00
  8.00000000E-01  8.00000000E-01  1.50000000E+00  1.50000000E+00  8.00000000E-01
  8.00000000E-01  1.50000000E+00  1.50000000E+00  8.00000000E-01  8.00000000E-01
  1.50000000E+00  1.50000000E+00  8.00000000E-01  8.00000000E-01  1.50000000E+00
  1.50000000E+00  8.00000000E-01  8.00000000E-01  1.50000000E+00  1.50000000E+00
  8.00000000E-01  8.00000000E-01  1.50000000E+00  1.50000000E+00  8.00000000E-01
  8.00000000E-01  1.50000000E+00  1.50000000E+00  8.00000000E-01  8.00000000E-01
  1.50000000E+00  1.50000000E+00  8.00000000E-01  8.00000000E-01  1.50000000E+00
  1.50000000E+00  8.00000000E-01  8.00000000E-01  1.50000000E+00  1.50000000E+00
  8.00000000E-01  8.00000000E-01  1.50000000E+00  1.50000000E+00  8.00000000E-01
  8.00000000E-01  1.50000000E+00  1.50000000E+00  8.00000000E-01  8.00000000E-01
  1.50000000E+00  1.50000000E+00  8.00000000E-01  8.00000000E-01  1.50000000E+00
  1.50000000E+00  8.00000000E-01  8.00000000E-01  1.50000000E+00  1.50000000E+00
  8.00000000E-01  8.00000000E-01  1.50000000E+00  1.50000000E+00  8.00000000E-01
  8.00000000E-01  1.50000000E+00  1.50000000E+00  8.00000000E-01  8.00000000E-01
  1.50000000E+00  1.50000000E+00  8.00000000E-01  8.00000000E-01  1.50000000E+00
  1.50000000E+00  8.00000000E-01  8.00000000E-01  1.50000000E+00  1.50000000E+00
  8.00000000E-01  8.00000000E-01  1.50000000E+00  1.50000000E+00  8.00000000E-01
  8.00000000E-01  1.50000000E+00  1.50000000E+00  8.00000000E-01  8.00000000E-01
  1.50000000E+00  1.50000000E+00  8.00000000E-01  8.00000000E-01  1.50000000E+00
  1.50000000E+00  8.00000000E-01  8.00000000E-01  1.50000000E+00  1.50000000E+00
  8.00000000E-01  8.00000000E-01  1.50000000E+00  1.50000000E+00  8.00000000E-01
  8.00000000E-01  1.50000000E+00  1.50000000E+00  8.00000000E-01  8.00000000E-01
  1.50000000E+00  1.50000000E+00  8.00000000E-01  8.00000000E-01  1.50000000E+00
  1.50000000E+00  8.00000000E-01  8.00000000E-01  1.50000000E+00  1.50000000E+00
  8.00000000E-01  8.00000000E-01  1.50000000E+00  1.50000000E+00  8.00000000E-01
  8.00000000E-01  1.50000000E+00  1.50000000E+00  8.00000000E-01  8.00000000E-01
  1.50000000E+00  1.50000000E+00  8.00000000E-01  8.00000000E-01  1.50000000E+00
  1.50000000E+00  8.00000000E-01  8.00000000E-01  1.50000000E+00  1.50000000E+00
  8.00000000E-01  8.00000000E-01  1.50000000E+00  1.50000000E+00  8.00000000E-01
  8.00000000E-01  1.50000000E+00  1.50000000E+00  8.00000000E-01  8.00000000E-01
  1.50000000E+00  1.50000000E+00  8.00000000E-01  8.00000000E-01  1.50000000E+00
  1.50000000E+00  8.00000000E-01  8.00000000E-01  1.50000000E+00  1.50000000E+00
  8.00000000E-01  8.00000000E-01  1.50000000E+00  1.50000000E+00  8.00000000E-01
  8.00000000E-01  1.50000000E+00  1.50000000E+00  8.00000000E-01  8.00000000E-01
  1.50000000E+00  1.50000000E+00  8.00000000E-01  8.00000000E-01  1.50000000E+00
  1.50000000E+00  8.00000000E-01  8.00000000E-01  1.50000000E+00  1.50000000E+00
  8.00000000E-01  8.00000000E-01  1.50000000E+00  1.50000000E+00  8.00000000E-01
  8.00000000E-01  1.50000000E+00  1.50000000E+00  8.00000000E-01  8.00000000E-01
  1.50000000E+00  1.50000000E+00  8.00000000E-01  8.00000000E-01  1.50000000E+00
  1.50000000E+00  8.00000000E-01  8.00000000E-01  1.50000000E+00  1.50000000E+00
  8.00000000E-01  8.00000000E-01  1.50000000E+00  1.50000000E+00  8.00000000E-01
  8.00000000E-01  1.50000000E+00  1.50000000E+00  8.00000000E-01  8.00000000E-01
  1.50000000E+00  1.50000000E+00  8.00000000E-01  8.00000000E-01  1.50000000E+00
  1.50000000E+00  8.00000000E-01  8.00000000E-01  1.50000000E+00  1.50000000E+00
  8.00000000E-01  8.00000000E-01  1.50000000E+00  1.50000000E+00  8.00000000E-01
  8.00000000E-01  1.50000000E+00  1.50000000E+00  8.00000000E-01  8.00000000E-01
  1.50000000E+00  1.50000000E+00  8.00000000E-01  8.00000000E-01  1.50000000E+00
  1.50000000E+00  8.00000000E-01  8.00000000E-01  1.50000000E+00  1.50000000E+00
  8.00000000E-01  8.00000000E-01  1.50000000E+00  1.50000000E+00  8.00000000E-01
  8.00000000E-01  1.50000000E+00  1.50000000E+00  8.00000000E-01  8.00000000E-01
  1.50000000E+00  1.50000000E+00  8.00000000E-01  8.00000000E-01  1.50000000E+00
  1.50000000E+00  8.00000000E-01  8.00000000E-01  1.50000000E+00  1.50000000E+00
  8.00000000E-01  8.00000000E-01  1.50000000E+00  1.50000000E+00  8.00000000E-01
  8.00000000E-01  1.50000000E+00  1.50000000E+00  8.00000000E-01  8.00000000E-01
  1.50000000E+00  1.50000000E+00  8.00000000E-01  8.00000000E-01  1.50000000E+00
  1.50000000E+00  8.00000000E-01  8.00000000E-01  1.50000000E+00  1.50000000E+00
  8.00000000E-01  8.00000000E-01  1.50000000E+00  1.50000000E+00  8.00000000E-01
  8.00000000E-01  1.50000000E+00  1.50000000E+00  8.00000000E-01  8.00000000E-01
  1.50000000E+00  1.50000000E+00  8.00000000E-01  8.00000000E-01  1.50000000E+00
  1.50000000E+00  8.00000000E-01  8.00000000E-01  1.50000000E+00  1.50000000E+00
  8.00000000E-01  8.00000000E-01  1.50000000E+00  1.50000000E+00  8.00000000E-01
  8.00000000E-01  1.50000000E+00  1.50000000E+00  8.00000000E-01  8.00000000E-01
  1.50000000E+00  1.50000000E+00  8.00000000E-01  8.00000000E-01  1.50000000E+00
  1.50000000E+00  8.00000000E-01  8.00000000E-01  1.50000000E+00  1.50000000E+00
  8.00000000E-01  8.00000000E-01  1.50000000E+00  1.50000000E+00  8.00000000E-01
  8.00000000E-01  1.50000000E+00  1.50000000E+00  8.00000000E-01  8.00000000E-01
  1.50000000E+00  1.50000000E+00  8.00000000E-01  8.00000000E-01  1.50000000E+00
  1.50000000E+00  8.00000000E-01  8.00000000E-01  1.50000000E+00  1.50000000E+00
  8.00000000E-01  8.00000000E-01  1.50000000E+00  1.50000000E+00  8.00000000E-01
  8.00000000E-01  1.50000000E+00  1.50000000E+00  8.00000000E-01  8.00000000E-01
  1.50000000E+00  1.50000000E+00  8.00000000E-01  8.00000000E-01  1.50000000E+00
  1.50000000E+00  8.00000000E-01  8.00000000E-01  1.50000000E+00  1.50000000E+00
  8.00000000E-01  8.00000000E-01  1.50000000E+00  1.50000000E+00  8.00000000E-01
  8.00000000E-01  1.50000000E+00  1.50000000E+00  8.00000000E-01  8.00000000E-01
  1.50000000E+00  1.50000000E+00  8.00000000E-01  8.00000000E-01  1.50000000E+00
  1.50000000E+00  8.00000000E-01  8.00000000E-01  1.50000000E+00  1.50000000E+00
  8.00000000E-01  8.00000000E-01  1.50000000E+00  1.50000000E+00  8.00000000E-01
  8.00000000E-01  1.50000000E+00  1.50000000E+00  8.00000000E-01  8.00000000E-01
  1.50000000E+00  1.50000000E+00  8.00000000E-01  8.00000000E-01  1.50000000E+00
  1.50000000E+00  8.00000000E-01  8.00000000E-01  1.50000000E+00  1.50000000E+00
  8.00000000E-01  8.00000000E-01  1.50000000E+00  1.50000000E+00  8.00000000E-01
  8.00000000E-01  1.50000000E+00  1.50000000E+00  8.00000000E-01  8.00000000E-01
  1.50000000E+00  1.50000000E+00  8.00000000E-01  8.00000000E-01  1.50000000E+00
  1.50000000E+00  8.00000000E-01  8.00000000E-01  1.50000000E+00  1.50000000E+00
  8.00000000E-01  8.00000000E-01  1.50000000E+00  1.50000000E+00  8.00000000E-01
  8.00000000E-01  1.50000000E+00  1.50000000E+00  8.00000000E-01  8.00000000E-01
  1.50000000E+00  1.50000000E+00  8.00000000E-01  8.00000000E-01  1.50000000E+00
  1.50000000E+00  8.00000000E-01  8.00000000E-01  1.50000000E+00  1.50000000E+00
  8.00000000E-01  8.00000000E-01  1.50000000E+00  1.50000000E+00  8.00000000E-01
  8.00000000E-01  1.50000000E+00  1.50000000E+00  8.00000000E-01  8.00000000E-01
  1.50000000E+00  1.50000000E+00  8.00000000E-01  8.00000000E-01  1.50000000E+00
  1.50000000E+00  8.00000000E-01  8.00000000E-01  1.50000000E+00  1.50000000E+00
  8.00000000E-01  8.00000000E-01  1.50000000E+00  1.50000000E+00  8.00000000E-01
  8.00000000E-01  1.50000000E+00  1.50000000E+00  8.00000000E-01  8.00000000E-01
  1.50000000E+00  1.50000000E+00  8.00000000E-01  8.00000000E-01  1.50000000E+00
  1.50000000E+00  8.00000000E-01  8.00000000E-01  1.50000000E+00  1.50000000E+00
  8.00000000E-01  8.00000000E-01  1.50000000E+00  1.50000000E+00  8.00000000E-01
  8.00000000E-01  1.50000000E+00  1.50000000E+00  8.00000000E-01  8.00000000E-01
  1.50000000E+00  1.50000000E+00  8.00000000E-01  8.00000000E-01  1.50000000E+00
  1.50000000E+00  8.00000000E-01  8.00000000E-01  1.50000000E+00  1.50000000E+00
  8.00000000E-01  8.00000000E-01  1.50000000E+00  1.50000000E+00  8.00000000E-01
  8.00000000E-01  1.50000000E+00  1.50000000E+00  8.00000000E-01  8.00000000E-01
  1.50000000E+00  1.50000000E+00  8.00000000E-01  8.00000000E-01  1.50000000E+00
  1.50000000E+00  8.00000000E-01  8.00000000E-01  1.50000000E+00  1.50000000E+00
  8.00000000E-01  8.00000000E-01  1.50000000E+00  1.50000000E+00  8.00000000E-01
  8.00000000E-01  1.50000000E+00  1.50000000E+00  8.00000000E-01  8.00000000E-01
  1.50000000E+00  1.50000000E+00  8.00000000E-01  8.00000000E-01  1.50000000E+00
  1.50000000E+00  8.00000000E-01  8.00000000E-01  1.50000000E+00  1.50000000E+00
  8.00000000E-01  8.00000000E-01  1.50000000E+00  1.50000000E+00  8.00000000E-01
  8.00000000E-01  1.50000000E+00  1.50000000E+00  8.00000000E-01  8.00000000E-01
  1.50000000E+00  1.50000000E+00  8.00000000E-01  8.00000000E-01  1.50000000E+00
  1.50000000E+00  8.00000000E-01  8.00000000E-01  1.50000000E+00  1.50000000E+00
  8.00000000E-01  8.00000000E-01  1.50000000E+00  1.50000000E+00  8.00000000E-01
  8.00000000E-01  1.50000000E+00  1.50000000E+00  8.00000000E-01  8.00000000E-01
  1.50000000E+00  1.50000000E+00  8.00000000E-01  8.00000000E-01  1.50000000E+00
  1.50000000E+00  8.00000000E-01  8.00000000E-01  1.50000000E+00  1.50000000E+00
  8.00000000E-01  8.00000000E-01  1.50000000E+00  1.50000000E+00  8.00000000E-01
  8.00000000E-01  1.50000000E+00  1.50000000E+00  8.00000000E-01  8.00000000E-01
  1.50000000E+00  1.50000000E+00  8.00000000E-01  8.00000000E-01  1.50000000E+00
  1.50000000E+00  8.00000000E-01  8.00000000E-01  1.50000000E+00  1.50000000E+00
  8.00000000E-01  8.00000000E-01  1.50000000E+00  1.50000000E+00  8.00000000E-01
  8.00000000E-01  1.50000000E+00  1.50000000E+00  8.00000000E-01  8.00000000E-01
  1.50000000E+00  1.50000000E+00  8.00000000E-01  8.00000000E-01  1.50000000E+00
  1.50000000E+00  8.00000000E-01  8.00000000E-01  1.50000000E+00  1.50000000E+00
  8.00000000E-01  8.00000000E-01  1.50000000E+00  1.50000000E+00  8.00000000E-01
  8.00000000E-01  1.50000000E+00  1.50000000E+00  8.00000000E-01  8.00000000E-01
  1.50000000E+00  1.50000000E+00  8.00000000E-01  8.00000000E-01  1.50000000E+00
  1.50000000E+00  8.00000000E-01  8.00000000E-01  1.50000000E+00  1.50000000E+00
  8.00000000E-01  8.00000000E-01  1.50000000E+00  1.50000000E+00  8.00000000E-01
  8.00000000E-01  1.50000000E+00  1.50000000E+00  8.00000000E-01  8.00000000E-01
  1.50000000E+00  1.50000000E+00  8.00000000E-01  8.00000000E-01  1.50000000E+00
  1.50000000E+00  8.00000000E-01  8.00000000E-01  1.50000000E+00  1.50000000E+00
  8.00000000E-01  8.00000000E-01  1.50000000E+00  1.50000000E+00  8.00000000E-01
  8.00000000E-01  1.50000000E+00  1.50000000E+00  8.00000000E-01  8.00000000E-01
  1.50000000E+00  1.50000000E+00  8.00000000E-01  8.00000000E-01  1.50000000E+00
  1.50000000E+00  8.00000000E-01  8.00000000E-01  1.50000000E+00  1.50000000E+00
  8.00000000E-01  8.00000000E-01  1.50000000E+00  1.50000000E+00  8.00000000E-01
  8.00000000E-01  1.50000000E+00  1.50000000E+00  8.00000000E-01  8.00000000E-01
  1.50000000E+00  1.50000000E+00  8.00000000E-01  8.00000000E-01  1.50000000E+00
  1.50000000E+00  8.00000000E-01  8.00000000E-01  1.50000000E+00  1.50000000E+00
  8.00000000E-01  8.00000000E-01  1.50000000E+00  1.50000000E+00  8.00000000E-01
  8.00000000E-01  1.50000000E+00  1.50000000E+00  8.00000000E-01  8.00000000E-01
  1.50000000E+00  1.50000000E+00  8.00000000E-01  8.00000000E-01  1.50000000E+00
  1.50000000E+00  8.00000000E-01  8.00000000E-01  1.50000000E+00  1.50000000E+00
  8.00000000E-01  8.00000000E-01  1.50000000E+00  1.50000000E+00  8.00000000E-01
  8.00000000E-01  1.50000000E+00  1.50000000E+00  8.00000000E-01  8.00000000E-01
  1.50000000E+00  1.50000000E+00  8.00000000E-01  8.00000000E-01  1.50000000E+00
  1.50000000E+00  8.00000000E-01  8.00000000E-01  1.50000000E+00  1.50000000E+00
  8.00000000E-01  8.00000000E-01  1.50000000E+00  1.50000000E+00  8.00000000E-01
  8.00000000E-01  1.50000000E+00  1.50000000E+00  8.00000000E-01  8.00000000E-01
  1.50000000E+00  1.50000000E+00  8.00000000E-01  8.00000000E-01  1.50000000E+00
  1.50000000E+00  8.00000000E-01  8.00000000E-01  1.50000000E+00  1.50000000E+00
  8.00000000E-01  8.00000000E-01  1.50000000E+00  1.50000000E+00  8.00000000E-01
  8.00000000E-01  1.50000000E+00  1.50000000E+00  8.00000000E-01  8.00000000E-01
  1.50000000E+00  1.50000000E+00  8.00000000E-01  8.00000000E-01  1.50000000E+00
  1.50000000E+00  8.00000000E-01  8.00000000E-01  1.50000000E+00  1.50000000E+00
  8.00000000E-01  8.00000000E-01  1.50000000E+00  1.50000000E+00  8.00000000E-01
  8.00000000E-01  1.50000000E+00  1.50000000E+00  8.00000000E-01  8.00000000E-01
  1.50000000E+00  1.50000000E+00  8.00000000E-01  8.00000000E-01  1.50000000E+00
  1.50000000E+00  8.00000000E-01  8.00000000E-01  1.50000000E+00  1.50000000E+00
  8.00000000E-01  8.00000000E-01  1.50000000E+00  1.50000000E+00  8.00000000E-01
  8.00000000E-01  1.50000000E+00  1.50000000E+00  8.00000000E-01  8.00000000E-01
  1.50000000E+00  1.50000000E+00  8.00000000E-01  8.00000000E-01  1.50000000E+00
  1.50000000E+00  8.00000000E-01  8.00000000E-01  1.50000000E+00  1.50000000E+00
  8.00000000E-01  8.00000000E-01  1.50000000E+00  1.50000000E+00  8.00000000E-01
  8.00000000E-01  1.50000000E+00  1.50000000E+00  8.00000000E-01  8.00000000E-01
  1.50000000E+00  1.50000000E+00  8.00000000E-01  8.00000000E-01  1.50000000E+00
  1.50000000E+00  8.00000000E-01  8.00000000E-01  1.50000000E+00  1.50000000E+00
  8.00000000E-01  8.00000000E-01  1.50000000E+00  1.50000000E+00  8.00000000E-01
  8.00000000E-01  1.50000000E+00  1.50000000E+00  8.00000000E-01  8.00000000E-01
  1.50000000E+00  1.50000000E+00  8.00000000E-01  8.00000000E-01  1.50000000E+00
  1.50000000E+00  8.00000000E-01  8.00000000E-01  1.50000000E+00  1.50000000E+00
  8.00000000E-01  8.00000000E-01  1.50000000E+00  1.50000000E+00  8.00000000E-01
  8.00000000E-01  1.50000000E+00  1.50000000E+00  8.00000000E-01  8.00000000E-01
  1.50000000E+00  1.50000000E+00  8.00000000E-01  8.00000000E-01  1.50000000E+00
  1.50000000E+00  8.00000000E-01  8.00000000E-01  1.50000000E+00  1.50000000E+00
  8.00000000E-01  8.00000000E-01  1.50000000E+00  1.50000000E+00  8.00000000E-01
  8.00000000E-01  1.50000000E+00  1.50000000E+00  8.00000000E-01  8.00000000E-01
  1.50000000E+00  1.50000000E+00  8.00000000E-01  8.00000000E-01  1.50000000E+00
  1.50000000E+00  8.00000000E-01  8.00000000E-01  1.50000000E+00  1.50000000E+00
  8.00000000E-01  8.00000000E-01  1.50000000E+00  1.50000000E+00  8.00000000E-01
  8.00000000E-01  1.50000000E+00  1.50000000E+00  8.00000000E-01  8.00000000E-01
  1.50000000E+00  1.50000000E+00  8.00000000E-01  8.00000000E-01  1.50000000E+00
  1.50000000E+00  8.00000000E-01  8.00000000E-01  1.50000000E+00  1.50000000E+00
  8.00000000E-01  8.00000000E-01  1.50000000E+00  1.50000000E+00  8.00000000E-01
  8.00000000E-01  1.50000000E+00  1.50000000E+00  8.00000000E-01  8.00000000E-01
  1.50000000E+00  1.50000000E+00  8.00000000E-01  8.00000000E-01  1.50000000E+00
  1.50000000E+00  8.00000000E-01  8.00000000E-01  1.50000000E+00  1.50000000E+00
  8.00000000E-01  8.00000000E-01  1.50000000E+00  1.50000000E+00  8.00000000E-01
  8.00000000E-01  1.50000000E+00  1.50000000E+00  8.00000000E-01  8.00000000E-01
  1.50000000E+00  1.50000000E+00  8.00000000E-01  8.00000000E-01  1.50000000E+00
  1.50000000E+00  8.00000000E-01  8.00000000E-01  1.50000000E+00  1.50000000E+00
  8.00000000E-01  8.00000000E-01  1.50000000E+00  1.50000000E+00  8.00000000E-01
  8.00000000E-01  1.50000000E+00  1.50000000E+00  8.00000000E-01  8.00000000E-01
  1.50000000E+00  1.50000000E+00  8.00000000E-01  8.00000000E-01  1.50000000E+00
  1.50000000E+00  8.00000000E-01  8.00000000E-01  1.50000000E+00  1.50000000E+00
  8.00000000E-01  8.00000000E-01  1.50000000E+00  1.50000000E+00  8.00000000E-01
  8.00000000E-01  1.50000000E+00  1.50000000E+00  8.00000000E-01  8.00000000E-01
  1.50000000E+00  1.50000000E+00  8.00000000E-01  8.00000000E-01  1.50000000E+00
  1.50000000E+00  8.00000000E-01  8.00000000E-01  1.50000000E+00  1.50000000E+00
  8.00000000E-01  8.00000000E-01  1.50000000E+00  1.50000000E+00  8.00000000E-01
  8.00000000E-01  1.50000000E+00  1.50000000E+00  8.00000000E-01  8.00000000E-01
  1.50000000E+00  1.50000000E+00  8.00000000E-01  8.00000000E-01  1.50000000E+00
  1.50000000E+00  8.00000000E-01  8.00000000E-01  1.50000000E+00  1.50000000E+00
  8.00000000E-01  8.00000000E-01  1.50000000E+00  1.50000000E+00  8.00000000E-01
  8.00000000E-01  1.50000000E+00  1.50000000E+00  8.00000000E-01  8.00000000E-01
  1.50000000E+00  1.50000000E+00  8.00000000E-01  8.00000000E-01  1.50000000E+00
  1.50000000E+00  8.00000000E-01  8.00000000E-01  1.50000000E+00  1.50000000E+00
  8.00000000E-01  8.00000000E-01  1.50000000E+00  1.50000000E+00  8.00000000E-01
  8.00000000E-01  1.50000000E+00  1.50000000E+00  8.00000000E-01  8.00000000E-01
  1.50000000E+00  1.50000000E+00  8.00000000E-01  8.00000000E-01  1.50000000E+00
  1.50000000E+00  8.00000000E-01  8.00000000E-01  1.50000000E+00  1.50000000E+00
  8.00000000E-01  8.00000000E-01  1.50000000E+00  1.50000000E+00  8.00000000E-01
  8.00000000E-01  1.50000000E+00  1.50000000E+00  8.00000000E-01  8.00000000E-01
  1.50000000E+00  1.50000000E+00  8.00000000E-01  8.00000000E-01  1.50000000E+00
  1.50000000E+00  8.00000000E-01  8.00000000E-01  1.50000000E+00  1.50000000E+00
  8.00000000E-01  8.00000000E-01  1.50000000E+00  1.50000000E+00  8.00000000E-01
  8.00000000E-01  1.50000000E+00  1.50000000E+00  8.00000000E-01  8.00000000E-01
  1.50000000E+00  1.50000000E+00  8.00000000E-01  8.00000000E-01  1.50000000E+00
  1.50000000E+00  8.00000000E-01  8.00000000E-01  1.50000000E+00  1.50000000E+00
  8.00000000E-01  8.00000000E-01  1.50000000E+00  1.50000000E+00  8.00000000E-01
  8.00000000E-01  1.50000000E+00  1.50000000E+00  8.00000000E-01  8.00000000E-01
  1.50000000E+00  1.50000000E+00  8.00000000E-01  8.00000000E-01  1.50000000E+00
  1.50000000E+00  8.00000000E-01  8.00000000E-01  1.50000000E+00  1.50000000E+00
  8.00000000E-01  8.00000000E-01  1.50000000E+00  1.50000000E+00  8.00000000E-01
  8.00000000E-01  1.50000000E+00  1.50000000E+00  8.00000000E-01  8.00000000E-01
  1.50000000E+00  1.50000000E+00  8.00000000E-01  8.00000000E-01  1.50000000E+00
  1.50000000E+00  8.00000000E-01  8.00000000E-01  1.50000000E+00  1.50000000E+00
  8.00000000E-01  8.00000000E-01  1.50000000E+00  1.50000000E+00  8.00000000E-01
  8.00000000E-01  1.50000000E+00  1.50000000E+00  8.00000000E-01  8.00000000E-01
  1.50000000E+00  1.50000000E+00  8.00000000E-01  8.00000000E-01  1.50000000E+00
  1.50000000E+00  8.00000000E-01  8.00000000E-01  1.50000000E+00  1.50000000E+00
  8.00000000E-01  8.00000000E-01  1.50000000E+00  1.50000000E+00  8.00000000E-01
  8.00000000E-01  1.50000000E+00  1.50000000E+00  8.00000000E-01  8.00000000E-01
  1.50000000E+00  1.50000000E+00  8.00000000E-01  8.00000000E-01  1.50000000E+00
  1.50000000E+00  8.00000000E-01  8.00000000E-01  1.50000000E+00  1.50000000E+00
  8.00000000E-01  8.00000000E-01  1.50000000E+00  1.50000000E+00  8.00000000E-01
  8.00000000E-01  1.50000000E+00  1.50000000E+00  8.00000000E-01  8.00000000E-01
  1.50000000E+00  1.50000000E+00  8.00000000E-01  8.00000000E-01  1.50000000E+00
  1.50000000E+00  8.00000000E-01  8.00000000E-01  1.50000000E+00  1.50000000E+00
  8.00000000E-01  8.00000000E-01  1.50000000E+00  1.50000000E+00  8.00000000E-01
  8.00000000E-01  1.50000000E+00  1.50000000E+00  8.00000000E-01  8.00000000E-01
  1.50000000E+00  1.50000000E+00  8.00000000E-01  8.00000000E-01  1.50000000E+00
  1.50000000E+00  8.00000000E-01  8.00000000E-01  1.50000000E+00  1.50000000E+00
  8.00000000E-01  8.00000000E-01  1.50000000E+00  1.50000000E+00  8.00000000E-01
  8.00000000E-01  1.50000000E+00  1.50000000E+00  8.00000000E-01  8.00000000E-01
  1.50000000E+00  1.50000000E+00  8.00000000E-01  8.00000000E-01  1.50000000E+00
  1.50000000E+00  8.00000000E-01  8.00000000E-01  1.50000000E+00  1.50000000E+00
  8.00000000E-01  8.00000000E-01  1.50000000E+00  1.50000000E+00  8.00000000E-01
  8.00000000E-01  1.50000000E+00  1.50000000E+00  8.00000000E-01  8.00000000E-01
  1.50000000E+00  1.50000000E+00  8.00000000E-01  8.00000000E-01  1.50000000E+00
  1.50000000E+00  8.00000000E-01  8.00000000E-01  1.50000000E+00  1.50000000E+00
  8.00000000E-01  8.00000000E-01  1.50000000E+00  1.50000000E+00  8.00000000E-01
  8.00000000E-01  1.50000000E+00  1.50000000E+00  8.00000000E-01  8.00000000E-01
  1.50000000E+00  1.50000000E+00  8.00000000E-01  8.00000000E-01  1.50000000E+00
  1.50000000E+00  8.00000000E-01  8.00000000E-01  1.50000000E+00  1.50000000E+00
  8.00000000E-01  8.00000000E-01  1.50000000E+00  1.50000000E+00  8.00000000E-01
  8.00000000E-01  1.50000000E+00  1.50000000E+00  8.00000000E-01  8.00000000E-01
  1.50000000E+00  1.50000000E+00  8.00000000E-01  8.00000000E-01  1.50000000E+00
  1.50000000E+00  8.00000000E-01  8.00000000E-01  1.50000000E+00  1.50000000E+00
  8.00000000E-01  8.00000000E-01  1.50000000E+00  1.50000000E+00  8.00000000E-01
  8.00000000E-01  1.50000000E+00  1.50000000E+00  8.00000000E-01  8.00000000E-01
  1.50000000E+00  1.50000000E+00  8.00000000E-01  8.00000000E-01  1.50000000E+00
  1.50000000E+00  8.00000000E-01  8.00000000E-01  1.50000000E+00  1.50000000E+00
  8.00000000E-01  8.00000000E-01  1.50000000E+00  1.50000000E+00  8.00000000E-01
  8.00000000E-01  1.50000000E+00  1.50000000E+00  8.00000000E-01  8.00000000E-01
  1.50000000E+00  1.50000000E+00  8.00000000E-01  8.00000000E-01  1.50000000E+00
  1.50000000E+00  8.00000000E-01  8.00000000E-01  1.50000000E+00  1.50000000E+00
  8.00000000E-01  8.00000000E-01  1.50000000E+00  1.50000000E+00  8.00000000E-01
  8.00000000E-01  1.50000000E+00  1.50000000E+00  8.00000000E-01  8.00000000E-01
  1.50000000E+00  1.50000000E+00  8.00000000E-01  8.00000000E-01  1.50000000E+00
  1.50000000E+00  8.00000000E-01  8.00000000E-01  1.50000000E+00  1.50000000E+00
  8.00000000E-01  8.00000000E-01  1.50000000E+00  1.50000000E+00  8.00000000E-01
  8.00000000E-01  1.50000000E+00  1.50000000E+00  8.00000000E-01  8.00000000E-01
  1.50000000E+00  1.50000000E+00  8.00000000E-01  8.00000000E-01  1.50000000E+00
  1.50000000E+00  8.00000000E-01  8.00000000E-01  1.50000000E+00  1.50000000E+00
  8.00000000E-01  8.00000000E-01  1.50000000E+00  1.50000000E+00  8.00000000E-01
  8.00000000E-01  1.50000000E+00  1.50000000E+00  8.00000000E-01  8.00000000E-01
  1.50000000E+00  1.50000000E+00  8.00000000E-01  8.00000000E-01  1.50000000E+00
  1.50000000E+00  8.00000000E-01  8.00000000E-01  1.50000000E+00  1.50000000E+00
  8.00000000E-01  8.00000000E-01  1.50000000E+00  1.50000000E+00  8.00000000E-01
  8.00000000E-01  1.50000000E+00  1.50000000E+00  8.00000000E-01  8.00000000E-01
  1.50000000E+00  1.50000000E+00  8.00000000E-01  8.00000000E-01  1.50000000E+00
  1.50000000E+00  8.00000000E-01  8.00000000E-01  1.50000000E+00  1.50000000E+00
  8.00000000E-01  8.00000000E-01  1.50000000E+00  1.50000000E+00  8.00000000E-01
  8.00000000E-01  1.50000000E+00  1.50000000E+00  8.00000000E-01  8.00000000E-01
  1.50000000E+00  1.50000000E+00  8.00000000E-01  8.00000000E-01  1.50000000E+00
  1.50000000E+00  8.00000000E-01  8.00000000E-01  1.50000000E+00  1.50000000E+00
  8.00000000E-01  8.00000000E-01  1.50000000E+00  1.50000000E+00  8.00000000E-01
  8.00000000E-01  1.50000000E+00  1.50000000E+00  8.00000000E-01  8.00000000E-01
  1.50000000E+00  1.50000000E+00  8.00000000E-01  8.00000000E-01  1.50000000E+00
  1.50000000E+00  8.00000000E-01  8.00000000E-01  1.50000000E+00  1.50000000E+00
  8.00000000E-01  8.00000000E-01  1.50000000E+00  1.50000000E+00  8.00000000E-01
  8.00000000E-01  1.50000000E+00  1.50000000E+00  8.00000000E-01  8.00000000E-01
  1.50000000E+00  1.50000000E+00  8.00000000E-01  8.00000000E-01  1.50000000E+00
  1.50000000E+00  8.00000000E-01  8.00000000E-01  1.50000000E+00  1.50000000E+00
  8.00000000E-01  8.00000000E-01  1.50000000E+00  1.50000000E+00  8.00000000E-01
  8.00000000E-01  1.50000000E+00  1.50000000E+00  8.00000000E-01  8.00000000E-01
  1.50000000E+00  1.50000000E+00  8.00000000E-01  8.00000000E-01  1.50000000E+00
  1.50000000E+00  8.00000000E-01  8.00000000E-01  1.50000000E+00  1.50000000E+00
  8.00000000E-01  8.00000000E-01  1.50000000E+00  1.50000000E+00  8.00000000E-01
  8.00000000E-01  1.50000000E+00  1.50000000E+00  8.00000000E-01  8.00000000E-01
  1.50000000E+00  1.50000000E+00  8.00000000E-01  8.00000000E-01  1.50000000E+00
  1.50000000E+00  8.00000000E-01  8.00000000E-01  1.50000000E+00  1.50000000E+00
  8.00000000E-01  8.00000000E-01  1.50000000E+00  1.50000000E+00  8.00000000E-01
  8.00000000E-01  1.50000000E+00  1.50000000E+00  8.00000000E-01  8.00000000E-01
  1.50000000E+00  1.50000000E+00  8.00000000E-01  8.00000000E-01  1.50000000E+00
  1.50000000E+00  8.00000000E-01  8.00000000E-01  1.50000000E+00  1.50000000E+00
  8.00000000E-01  8.00000000E-01  1.50000000E+00  1.50000000E+00  8.00000000E-01
  8.00000000E-01  1.50000000E+00  1.50000000E+00  8.00000000E-01  8.00000000E-01
  1.50000000E+00  1.50000000E+00  8.00000000E-01  8.00000000E-01  1.50000000E+00
  1.50000000E+00  8.00000000E-01  8.00000000E-01  1.50000000E+00  1.50000000E+00
  8.00000000E-01  8.00000000E-01  1.50000000E+00  1.50000000E+00  8.00000000E-01
  8.00000000E-01  1.50000000E+00  1.50000000E+00  8.00000000E-01  8.00000000E-01
  1.50000000E+00  1.50000000E+00  8.00000000E-01  8.00000000E-01  1.50000000E+00
  1.50000000E+00  8.00000000E-01  8.00000000E-01  1.50000000E+00  1.50000000E+00
  8.00000000E-01  8.00000000E-01  1.50000000E+00  1.50000000E+00  8.00000000E-01
  8.00000000E-01  1.50000000E+00  1.50000000E+00  8.00000000E-01  8.00000000E-01
  1.50000000E+00  1.50000000E+00  8.00000000E-01  8.00000000E-01  1.50000000E+00
  1.50000000E+00  8.00000000E-01  8.00000000E-01  1.50000000E+00  1.50000000E+00
  8.00000000E-01  8.00000000E-01  1.50000000E+00  1.50000000E+00  8.00000000E-01
  8.00000000E-01  1.50000000E+00  1.50000000E+00  8.00000000E-01  8.00000000E-01
  1.50000000E+00  1.50000000E+00  8.00000000E-01  8.00000000E-01  1.50000000E+00
  1.50000000E+00  8.00000000E-01  8.00000000E-01  1.50000000E+00  1.50000000E+00
  8.00000000E-01  8.00000000E-01  1.50000000E+00  1.50000000E+00  8.00000000E-01
  8.00000000E-01  1.50000000E+00  1.50000000E+00  8.00000000E-01  8.00000000E-01
  1.50000000E+00  1.50000000E+00  8.00000000E-01  8.00000000E-01  1.50000000E+00
  1.50000000E+00  8.00000000E-01  8.00000000E-01  1.50000000E+00  1.50000000E+00
  8.00000000E-01  8.00000000E-01  1.50000000E+00  1.50000000E+00  8.00000000E-01
  8.00000000E-01  1.50000000E+00  1.50000000E+00  8.00000000E-01  8.00000000E-01
  1.50000000E+00  1.50000000E+00  8.00000000E-01  8.00000000E-01  1.50000000E+00
  1.50000000E+00  8.00000000E-01  8.00000000E-01  1.50000000E+00  1.50000000E+00
  8.00000000E-01  8.00000000E-01  1.50000000E+00  1.50000000E+00  8.00000000E-01
  8.00000000E-01  1.50000000E+00  1.50000000E+00  8.00000000E-01  8.00000000E-01
  1.50000000E+00  1.50000000E+00  8.00000000E-01  8.00000000E-01  1.50000000E+00
  1.50000000E+00  8.00000000E-01  8.00000000E-01  1.50000000E+00  1.50000000E+00
  8.00000000E-01  8.00000000E-01  1.50000000E+00  1.50000000E+00  8.00000000E-01
  8.00000000E-01  1.50000000E+00  1.50000000E+00  8.00000000E-01  8.00000000E-01
  1.50000000E+00  1.50000000E+00  8.00000000E-01  8.00000000E-01  1.50000000E+00
  1.50000000E+00  8.00000000E-01  8.00000000E-01  1.50000000E+00  1.50000000E+00
  8.00000000E-01  8.00000000E-01  1.50000000E+00  1.50000000E+00  8.00000000E-01
  8.00000000E-01  1.50000000E+00  1.50000000E+00  8.00000000E-01  8.00000000E-01
  1.50000000E+00  1.50000000E+00  8.00000000E-01  8.00000000E-01  1.50000000E+00
  1.50000000E+00  8.00000000E-01  8.00000000E-01  1.50000000E+00  1.50000000E+00
  8.00000000E-01  8.00000000E-01  1.50000000E+00  1.50000000E+00  8.00000000E-01
  8.00000000E-01  1.50000000E+00  1.50000000E+00  8.00000000E-01  8.00000000E-01
  1.50000000E+00  1.50000000E+00  8.00000000E-01  8.00000000E-01  1.50000000E+00
  1.50000000E+00  8.00000000E-01  8.00000000E-01  1.50000000E+00  1.50000000E+00
  8.00000000E-01  8.00000000E-01  1.50000000E+00  1.50000000E+00  8.00000000E-01
  8.00000000E-01  1.50000000E+00  1.50000000E+00  8.00000000E-01  8.00000000E-01
  1.50000000E+00  1.50000000E+00  8.00000000E-01  8.00000000E-01  1.50000000E+00
  1.50000000E+00  8.00000000E-01  8.00000000E-01  1.50000000E+00  1.50000000E+00
  8.00000000E-01  8.00000000E-01  1.50000000E+00  1.50000000E+00  8.00000000E-01
  8.00000000E-01  1.50000000E+00  1.50000000E+00  8.00000000E-01  8.00000000E-01
  1.50000000E+00  1.50000000E+00  8.00000000E-01  8.00000000E-01  1.50000000E+00
  1.50000000E+00  8.00000000E-01  8.00000000E-01  1.50000000E+00  1.50000000E+00
  8.00000000E-01  8.00000000E-01  1.50000000E+00  1.50000000E+00  8.00000000E-01
  8.00000000E-01  1.50000000E+00  1.50000000E+00  8.00000000E-01  8.00000000E-01
  1.50000000E+00  1.50000000E+00  8.00000000E-01  8.00000000E-01  1.50000000E+00
  1.50000000E+00  8.00000000E-01  8.00000000E-01  1.50000000E+00  1.50000000E+00
  8.00000000E-01  8.00000000E-01  1.50000000E+00  1.50000000E+00  8.00000000E-01
  8.00000000E-01  1.50000000E+00  1.50000000E+00  8.00000000E-01  8.00000000E-01
  1.50000000E+00  1.50000000E+00  8.00000000E-01  8.00000000E-01  1.50000000E+00
  1.50000000E+00  8.00000000E-01  8.00000000E-01  1.50000000E+00  1.50000000E+00
  8.00000000E-01  8.00000000E-01  1.50000000E+00  1.50000000E+00  8.00000000E-01
  8.00000000E-01  1.50000000E+00  1.50000000E+00  8.00000000E-01  8.00000000E-01
  1.50000000E+00  1.50000000E+00  8.00000000E-01  8.00000000E-01  1.50000000E+00
  1.50000000E+00  8.00000000E-01  8.00000000E-01  1.50000000E+00  1.50000000E+00
  8.00000000E-01  8.00000000E-01  1.50000000E+00  1.50000000E+00  8.00000000E-01
  8.00000000E-01  1.50000000E+00  1.50000000E+00  8.00000000E-01  8.00000000E-01
  1.50000000E+00  1.50000000E+00  8.00000000E-01  8.00000000E-01  1.50000000E+00
  1.50000000E+00  8.00000000E-01  8.00000000E-01  1.50000000E+00  1.50000000E+00
  8.00000000E-01  8.00000000E-01  1.50000000E+00  1.50000000E+00  8.00000000E-01
  8.00000000E-01  1.50000000E+00  1.50000000E+00  8.00000000E-01  8.00000000E-01
  1.50000000E+00  1.50000000E+00  8.00000000E-01  8.00000000E-01  1.50000000E+00
  1.50000000E+00  8.00000000E-01  8.00000000E-01  1.50000000E+00  1.50000000E+00
  8.00000000E-01  8.00000000E-01  1.50000000E+00  1.50000000E+00  8.00000000E-01
  8.00000000E-01  1.50000000E+00  1.50000000E+00  8.00000000E-01  8.00000000E-01
  1.50000000E+00  1.50000000E+00  8.00000000E-01  8.00000000E-01  1.50000000E+00
  1.50000000E+00  8.00000000E-01  8.00000000E-01  1.50000000E+00  1.50000000E+00
  8.00000000E-01  8.00000000E-01  1.50000000E+00  1.50000000E+00  8.00000000E-01
  8.00000000E-01  1.50000000E+00  1.50000000E+00  8.00000000E-01  8.00000000E-01
  1.50000000E+00  1.50000000E+00  8.00000000E-01  8.00000000E-01  1.50000000E+00
  1.50000000E+00  8.00000000E-01  8.00000000E-01  1.50000000E+00  1.50000000E+00
  8.00000000E-01  8.00000000E-01  1.50000000E+00  1.50000000E+00  8.00000000E-01
  8.00000000E-01  1.50000000E+00  1.50000000E+00  8.00000000E-01  8.00000000E-01
  1.50000000E+00  1.50000000E+00  8.00000000E-01  8.00000000E-01  1.50000000E+00
  1.50000000E+00  8.00000000E-01  8.00000000E-01  1.50000000E+00  1.50000000E+00
  8.00000000E-01  8.00000000E-01  1.50000000E+00  1.50000000E+00  8.00000000E-01
  8.00000000E-01  1.50000000E+00  1.50000000E+00  8.00000000E-01  8.00000000E-01
  1.50000000E+00  1.50000000E+00  8.00000000E-01  8.00000000E-01  1.50000000E+00
  1.50000000E+00  8.00000000E-01  8.00000000E-01  1.50000000E+00  1.50000000E+00
  8.00000000E-01  8.00000000E-01  1.50000000E+00  1.50000000E+00  8.00000000E-01
  8.00000000E-01  1.50000000E+00  1.50000000E+00  8.00000000E-01  8.00000000E-01
  1.50000000E+00  1.50000000E+00  8.00000000E-01  8.00000000E-01  1.50000000E+00
  1.50000000E+00  8.00000000E-01  8.00000000E-01  1.50000000E+00  1.50000000E+00
  8.00000000E-01  8.00000000E-01  1.50000000E+00  1.50000000E+00  8.00000000E-01
  8.00000000E-01  1.50000000E+00  1.50000000E+00  8.00000000E-01  8.00000000E-01
  1.50000000E+00  1.50000000E+00  8.00000000E-01  8.00000000E-01  1.50000000E+00
  1.50000000E+00  8.00000000E-01  8.00000000E-01  1.50000000E+00  1.50000000E+00
  8.00000000E-01  8.00000000E-01  1.50000000E+00  1.50000000E+00  8.00000000E-01
  8.00000000E-01  1.50000000E+00  1.50000000E+00  8.00000000E-01  8.00000000E-01
  1.50000000E+00  1.50000000E+00  8.00000000E-01  8.00000000E-01  1.50000000E+00
  1.50000000E+00  8.00000000E-01  8.00000000E-01  1.50000000E+00  1.50000000E+00
  8.00000000E-01  8.00000000E-01  1.50000000E+00  1.50000000E+00  8.00000000E-01
  8.00000000E-01  1.50000000E+00  1.50000000E+00  8.00000000E-01  8.00000000E-01
  1.50000000E+00  1.50000000E+00  8.00000000E-01  8.00000000E-01  1.50000000E+00
  1.50000000E+00  8.00000000E-01  8.00000000E-01  1.50000000E+00  1.50000000E+00
  8.00000000E-01  8.00000000E-01  1.50000000E+00  1.50000000E+00  8.00000000E-01
  8.00000000E-01  1.50000000E+00  1.50000000E+00  8.00000000E-01  8.00000000E-01
  1.50000000E+00  1.50000000E+00  8.00000000E-01  8.00000000E-01  1.50000000E+00
  1.50000000E+00  8.00000000E-01  8.00000000E-01  1.50000000E+00  1.50000000E+00
  8.00000000E-01  8.00000000E-01  1.50000000E+00  1.50000000E+00  8.00000000E-01
  8.00000000E-01  1.50000000E+00  1.50000000E+00  8.00000000E-01  8.00000000E-01
  1.50000000E+00  1.50000000E+00  8.00000000E-01  8.00000000E-01  1.50000000E+00
  1.50000000E+00  8.00000000E-01  8.00000000E-01  1.50000000E+00  1.50000000E+00
  8.00000000E-01  8.00000000E-01  1.50000000E+00  1.50000000E+00  8.00000000E-01
  8.00000000E-01  1.50000000E+00  1.50000000E+00  8.00000000E-01  8.00000000E-01
  1.50000000E+00  1.50000000E+00  8.00000000E-01  8.00000000E-01  1.50000000E+00
  1.50000000E+00  8.00000000E-01  8.00000000E-01  1.50000000E+00  1.50000000E+00
  8.00000000E-01  8.00000000E-01  1.50000000E+00  1.50000000E+00  8.00000000E-01
  8.00000000E-01  1.50000000E+00  1.50000000E+00  8.00000000E-01  8.00000000E-01
  1.50000000E+00  1.50000000E+00  8.00000000E-01  8.00000000E-01  1.50000000E+00
  1.50000000E+00  8.00000000E-01  8.00000000E-01  1.50000000E+00  1.50000000E+00
  8.00000000E-01  8.00000000E-01  1.50000000E+00  1.50000000E+00  8.00000000E-01
  8.00000000E-01  1.50000000E+00  1.50000000E+00  8.00000000E-01  8.00000000E-01
  1.50000000E+00  1.50000000E+00  8.00000000E-01  8.00000000E-01  1.50000000E+00
  1.50000000E+00  8.00000000E-01  8.00000000E-01  1.50000000E+00  1.50000000E+00
  8.00000000E-01  8.00000000E-01  1.50000000E+00  1.50000000E+00  8.00000000E-01
  8.00000000E-01  1.50000000E+00  1.50000000E+00  8.00000000E-01  8.00000000E-01
  1.50000000E+00  1.50000000E+00  8.00000000E-01  8.00000000E-01  1.50000000E+00
  1.50000000E+00  8.00000000E-01  8.00000000E-01  1.50000000E+00  1.50000000E+00
  8.00000000E-01  8.00000000E-01  1.50000000E+00  1.50000000E+00  8.00000000E-01
  8.00000000E-01  1.50000000E+00  1.50000000E+00  8.00000000E-01  8.00000000E-01
  1.50000000E+00  1.50000000E+00  8.00000000E-01  8.00000000E-01  1.50000000E+00
  1.50000000E+00  8.00000000E-01  8.00000000E-01  1.50000000E+00  1.50000000E+00
  8.00000000E-01  8.00000000E-01  1.50000000E+00  1.50000000E+00  8.00000000E-01
  8.00000000E-01  1.50000000E+00  1.50000000E+00  8.00000000E-01  8.00000000E-01
  1.50000000E+00  1.50000000E+00  8.00000000E-01  8.00000000E-01  1.50000000E+00
  1.50000000E+00  8.00000000E-01  8.00000000E-01  1.50000000E+00  1.50000000E+00
  8.00000000E-01  8.00000000E-01  1.50000000E+00  1.50000000E+00  8.00000000E-01
  8.00000000E-01  1.50000000E+00  1.50000000E+00  8.00000000E-01  8.00000000E-01
  1.50000000E+00  1.50000000E+00  8.00000000E-01  8.00000000E-01  1.50000000E+00
  1.50000000E+00  8.00000000E-01  8.00000000E-01  1.50000000E+00  1.50000000E+00
  8.00000000E-01  8.00000000E-01  1.50000000E+00  1.50000000E+00  8.00000000E-01
  8.00000000E-01  1.50000000E+00  1.50000000E+00  8.00000000E-01  8.00000000E-01
  1.50000000E+00  1.50000000E+00  8.00000000E-01  8.00000000E-01  1.50000000E+00
  1.50000000E+00  8.00000000E-01  8.00000000E-01  1.50000000E+00  1.50000000E+00
  8.00000000E-01  8.00000000E-01  1.50000000E+00  1.50000000E+00  8.00000000E-01
  8.00000000E-01  1.50000000E+00  1.50000000E+00  8.00000000E-01  8.00000000E-01
  1.50000000E+00  1.50000000E+00  8.00000000E-01  8.00000000E-01  1.50000000E+00
  1.50000000E+00  8.00000000E-01  8.00000000E-01  1.50000000E+00  1.50000000E+00
  8.00000000E-01  8.00000000E-01  1.50000000E+00  1.50000000E+00  8.00000000E-01
  8.00000000E-01  1.50000000E+00  1.50000000E+00  8.00000000E-01  8.00000000E-01
  1.50000000E+00  1.50000000E+00  8.00000000E-01  8.00000000E-01  1.50000000E+00
  1.50000000E+00  8.00000000E-01  8.00000000E-01  1.50000000E+00  1.50000000E+00
  8.00000000E-01  8.00000000E-01  1.50000000E+00  1.50000000E+00  8.00000000E-01
  8.00000000E-01  1.50000000E+00  1.50000000E+00  8.00000000E-01  8.00000000E-01
  1.50000000E+00  1.50000000E+00  8.00000000E-01  8.00000000E-01  1.50000000E+00
  1.50000000E+00  8.00000000E-01  8.00000000E-01  1.50000000E+00  1.50000000E+00
  8.00000000E-01  8.00000000E-01  1.50000000E+00  1.50000000E+00  8.00000000E-01
  8.00000000E-01  1.50000000E+00  1.50000000E+00  8.00000000E-01  8.00000000E-01
  1.50000000E+00  1.50000000E+00  8.00000000E-01  8.00000000E-01  1.50000000E+00
  1.50000000E+00  8.00000000E-01  8.00000000E-01  1.50000000E+00  1.50000000E+00
  8.00000000E-01  8.00000000E-01  1.50000000E+00  1.50000000E+00  8.00000000E-01
  8.00000000E-01  1.50000000E+00  1.50000000E+00  8.00000000E-01  8.00000000E-01
  1.50000000E+00  1.50000000E+00  8.00000000E-01  8.00000000E-01  1.50000000E+00
  1.50000000E+00  8.00000000E-01  8.00000000E-01  1.50000000E+00  1.50000000E+00
  8.00000000E-01  8.00000000E-01  1.50000000E+00  1.50000000E+00  8.00000000E-01
  8.00000000E-01  1.50000000E+00  1.50000000E+00  8.00000000E-01  8.00000000E-01
  1.50000000E+00  1.50000000E+00  8.00000000E-01  8.00000000E-01  1.50000000E+00
  1.50000000E+00  8.00000000E-01  8.00000000E-01  1.50000000E+00  1.50000000E+00
  8.00000000E-01  8.00000000E-01  1.50000000E+00  1.50000000E+00  8.00000000E-01
  8.00000000E-01  1.50000000E+00  1.50000000E+00  8.00000000E-01  8.00000000E-01
  1.50000000E+00  1.50000000E+00  8.00000000E-01  8.00000000E-01  1.50000000E+00
  1.50000000E+00  8.00000000E-01  8.00000000E-01  1.50000000E+00  1.50000000E+00
  8.00000000E-01  8.00000000E-01  1.50000000E+00  1.50000000E+00  8.00000000E-01
  8.00000000E-01  1.50000000E+00  1.50000000E+00  8.00000000E-01  8.00000000E-01
  1.50000000E+00  1.50000000E+00  8.00000000E-01  8.00000000E-01  1.50000000E+00
  1.50000000E+00  8.00000000E-01  8.00000000E-01  1.50000000E+00  1.50000000E+00
  8.00000000E-01  8.00000000E-01  1.50000000E+00  1.50000000E+00  8.00000000E-01
  8.00000000E-01  1.50000000E+00  1.50000000E+00  8.00000000E-01  8.00000000E-01
  1.50000000E+00  1.50000000E+00  8.00000000E-01  8.00000000E-01  1.50000000E+00
  1.50000000E+00  8.00000000E-01  8.00000000E-01  1.50000000E+00  1.50000000E+00
  8.00000000E-01  8.00000000E-01  1.50000000E+00  1.50000000E+00  8.00000000E-01
  8.00000000E-01  1.50000000E+00  1.50000000E+00  8.00000000E-01  8.00000000E-01
  1.50000000E+00  1.50000000E+00  8.00000000E-01  8.00000000E-01  1.50000000E+00
  1.50000000E+00  8.00000000E-01  8.00000000E-01  1.50000000E+00  1.50000000E+00
  8.00000000E-01  8.00000000E-01  1.50000000E+00  1.50000000E+00  8.00000000E-01
  8.00000000E-01  1.50000000E+00  1.50000000E+00  8.00000000E-01  8.00000000E-01
  1.50000000E+00  1.50000000E+00  8.00000000E-01  8.00000000E-01  1.50000000E+00
  1.50000000E+00  8.00000000E-01  8.00000000E-01  1.50000000E+00  1.50000000E+00
  8.00000000E-01  8.00000000E-01  1.50000000E+00  1.50000000E+00  8.00000000E-01
  8.00000000E-01  1.50000000E+00  1.50000000E+00  8.00000000E-01  8.00000000E-01
  1.50000000E+00  1.50000000E+00  8.00000000E-01  8.00000000E-01  1.50000000E+00
  1.50000000E+00  8.00000000E-01  8.00000000E-01  1.50000000E+00  1.50000000E+00
  8.00000000E-01  8.00000000E-01  1.50000000E+00  1.50000000E+00  8.00000000E-01
  8.00000000E-01  1.50000000E+00  1.50000000E+00  8.00000000E-01  8.00000000E-01
  1.50000000E+00  1.50000000E+00  8.00000000E-01  8.00000000E-01  1.50000000E+00
  1.50000000E+00  8.00000000E-01  8.00000000E-01  1.50000000E+00  1.50000000E+00
  8.00000000E-01  8.00000000E-01  1.50000000E+00  1.50000000E+00  8.00000000E-01
  8.00000000E-01  1.50000000E+00  1.50000000E+00  8.00000000E-01  8.00000000E-01
  1.50000000E+00  1.50000000E+00  8.00000000E-01  8.00000000E-01  1.50000000E+00
  1.50000000E+00  8.00000000E-01  8.00000000E-01  1.50000000E+00  1.50000000E+00
  8.00000000E-01  8.00000000E-01  1.50000000E+00  1.50000000E+00  8.00000000E-01
  8.00000000E-01  1.50000000E+00  1.50000000E+00  8.00000000E-01  8.00000000E-01
  1.50000000E+00  1.50000000E+00  8.00000000E-01  8.00000000E-01  1.50000000E+00
  1.50000000E+00  8.00000000E-01  8.00000000E-01  1.50000000E+00  1.50000000E+00
  8.00000000E-01  8.00000000E-01  1.50000000E+00  1.50000000E+00  8.00000000E-01
  8.00000000E-01  1.50000000E+00  1.50000000E+00  8.00000000E-01  8.00000000E-01
  1.50000000E+00  1.50000000E+00  8.00000000E-01  8.00000000E-01  1.50000000E+00
  1.50000000E+00  8.00000000E-01  8.00000000E-01  1.50000000E+00  1.50000000E+00
  8.00000000E-01  8.00000000E-01  1.50000000E+00  1.50000000E+00  8.00000000E-01
  8.00000000E-01  1.50000000E+00  1.50000000E+00  8.00000000E-01  8.00000000E-01
  1.50000000E+00  1.50000000E+00  8.00000000E-01  8.00000000E-01  1.50000000E+00
  1.50000000E+00  8.00000000E-01  8.00000000E-01  1.50000000E+00  1.50000000E+00
  8.00000000E-01  8.00000000E-01  1.50000000E+00  1.50000000E+00  8.00000000E-01
  8.00000000E-01  1.50000000E+00  1.50000000E+00  8.00000000E-01  8.00000000E-01
  1.50000000E+00  1.50000000E+00  8.00000000E-01  8.00000000E-01  1.50000000E+00
  1.50000000E+00  8.00000000E-01  8.00000000E-01  1.50000000E+00  1.50000000E+00
  8.00000000E-01  8.00000000E-01  1.50000000E+00  1.50000000E+00  8.00000000E-01
  8.00000000E-01  1.50000000E+00  1.50000000E+00  8.00000000E-01  8.00000000E-01
  1.50000000E+00  1.50000000E+00  8.00000000E-01  8.00000000E-01  1.50000000E+00
  1.50000000E+00  8.00000000E-01  8.00000000E-01  1.50000000E+00  1.50000000E+00
  8.00000000E-01  8.00000000E-01  1.50000000E+00  1.50000000E+00  8.00000000E-01
  8.00000000E-01  1.50000000E+00  1.50000000E+00  8.00000000E-01  8.00000000E-01
  1.50000000E+00  1.50000000E+00  8.00000000E-01  8.00000000E-01  1.50000000E+00
  1.50000000E+00  8.00000000E-01  8.00000000E-01  1.50000000E+00  1.50000000E+00
  8.00000000E-01  8.00000000E-01  1.50000000E+00  1.50000000E+00  8.00000000E-01
  8.00000000E-01  1.50000000E+00  1.50000000E+00  8.00000000E-01  8.00000000E-01
  1.50000000E+00  1.50000000E+00  8.00000000E-01  8.00000000E-01  1.50000000E+00
  1.50000000E+00  8.00000000E-01  8.00000000E-01  1.50000000E+00  1.50000000E+00
  8.00000000E-01  8.00000000E-01  1.50000000E+00  1.50000000E+00  8.00000000E-01
  8.00000000E-01  1.50000000E+00  1.50000000E+00  8.00000000E-01  8.00000000E-01
  1.50000000E+00  1.50000000E+00  8.00000000E-01  8.00000000E-01  1.50000000E+00
  1.50000000E+00  8.00000000E-01  8.00000000E-01  1.50000000E+00  1.50000000E+00
  8.00000000E-01  8.00000000E-01  1.50000000E+00  1.50000000E+00  8.00000000E-01
  8.00000000E-01  1.50000000E+00  1.50000000E+00  8.00000000E-01  8.00000000E-01
  1.50000000E+00  1.50000000E+00  8.00000000E-01  8.00000000E-01  1.50000000E+00
  1.50000000E+00  8.00000000E-01  8.00000000E-01  1.50000000E+00  1.50000000E+00
  8.00000000E-01  8.00000000E-01  1.50000000E+00  1.50000000E+00  8.00000000E-01
  8.00000000E-01  1.50000000E+00  1.50000000E+00  8.00000000E-01  8.00000000E-01
  1.50000000E+00  1.50000000E+00  8.00000000E-01  8.00000000E-01  1.50000000E+00
  1.50000000E+00  8.00000000E-01  8.00000000E-01  1.50000000E+00  1.50000000E+00
  8.00000000E-01  8.00000000E-01  1.50000000E+00  1.50000000E+00  8.00000000E-01
  8.00000000E-01  1.50000000E+00  1.50000000E+00  8.00000000E-01  8.00000000E-01
  1.50000000E+00  1.50000000E+00  8.00000000E-01  8.00000000E-01  1.50000000E+00
  1.50000000E+00  8.00000000E-01  8.00000000E-01  1.50000000E+00  1.50000000E+00
  8.00000000E-01  8.00000000E-01  1.50000000E+00  1.50000000E+00  8.00000000E-01
  8.00000000E-01  1.50000000E+00  1.50000000E+00  8.00000000E-01  8.00000000E-01
  1.50000000E+00  1.50000000E+00  8.00000000E-01  8.00000000E-01  1.50000000E+00
  1.50000000E+00  8.00000000E-01  8.00000000E-01  1.50000000E+00  1.50000000E+00
  8.00000000E-01  8.00000000E-01  1.50000000E+00  1.50000000E+00  8.00000000E-01
  8.00000000E-01  1.50000000E+00  1.50000000E+00  8.00000000E-01  8.00000000E-01
  1.50000000E+00  1.50000000E+00  8.00000000E-01  8.00000000E-01  1.50000000E+00
  1.50000000E+00  8.00000000E-01  8.00000000E-01  1.50000000E+00  1.50000000E+00
  8.00000000E-01  8.00000000E-01  1.50000000E+00  1.50000000E+00  8.00000000E-01
  8.00000000E-01  1.50000000E+00  1.50000000E+00  8.00000000E-01  8.00000000E-01
  1.50000000E+00  1.50000000E+00  8.00000000E-01  8.00000000E-01  1.50000000E+00
  1.50000000E+00  8.00000000E-01  8.00000000E-01  1.50000000E+00  1.50000000E+00
  8.00000000E-01  8.00000000E-01  1.50000000E+00  1.50000000E+00  8.00000000E-01
  8.00000000E-01  1.50000000E+00  1.50000000E+00  8.00000000E-01  8.00000000E-01
  1.50000000E+00  1.50000000E+00  8.00000000E-01  8.00000000E-01  1.50000000E+00
  1.50000000E+00  8.00000000E-01  8.00000000E-01  1.50000000E+00  1.50000000E+00
  8.00000000E-01  8.00000000E-01  1.50000000E+00  1.50000000E+00  8.00000000E-01
  8.00000000E-01  1.50000000E+00  1.50000000E+00  8.00000000E-01  8.00000000E-01
  1.50000000E+00  1.50000000E+00  8.00000000E-01  8.00000000E-01  1.50000000E+00
  1.50000000E+00  8.00000000E-01  8.00000000E-01  1.50000000E+00  1.50000000E+00
  8.00000000E-01  8.00000000E-01  1.50000000E+00  1.50000000E+00  8.00000000E-01
  8.00000000E-01  1.50000000E+00  1.50000000E+00  8.00000000E-01  8.00000000E-01
  1.50000000E+00  1.50000000E+00  8.00000000E-01  8.00000000E-01  1.50000000E+00
  1.50000000E+00  8.00000000E-01  8.00000000E-01  1.50000000E+00  1.50000000E+00
  8.00000000E-01  8.00000000E-01  1.50000000E+00  1.50000000E+00  8.00000000E-01
  8.00000000E-01  1.50000000E+00  1.50000000E+00  8.00000000E-01  8.00000000E-01
  1.50000000E+00  1.50000000E+00  8.00000000E-01  8.00000000E-01  1.50000000E+00
  1.50000000E+00  8.00000000E-01  8.00000000E-01  1.50000000E+00  1.50000000E+00
  8.00000000E-01  8.00000000E-01  1.50000000E+00  1.50000000E+00  8.00000000E-01
  8.00000000E-01  1.50000000E+00  1.50000000E+00  8.00000000E-01  8.00000000E-01
  1.50000000E+00  1.50000000E+00  8.00000000E-01  8.00000000E-01  1.50000000E+00
  1.50000000E+00  8.00000000E-01  8.00000000E-01  1.50000000E+00  1.50000000E+00
  8.00000000E-01  8.00000000E-01  1.50000000E+00  1.50000000E+00  8.00000000E-01
  8.00000000E-01  1.50000000E+00  1.50000000E+00  8.00000000E-01  8.00000000E-01
  1.50000000E+00  1.50000000E+00  8.00000000E-01  8.00000000E-01  1.50000000E+00
  1.50000000E+00  8.00000000E-01  8.00000000E-01  1.50000000E+00  1.50000000E+00
  8.00000000E-01  8.00000000E-01  1.50000000E+00  1.50000000E+00  8.00000000E-01
  8.00000000E-01  1.50000000E+00  1.50000000E+00  8.00000000E-01  8.00000000E-01
  1.50000000E+00  1.50000000E+00  8.00000000E-01  8.00000000E-01  1.50000000E+00
  1.50000000E+00  8.00000000E-01  8.00000000E-01  1.50000000E+00  1.50000000E+00
  8.00000000E-01  8.00000000E-01  1.50000000E+00  1.50000000E+00  8.00000000E-01
  8.00000000E-01  1.50000000E+00  1.50000000E+00  8.00000000E-01  8.00000000E-01
  1.50000000E+00  1.50000000E+00  8.00000000E-01  8.00000000E-01  1.50000000E+00
  1.50000000E+00  8.00000000E-01  8.00000000E-01  1.50000000E+00  1.50000000E+00
  8.00000000E-01  8.00000000E-01  1.50000000E+00  1.50000000E+00  8.00000000E-01
  8.00000000E-01  1.50000000E+00  1.50000000E+00  8.00000000E-01  8.00000000E-01
  1.50000000E+00  1.50000000E+00  8.00000000E-01  8.00000000E-01  1.50000000E+00
  1.50000000E+00  8.00000000E-01  8.00000000E-01  1.50000000E+00  1.50000000E+00
  8.00000000E-01  8.00000000E-01  1.50000000E+00  1.50000000E+00  8.00000000E-01
  8.00000000E-01  1.50000000E+00  1.50000000E+00  8.00000000E-01  8.00000000E-01
  1.50000000E+00  1.50000000E+00  8.00000000E-01  8.00000000E-01  1.50000000E+00
  1.50000000E+00  8.00000000E-01  8.00000000E-01  1.50000000E+00  1.50000000E+00
  8.00000000E-01  8.00000000E-01  1.50000000E+00  1.50000000E+00  8.00000000E-01
  8.00000000E-01  1.50000000E+00  1.50000000E+00  8.00000000E-01  8.00000000E-01
  1.50000000E+00  1.50000000E+00  8.00000000E-01  8.00000000E-01  1.50000000E+00
  1.50000000E+00  8.00000000E-01  8.00000000E-01  1.50000000E+00  1.50000000E+00
  8.00000000E-01  8.00000000E-01  1.50000000E+00  1.50000000E+00  8.00000000E-01
  8.00000000E-01  1.50000000E+00  1.50000000E+00  8.00000000E-01  8.00000000E-01
  1.50000000E+00  1.50000000E+00  8.00000000E-01  8.00000000E-01  1.50000000E+00
  1.50000000E+00  8.00000000E-01  8.00000000E-01  1.50000000E+00  1.50000000E+00
  8.00000000E-01  8.00000000E-01  1.50000000E+00  1.50000000E+00  8.00000000E-01
  8.00000000E-01  1.50000000E+00  1.50000000E+00  8.00000000E-01  8.00000000E-01
  1.50000000E+00  1.50000000E+00  8.00000000E-01  8.00000000E-01  1.50000000E+00
  1.50000000E+00  8.00000000E-01  8.00000000E-01  1.50000000E+00  1.50000000E+00
  8.00000000E-01  8.00000000E-01  1.50000000E+00  1.50000000E+00  8.00000000E-01
  8.00000000E-01  1.50000000E+00  1.50000000E+00  8.00000000E-01  8.00000000E-01
  1.50000000E+00  1.50000000E+00  8.00000000E-01  8.00000000E-01  1.50000000E+00
  1.50000000E+00  8.00000000E-01  8.00000000E-01  1.50000000E+00  1.50000000E+00
  8.00000000E-01  8.00000000E-01  1.50000000E+00  1.50000000E+00  8.00000000E-01
  8.00000000E-01  1.50000000E+00  1.50000000E+00  8.00000000E-01  8.00000000E-01
  1.50000000E+00  1.50000000E+00  8.00000000E-01  8.00000000E-01  1.50000000E+00
  1.50000000E+00  8.00000000E-01  8.00000000E-01  1.50000000E+00  1.50000000E+00
  8.00000000E-01  8.00000000E-01  1.50000000E+00  1.50000000E+00  8.00000000E-01
  8.00000000E-01  1.50000000E+00  1.50000000E+00  8.00000000E-01  8.00000000E-01
  1.50000000E+00  1.50000000E+00  8.00000000E-01  8.00000000E-01  1.50000000E+00
  1.50000000E+00  8.00000000E-01  8.00000000E-01  1.50000000E+00  1.50000000E+00
  8.00000000E-01  8.00000000E-01  1.50000000E+00  1.50000000E+00  8.00000000E-01
  8.00000000E-01  1.50000000E+00  1.50000000E+00  8.00000000E-01  8.00000000E-01
  1.50000000E+00  1.50000000E+00  8.00000000E-01  8.00000000E-01  1.50000000E+00
  1.50000000E+00  8.00000000E-01  8.00000000E-01  1.50000000E+00  1.50000000E+00
  8.00000000E-01  8.00000000E-01  1.50000000E+00  1.50000000E+00  8.00000000E-01
  8.00000000E-01  1.50000000E+00  1.50000000E+00  8.00000000E-01  8.00000000E-01
  1.50000000E+00  1.50000000E+00  8.00000000E-01  8.00000000E-01  1.50000000E+00
  1.50000000E+00  8.00000000E-01  8.00000000E-01  1.50000000E+00  1.50000000E+00
  8.00000000E-01  8.00000000E-01  1.50000000E+00  1.50000000E+00  8.00000000E-01
  8.00000000E-01  1.50000000E+00  1.50000000E+00  8.00000000E-01  8.00000000E-01
  1.50000000E+00  1.50000000E+00  8.00000000E-01  8.00000000E-01  1.50000000E+00
  1.50000000E+00  8.00000000E-01  8.00000000E-01  1.50000000E+00  1.50000000E+00
  8.00000000E-01  8.00000000E-01  1.50000000E+00  1.50000000E+00  8.00000000E-01
  8.00000000E-01  1.50000000E+00  1.50000000E+00  8.00000000E-01  8.00000000E-01
  1.50000000E+00  1.50000000E+00  8.00000000E-01  8.00000000E-01  1.50000000E+00
  1.50000000E+00  8.00000000E-01  8.00000000E-01  1.50000000E+00  1.50000000E+00
  8.00000000E-01  8.00000000E-01  1.50000000E+00  1.50000000E+00  8.00000000E-01
  8.00000000E-01  1.50000000E+00  1.50000000E+00  8.00000000E-01  8.00000000E-01
  1.50000000E+00  1.50000000E+00  8.00000000E-01  8.00000000E-01  1.50000000E+00
  1.50000000E+00  8.00000000E-01  8.00000000E-01  1.50000000E+00  1.50000000E+00
  8.00000000E-01  8.00000000E-01  1.50000000E+00  1.50000000E+00  8.00000000E-01
  8.00000000E-01  1.50000000E+00  1.50000000E+00  8.00000000E-01  8.00000000E-01
  1.50000000E+00  1.50000000E+00  8.00000000E-01  8.00000000E-01  1.50000000E+00
  1.50000000E+00  8.00000000E-01  8.00000000E-01  1.50000000E+00  1.50000000E+00
  8.00000000E-01  8.00000000E-01  1.50000000E+00  1.50000000E+00  8.00000000E-01
  8.00000000E-01  1.50000000E+00  1.50000000E+00  8.00000000E-01  8.00000000E-01
  1.50000000E+00  1.50000000E+00  8.00000000E-01  8.00000000E-01  1.50000000E+00
  1.50000000E+00  8.00000000E-01  8.00000000E-01  1.50000000E+00  1.50000000E+00
  8.00000000E-01  8.00000000E-01  1.50000000E+00  1.50000000E+00  8.00000000E-01
  8.00000000E-01  1.50000000E+00  1.50000000E+00  8.00000000E-01  8.00000000E-01
  1.50000000E+00  1.50000000E+00  8.00000000E-01  8.00000000E-01  1.50000000E+00
  1.50000000E+00  8.00000000E-01  8.00000000E-01  1.50000000E+00  1.50000000E+00
  8.00000000E-01  8.00000000E-01  1.50000000E+00  1.50000000E+00  8.00000000E-01
  8.00000000E-01  1.50000000E+00  1.50000000E+00  8.00000000E-01  8.00000000E-01
  1.50000000E+00  1.50000000E+00  8.00000000E-01  8.00000000E-01  1.50000000E+00
  1.50000000E+00  8.00000000E-01  8.00000000E-01  1.50000000E+00  1.50000000E+00
  8.00000000E-01  8.00000000E-01  1.50000000E+00  1.50000000E+00  8.00000000E-01
  8.00000000E-01  1.50000000E+00  1.50000000E+00  8.00000000E-01  8.00000000E-01
  1.50000000E+00  1.50000000E+00  8.00000000E-01  8.00000000E-01  1.50000000E+00
  1.50000000E+00  8.00000000E-01  8.00000000E-01  1.50000000E+00  1.50000000E+00
  8.00000000E-01  8.00000000E-01  1.50000000E+00  1.50000000E+00  8.00000000E-01
  8.00000000E-01  1.50000000E+00  1.50000000E+00  8.00000000E-01  8.00000000E-01
  1.50000000E+00  1.50000000E+00  8.00000000E-01  8.00000000E-01  1.50000000E+00
  1.50000000E+00  8.00000000E-01  8.00000000E-01  1.50000000E+00  1.50000000E+00
  8.00000000E-01  8.00000000E-01  1.50000000E+00  1.50000000E+00  8.00000000E-01
  8.00000000E-01  1.50000000E+00  1.50000000E+00  8.00000000E-01  8.00000000E-01
  1.50000000E+00  1.50000000E+00  8.00000000E-01  8.00000000E-01  1.50000000E+00
  1.50000000E+00  8.00000000E-01  8.00000000E-01  1.50000000E+00  1.50000000E+00
  8.00000000E-01  8.00000000E-01  1.50000000E+00  1.50000000E+00  8.00000000E-01
  8.00000000E-01  1.50000000E+00  1.50000000E+00  8.00000000E-01  8.00000000E-01
  1.50000000E+00  1.50000000E+00  8.00000000E-01  8.00000000E-01  1.50000000E+00
  1.50000000E+00  8.00000000E-01  8.00000000E-01  1.50000000E+00  1.50000000E+00
  8.00000000E-01  8.00000000E-01  1.50000000E+00  1.50000000E+00  8.00000000E-01
  8.00000000E-01  1.50000000E+00  1.50000000E+00  8.00000000E-01  8.00000000E-01
  1.50000000E+00  1.50000000E+00  8.00000000E-01  8.00000000E-01  1.50000000E+00
  1.50000000E+00  8.00000000E-01  8.00000000E-01  1.50000000E+00  1.50000000E+00
  8.00000000E-01  8.00000000E-01  1.50000000E+00  1.50000000E+00  8.00000000E-01
  8.00000000E-01  1.50000000E+00  1.50000000E+00  8.00000000E-01  8.00000000E-01
  1.50000000E+00  1.50000000E+00  8.00000000E-01  8.00000000E-01  1.50000000E+00
  1.50000000E+00  8.00000000E-01  8.00000000E-01  1.50000000E+00  1.50000000E+00
  8.00000000E-01  8.00000000E-01  1.50000000E+00  1.50000000E+00  8.00000000E-01
  8.00000000E-01  1.50000000E+00  1.50000000E+00  8.00000000E-01  8.00000000E-01
  1.50000000E+00  1.50000000E+00  8.00000000E-01  8.00000000E-01  1.50000000E+00
  1.50000000E+00  8.00000000E-01  8.00000000E-01  1.50000000E+00  1.50000000E+00
  8.00000000E-01  8.00000000E-01  1.50000000E+00  1.50000000E+00  8.00000000E-01
  8.00000000E-01  1.50000000E+00  1.50000000E+00  8.00000000E-01  8.00000000E-01
  1.50000000E+00  1.50000000E+00  8.00000000E-01  8.00000000E-01  1.50000000E+00
  1.50000000E+00  8.00000000E-01  8.00000000E-01  1.50000000E+00  1.50000000E+00
  8.00000000E-01  8.00000000E-01  1.50000000E+00  1.50000000E+00  8.00000000E-01
  8.00000000E-01  1.50000000E+00  1.50000000E+00  8.00000000E-01  8.00000000E-01
  1.50000000E+00  1.50000000E+00  8.00000000E-01  8.00000000E-01  1.50000000E+00
  1.50000000E+00  8.00000000E-01  8.00000000E-01  1.50000000E+00  1.50000000E+00
  8.00000000E-01  8.00000000E-01  1.50000000E+00  1.50000000E+00  8.00000000E-01
  8.00000000E-01  1.50000000E+00  1.50000000E+00  8.00000000E-01  8.00000000E-01
  1.50000000E+00  1.50000000E+00  8.00000000E-01  8.00000000E-01  1.50000000E+00
  1.50000000E+00  8.00000000E-01  8.00000000E-01  1.50000000E+00  1.50000000E+00
  8.00000000E-01  8.00000000E-01  1.50000000E+00  1.50000000E+00  8.00000000E-01
  8.00000000E-01  1.50000000E+00  1.50000000E+00  8.00000000E-01  8.00000000E-01
  1.50000000E+00  1.50000000E+00  8.00000000E-01  8.00000000E-01  1.50000000E+00
  1.50000000E+00  8.00000000E-01  8.00000000E-01  1.50000000E+00  1.50000000E+00
  8.00000000E-01  8.00000000E-01  1.50000000E+00  1.50000000E+00  8.00000000E-01
  8.00000000E-01  1.50000000E+00  1.50000000E+00  8.00000000E-01  8.00000000E-01
  1.50000000E+00  1.50000000E+00  8.00000000E-01  8.00000000E-01  1.50000000E+00
  1.50000000E+00  8.00000000E-01  8.00000000E-01  1.50000000E+00  1.50000000E+00
  8.00000000E-01  8.00000000E-01  1.50000000E+00  1.50000000E+00  8.00000000E-01
  8.00000000E-01  1.50000000E+00  1.50000000E+00  8.00000000E-01  8.00000000E-01
  1.50000000E+00  1.50000000E+00  8.00000000E-01  8.00000000E-01  1.50000000E+00
  1.50000000E+00  8.00000000E-01  8.00000000E-01  1.50000000E+00  1.50000000E+00
  8.00000000E-01  8.00000000E-01  1.50000000E+00  1.50000000E+00  8.00000000E-01
  8.00000000E-01  1.50000000E+00  1.50000000E+00  8.00000000E-01  8.00000000E-01
  1.50000000E+00  1.50000000E+00  8.00000000E-01  8.00000000E-01  1.50000000E+00
  1.50000000E+00  8.00000000E-01  8.00000000E-01  1.50000000E+00  1.50000000E+00
  8.00000000E-01  8.00000000E-01  1.50000000E+00  1.50000000E+00  8.00000000E-01
  8.00000000E-01  1.50000000E+00  1.50000000E+00  8.00000000E-01  8.00000000E-01
  1.50000000E+00  1.50000000E+00  8.00000000E-01  8.00000000E-01  1.50000000E+00
  1.50000000E+00  8.00000000E-01  8.00000000E-01  1.50000000E+00  1.50000000E+00
  8.00000000E-01  8.00000000E-01  1.50000000E+00  1.50000000E+00  8.00000000E-01
  8.00000000E-01  1.50000000E+00  1.50000000E+00  8.00000000E-01  8.00000000E-01
  1.50000000E+00  1.50000000E+00  8.00000000E-01  8.00000000E-01  1.50000000E+00
  1.50000000E+00  8.00000000E-01  8.00000000E-01  1.50000000E+00  1.50000000E+00
  8.00000000E-01  8.00000000E-01  1.50000000E+00  1.50000000E+00  8.00000000E-01
  8.00000000E-01  1.50000000E+00  1.50000000E+00  8.00000000E-01  8.00000000E-01
  1.50000000E+00  1.50000000E+00  8.00000000E-01  8.00000000E-01  1.50000000E+00
  1.50000000E+00  8.00000000E-01  8.00000000E-01  1.50000000E+00  1.50000000E+00
  8.00000000E-01  8.00000000E-01  1.50000000E+00  1.50000000E+00  8.00000000E-01
  8.00000000E-01  1.50000000E+00  1.50000000E+00  8.00000000E-01  8.00000000E-01
  1.50000000E+00  1.50000000E+00  8.00000000E-01  8.00000000E-01  1.50000000E+00
  1.50000000E+00  8.00000000E-01  8.00000000E-01  1.50000000E+00  1.50000000E+00
  8.00000000E-01  8.00000000E-01  1.50000000E+00  1.50000000E+00  8.00000000E-01
  8.00000000E-01  1.50000000E+00  1.50000000E+00  8.00000000E-01  8.00000000E-01
  1.50000000E+00  1.50000000E+00  8.00000000E-01  8.00000000E-01  1.50000000E+00
  1.50000000E+00  8.00000000E-01  8.00000000E-01  1.50000000E+00  1.50000000E+00
  8.00000000E-01  8.00000000E-01  1.50000000E+00  1.50000000E+00  8.00000000E-01
  8.00000000E-01  1.50000000E+00  1.50000000E+00  8.00000000E-01  8.00000000E-01
  1.50000000E+00  1.50000000E+00  8.00000000E-01  8.00000000E-01  1.50000000E+00
  1.50000000E+00  8.00000000E-01  8.00000000E-01  1.50000000E+00  1.50000000E+00
  8.00000000E-01  8.00000000E-01  1.50000000E+00  1.50000000E+00  8.00000000E-01
  8.00000000E-01  1.50000000E+00  1.50000000E+00  8.00000000E-01  8.00000000E-01
  1.50000000E+00  1.50000000E+00  8.00000000E-01  8.00000000E-01  1.50000000E+00
  1.50000000E+00  8.00000000E-01  8.00000000E-01  1.50000000E+00  1.50000000E+00
  8.00000000E-01  8.00000000E-01  1.50000000E+00  1.50000000E+00  8.00000000E-01
  8.00000000E-01  1.50000000E+00  1.50000000E+00  8.00000000E-01  8.00000000E-01
  1.50000000E+00  1.50000000E+00  8.00000000E-01  8.00000000E-01  1.50000000E+00
  1.50000000E+00  8.00000000E-01  8.00000000E-01  1.50000000E+00  1.50000000E+00
  8.00000000E-01  8.00000000E-01  1.50000000E+00  1.50000000E+00  8.00000000E-01
  8.00000000E-01  1.50000000E+00  1.50000000E+00  8.00000000E-01  8.00000000E-01
  1.50000000E+00  1.50000000E+00  8.00000000E-01  8.00000000E-01  1.50000000E+00
  1.50000000E+00  8.00000000E-01  8.00000000E-01  1.50000000E+00  1.50000000E+00
  8.00000000E-01  8.00000000E-01  1.50000000E+00  1.50000000E+00  8.00000000E-01
  8.00000000E-01  1.50000000E+00  1.50000000E+00  8.00000000E-01  8.00000000E-01
  1.50000000E+00  1.50000000E+00  8.00000000E-01  8.00000000E-01  1.50000000E+00
  1.50000000E+00  8.00000000E-01  8.00000000E-01  1.50000000E+00  1.50000000E+00
  8.00000000E-01  8.00000000E-01  1.50000000E+00  1.50000000E+00  8.00000000E-01
  8.00000000E-01  1.50000000E+00  1.50000000E+00  8.00000000E-01  8.00000000E-01
  1.50000000E+00  1.50000000E+00  8.00000000E-01  8.00000000E-01  1.50000000E+00
  1.50000000E+00  8.00000000E-01  8.00000000E-01  1.50000000E+00  1.50000000E+00
  8.00000000E-01  8.00000000E-01  1.50000000E+00  1.50000000E+00  8.00000000E-01
  8.00000000E-01  1.50000000E+00  1.50000000E+00  8.00000000E-01  8.00000000E-01
  1.50000000E+00  1.50000000E+00  8.00000000E-01  8.00000000E-01  1.50000000E+00
  1.50000000E+00  8.00000000E-01  8.00000000E-01  1.50000000E+00  1.50000000E+00
  8.00000000E-01  8.00000000E-01  1.50000000E+00  1.50000000E+00  8.00000000E-01
  8.00000000E-01  1.50000000E+00  1.50000000E+00  8.00000000E-01  8.00000000E-01
  1.50000000E+00  1.50000000E+00  8.00000000E-01  8.00000000E-01  1.50000000E+00
  1.50000000E+00  8.00000000E-01  8.00000000E-01  1.50000000E+00  1.50000000E+00
  8.00000000E-01  8.00000000E-01  1.50000000E+00  1.50000000E+00  8.00000000E-01
  8.00000000E-01  1.50000000E+00  1.50000000E+00  8.00000000E-01  8.00000000E-01
  1.50000000E+00  1.50000000E+00  8.00000000E-01  8.00000000E-01  1.50000000E+00
  1.50000000E+00  8.00000000E-01  8.00000000E-01  1.50000000E+00  1.50000000E+00
  8.00000000E-01  8.00000000E-01  1.50000000E+00  1.50000000E+00  8.00000000E-01
  8.00000000E-01  1.50000000E+00  1.50000000E+00  8.00000000E-01  8.00000000E-01
  1.50000000E+00  1.50000000E+00  8.00000000E-01  8.00000000E-01  1.50000000E+00
  1.50000000E+00  8.00000000E-01  8.00000000E-01  1.50000000E+00  1.50000000E+00
  8.00000000E-01  8.00000000E-01  1.50000000E+00  1.50000000E+00  8.00000000E-01
  8.00000000E-01  1.50000000E+00  1.50000000E+00  8.00000000E-01  8.00000000E-01
  1.50000000E+00  1.50000000E+00  8.00000000E-01  8.00000000E-01  1.50000000E+00
  1.50000000E+00  8.00000000E-01  8.00000000E-01  1.50000000E+00  1.50000000E+00
  8.00000000E-01  8.00000000E-01  1.50000000E+00  1.50000000E+00  8.00000000E-01
  8.00000000E-01  1.50000000E+00  1.50000000E+00  8.00000000E-01  8.00000000E-01
  1.50000000E+00  1.50000000E+00  8.00000000E-01  8.00000000E-01  1.50000000E+00
  1.50000000E+00  8.00000000E-01  8.00000000E-01  1.50000000E+00  1.50000000E+00
  8.00000000E-01  8.00000000E-01  1.50000000E+00  1.50000000E+00  8.00000000E-01
  8.00000000E-01  1.50000000E+00  1.50000000E+00  8.00000000E-01  8.00000000E-01
  1.50000000E+00  1.50000000E+00  8.00000000E-01  8.00000000E-01  1.50000000E+00
  1.50000000E+00  8.00000000E-01  8.00000000E-01  1.50000000E+00  1.50000000E+00
  8.00000000E-01  8.00000000E-01  1.50000000E+00  1.50000000E+00  8.00000000E-01
  8.00000000E-01  1.50000000E+00  1.50000000E+00  8.00000000E-01  8.00000000E-01
  1.50000000E+00  1.50000000E+00  8.00000000E-01  8.00000000E-01  1.50000000E+00
  1.50000000E+00  8.00000000E-01  8.00000000E-01  1.50000000E+00  1.50000000E+00
  8.00000000E-01  8.00000000E-01  1.50000000E+00  1.50000000E+00  8.00000000E-01
  8.00000000E-01  1.50000000E+00  1.50000000E+00  8.00000000E-01  8.00000000E-01
  1.50000000E+00  1.50000000E+00  8.00000000E-01  8.00000000E-01  1.50000000E+00
  1.50000000E+00  8.00000000E-01  8.00000000E-01  1.50000000E+00  1.50000000E+00
  8.00000000E-01  8.00000000E-01  1.50000000E+00  1.50000000E+00  8.00000000E-01
  8.00000000E-01  1.50000000E+00  1.50000000E+00  8.00000000E-01  8.00000000E-01
  1.50000000E+00  1.50000000E+00  8.00000000E-01  8.00000000E-01  1.50000000E+00
  1.50000000E+00  8.00000000E-01  8.00000000E-01  1.50000000E+00  1.50000000E+00
  8.00000000E-01  8.00000000E-01  1.50000000E+00  1.50000000E+00  8.00000000E-01
  8.00000000E-01  1.50000000E+00  1.50000000E+00  8.00000000E-01  8.00000000E-01
  1.50000000E+00  1.50000000E+00  8.00000000E-01  8.00000000E-01  1.50000000E+00
  1.50000000E+00  8.00000000E-01  8.00000000E-01  1.50000000E+00  1.50000000E+00
  8.00000000E-01  8.00000000E-01  1.50000000E+00  1.50000000E+00  8.00000000E-01
  8.00000000E-01  1.50000000E+00  1.50000000E+00  8.00000000E-01  8.00000000E-01
  1.50000000E+00  1.50000000E+00  8.00000000E-01  8.00000000E-01  1.50000000E+00
  1.50000000E+00  8.00000000E-01  8.00000000E-01  1.50000000E+00  1.50000000E+00
  8.00000000E-01  8.00000000E-01  1.50000000E+00  1.50000000E+00  8.00000000E-01
  8.00000000E-01  1.50000000E+00  1.50000000E+00  8.00000000E-01  8.00000000E-01
  1.50000000E+00  1.50000000E+00  8.00000000E-01  8.00000000E-01  1.50000000E+00
  1.50000000E+00  8.00000000E-01  8.00000000E-01  1.50000000E+00  1.50000000E+00
  8.00000000E-01  8.00000000E-01  1.50000000E+00  1.50000000E+00  8.00000000E-01
  8.00000000E-01  1.50000000E+00  1.50000000E+00  8.00000000E-01  8.00000000E-01
  1.50000000E+00  1.50000000E+00  8.00000000E-01  8.00000000E-01  1.50000000E+00
  1.50000000E+00  8.00000000E-01  8.00000000E-01  1.50000000E+00  1.50000000E+00
  8.00000000E-01  8.00000000E-01  1.50000000E+00  1.50000000E+00  8.00000000E-01
  8.00000000E-01  1.50000000E+00  1.50000000E+00  8.00000000E-01  8.00000000E-01
  1.50000000E+00  1.50000000E+00  8.00000000E-01  8.00000000E-01  1.50000000E+00
  1.50000000E+00  8.00000000E-01  8.00000000E-01  1.50000000E+00  1.50000000E+00
  8.00000000E-01  8.00000000E-01  1.50000000E+00  1.50000000E+00  8.00000000E-01
  8.00000000E-01  1.50000000E+00  1.50000000E+00  8.00000000E-01  8.00000000E-01
  1.50000000E+00  1.50000000E+00  8.00000000E-01  8.00000000E-01  1.50000000E+00
  1.50000000E+00  8.00000000E-01  8.00000000E-01  1.50000000E+00  1.50000000E+00
  8.00000000E-01  8.00000000E-01  1.50000000E+00  1.50000000E+00  8.00000000E-01
  8.00000000E-01  1.50000000E+00  1.50000000E+00  8.00000000E-01  8.00000000E-01
  1.50000000E+00  1.50000000E+00  8.00000000E-01  8.00000000E-01  1.50000000E+00
  1.50000000E+00  8.00000000E-01  8.00000000E-01  1.50000000E+00  1.50000000E+00
  8.00000000E-01  8.00000000E-01  1.50000000E+00  1.50000000E+00  8.00000000E-01
  8.00000000E-01  1.50000000E+00  1.50000000E+00  8.00000000E-01  8.00000000E-01
  1.50000000E+00  1.50000000E+00  8.00000000E-01  8.00000000E-01  1.50000000E+00
  1.50000000E+00  8.00000000E-01  8.00000000E-01  1.50000000E+00  1.50000000E+00
  8.00000000E-01  8.00000000E-01  1.50000000E+00  1.50000000E+00  8.00000000E-01
  8.00000000E-01  1.50000000E+00  1.50000000E+00  8.00000000E-01  8.00000000E-01
  1.50000000E+00  1.50000000E+00  8.00000000E-01  8.00000000E-01  1.50000000E+00
  1.50000000E+00  8.00000000E-01  8.00000000E-01  1.50000000E+00  1.50000000E+00
  8.00000000E-01  8.00000000E-01  1.50000000E+00  1.50000000E+00  8.00000000E-01
  8.00000000E-01  1.50000000E+00  1.50000000E+00  8.00000000E-01  8.00000000E-01
  1.50000000E+00  1.50000000E+00  8.00000000E-01  8.00000000E-01  1.50000000E+00
  1.50000000E+00  8.00000000E-01  8.00000000E-01  1.50000000E+00  1.50000000E+00
  8.00000000E-01  8.00000000E-01  1.50000000E+00  1.50000000E+00  8.00000000E-01
  8.00000000E-01  1.50000000E+00  1.50000000E+00  8.00000000E-01  8.00000000E-01
  1.50000000E+00  1.50000000E+00  8.00000000E-01  8.00000000E-01  1.50000000E+00
  1.50000000E+00  8.00000000E-01  8.00000000E-01  1.50000000E+00  1.50000000E+00
  8.00000000E-01  8.00000000E-01  1.50000000E+00  1.50000000E+00  8.00000000E-01
  8.00000000E-01  1.50000000E+00  1.50000000E+00  8.00000000E-01  8.00000000E-01
  1.50000000E+00  1.50000000E+00  8.00000000E-01  8.00000000E-01  1.50000000E+00
  1.50000000E+00  8.00000000E-01  8.00000000E-01  1.50000000E+00  1.50000000E+00
  8.00000000E-01  8.00000000E-01  1.50000000E+00  1.50000000E+00  8.00000000E-01
  8.00000000E-01  1.50000000E+00  1.50000000E+00  8.00000000E-01  8.00000000E-01
  1.50000000E+00  1.50000000E+00  8.00000000E-01  8.00000000E-01  1.50000000E+00
  1.50000000E+00  8.00000000E-01  8.00000000E-01  1.50000000E+00  1.50000000E+00
  8.00000000E-01  8.00000000E-01  1.50000000E+00  1.50000000E+00  8.00000000E-01
  8.00000000E-01  1.50000000E+00  1.50000000E+00  8.00000000E-01  8.00000000E-01
  1.50000000E+00  1.50000000E+00  8.00000000E-01  8.00000000E-01  1.50000000E+00
  1.50000000E+00  8.00000000E-01  8.00000000E-01  1.50000000E+00  1.50000000E+00
  8.00000000E-01  8.00000000E-01  1.50000000E+00  1.50000000E+00  8.00000000E-01
  8.00000000E-01  1.50000000E+00  1.50000000E+00  8.00000000E-01  8.00000000E-01
  1.50000000E+00  1.50000000E+00  8.00000000E-01  8.00000000E-01  1.50000000E+00
  1.50000000E+00  8.00000000E-01  8.00000000E-01  1.50000000E+00  1.50000000E+00
  8.00000000E-01  8.00000000E-01  1.50000000E+00  1.50000000E+00  8.00000000E-01
  8.00000000E-01  1.50000000E+00  1.50000000E+00  8.00000000E-01  8.00000000E-01
  1.50000000E+00  1.50000000E+00  8.00000000E-01  8.00000000E-01  1.50000000E+00
  1.50000000E+00  8.00000000E-01  8.00000000E-01  1.50000000E+00  1.50000000E+00
  8.00000000E-01  8.00000000E-01  1.50000000E+00  1.50000000E+00  8.00000000E-01
  8.00000000E-01  1.50000000E+00  1.50000000E+00  8.00000000E-01  8.00000000E-01
  1.50000000E+00  1.50000000E+00  8.00000000E-01  8.00000000E-01  1.50000000E+00
  1.50000000E+00  8.00000000E-01  8.00000000E-01  1.50000000E+00  1.50000000E+00
  8.00000000E-01  8.00000000E-01  1.50000000E+00  1.50000000E+00  8.00000000E-01
  8.00000000E-01  1.50000000E+00  1.50000000E+00  8.00000000E-01  8.00000000E-01
  1.50000000E+00  1.50000000E+00  8.00000000E-01  8.00000000E-01  1.50000000E+00
  1.50000000E+00  8.00000000E-01  8.00000000E-01  1.50000000E+00  1.50000000E+00
  8.00000000E-01  8.00000000E-01  1.50000000E+00  1.50000000E+00  8.00000000E-01
  8.00000000E-01  1.50000000E+00  1.50000000E+00  8.00000000E-01  8.00000000E-01
  1.50000000E+00  1.50000000E+00  8.00000000E-01  8.00000000E-01  1.50000000E+00
  1.50000000E+00  8.00000000E-01  8.00000000E-01  1.50000000E+00  1.50000000E+00
  8.00000000E-01  8.00000000E-01  1.50000000E+00  1.50000000E+00  8.00000000E-01
  8.00000000E-01  1.50000000E+00  1.50000000E+00  8.00000000E-01  8.00000000E-01
  1.50000000E+00  1.50000000E+00  8.00000000E-01  8.00000000E-01  1.50000000E+00
  1.50000000E+00  8.00000000E-01  8.00000000E-01  1.50000000E+00  1.50000000E+00
  8.00000000E-01  8.00000000E-01  1.50000000E+00  1.50000000E+00  8.00000000E-01
  8.00000000E-01  1.50000000E+00  1.50000000E+00  8.00000000E-01  8.00000000E-01
  1.50000000E+00  1.50000000E+00  8.00000000E-01  8.00000000E-01  1.50000000E+00
  1.50000000E+00  8.00000000E-01  8.00000000E-01  1.50000000E+00  1.50000000E+00
  8.00000000E-01  8.00000000E-01  1.50000000E+00  1.50000000E+00  8.00000000E-01
  8.00000000E-01  1.50000000E+00  1.50000000E+00  8.00000000E-01  8.00000000E-01
  1.50000000E+00  1.50000000E+00  8.00000000E-01  8.00000000E-01  1.50000000E+00
  1.50000000E+00  8.00000000E-01  8.00000000E-01  1.50000000E+00  1.50000000E+00
  8.00000000E-01  8.00000000E-01  1.50000000E+00  1.50000000E+00  8.00000000E-01
  8.00000000E-01  1.50000000E+00  1.50000000E+00  8.00000000E-01  8.00000000E-01
  1.50000000E+00  1.50000000E+00  8.00000000E-01  8.00000000E-01  1.50000000E+00
  1.50000000E+00  8.00000000E-01  8.00000000E-01  1.50000000E+00  1.50000000E+00
  8.00000000E-01  8.00000000E-01  1.50000000E+00  1.50000000E+00  8.00000000E-01
  8.00000000E-01  1.50000000E+00  1.50000000E+00  8.00000000E-01  8.00000000E-01
  1.50000000E+00  1.50000000E+00  8.00000000E-01  8.00000000E-01  1.50000000E+00
  1.50000000E+00  8.00000000E-01  8.00000000E-01  1.50000000E+00  1.50000000E+00
  8.00000000E-01  8.00000000E-01  1.50000000E+00  1.50000000E+00  8.00000000E-01
  8.00000000E-01  1.50000000E+00  1.50000000E+00  8.00000000E-01  8.00000000E-01
  1.50000000E+00  1.50000000E+00  8.00000000E-01  8.00000000E-01  1.50000000E+00
  1.50000000E+00  8.00000000E-01  8.00000000E-01  1.50000000E+00  1.50000000E+00
  8.00000000E-01  8.00000000E-01  1.50000000E+00  1.50000000E+00  8.00000000E-01
  8.00000000E-01  1.50000000E+00  1.50000000E+00  8.00000000E-01  8.00000000E-01
  1.50000000E+00  1.50000000E+00  8.00000000E-01  8.00000000E-01  1.50000000E+00
  1.50000000E+00  8.00000000E-01  8.00000000E-01  1.50000000E+00  1.50000000E+00
  8.00000000E-01  8.00000000E-01  1.50000000E+00  1.50000000E+00  8.00000000E-01
  8.00000000E-01  1.50000000E+00  1.50000000E+00  8.00000000E-01  8.00000000E-01
  1.50000000E+00  1.50000000E+00  8.00000000E-01  8.00000000E-01  1.50000000E+00
  1.50000000E+00  8.00000000E-01  8.00000000E-01  1.50000000E+00  1.50000000E+00
  8.00000000E-01  8.00000000E-01  1.50000000E+00  1.50000000E+00  8.00000000E-01
  8.00000000E-01  1.50000000E+00  1.50000000E+00  8.00000000E-01  8.00000000E-01
  1.50000000E+00  1.50000000E+00  8.00000000E-01  8.00000000E-01  1.50000000E+00
  1.50000000E+00  8.00000000E-01  8.00000000E-01  1.50000000E+00  1.50000000E+00
  8.00000000E-01  8.00000000E-01  1.50000000E+00  1.50000000E+00  8.00000000E-01
  8.00000000E-01  1.50000000E+00  1.50000000E+00  8.00000000E-01  8.00000000E-01
  1.50000000E+00  1.50000000E+00  8.00000000E-01  8.00000000E-01  1.50000000E+00
  1.50000000E+00  8.00000000E-01  8.00000000E-01  1.50000000E+00  1.50000000E+00
  8.00000000E-01  8.00000000E-01  1.50000000E+00  1.50000000E+00  8.00000000E-01
  8.00000000E-01  1.50000000E+00  1.50000000E+00  8.00000000E-01  8.00000000E-01
  1.50000000E+00  1.50000000E+00  8.00000000E-01  8.00000000E-01  1.50000000E+00
  1.50000000E+00  8.00000000E-01  8.00000000E-01  1.50000000E+00  1.50000000E+00
  8.00000000E-01  8.00000000E-01  1.50000000E+00  1.50000000E+00  8.00000000E-01
  8.00000000E-01  1.50000000E+00  1.50000000E+00  8.00000000E-01  8.00000000E-01
  1.50000000E+00  1.50000000E+00  8.00000000E-01  8.00000000E-01  1.50000000E+00
  1.50000000E+00  8.00000000E-01  8.00000000E-01  1.50000000E+00  1.50000000E+00
  8.00000000E-01  8.00000000E-01  1.50000000E+00  1.50000000E+00  8.00000000E-01
  8.00000000E-01  1.50000000E+00  1.50000000E+00  8.00000000E-01  8.00000000E-01
  1.50000000E+00  1.50000000E+00  8.00000000E-01  8.00000000E-01  1.50000000E+00
  1.50000000E+00  8.00000000E-01  8.00000000E-01  1.50000000E+00  1.50000000E+00
  8.00000000E-01  8.00000000E-01  1.50000000E+00  1.50000000E+00  8.00000000E-01
  8.00000000E-01  1.50000000E+00  1.50000000E+00  8.00000000E-01  8.00000000E-01
  1.50000000E+00  1.50000000E+00  8.00000000E-01  8.00000000E-01  1.50000000E+00
  1.50000000E+00  8.00000000E-01  8.00000000E-01  1.50000000E+00  1.50000000E+00
  8.00000000E-01  8.00000000E-01  1.50000000E+00  1.50000000E+00  8.00000000E-01
  8.00000000E-01  1.50000000E+00  1.50000000E+00  8.00000000E-01  8.00000000E-01
  1.50000000E+00  1.50000000E+00  8.00000000E-01  8.00000000E-01  1.50000000E+00
  1.50000000E+00  8.00000000E-01  8.00000000E-01  1.50000000E+00  1.50000000E+00
  8.00000000E-01  8.00000000E-01  1.50000000E+00  1.50000000E+00  8.00000000E-01
  8.00000000E-01  1.50000000E+00  1.50000000E+00  8.00000000E-01  8.00000000E-01
  1.50000000E+00  1.50000000E+00  8.00000000E-01  8.00000000E-01  1.50000000E+00
  1.50000000E+00  8.00000000E-01  8.00000000E-01  1.50000000E+00  1.50000000E+00
  8.00000000E-01  8.00000000E-01  1.50000000E+00  1.50000000E+00  8.00000000E-01
  8.00000000E-01  1.50000000E+00  1.50000000E+00  8.00000000E-01  8.00000000E-01
  1.50000000E+00  1.50000000E+00  8.00000000E-01  8.00000000E-01  1.50000000E+00
  1.50000000E+00  8.00000000E-01  8.00000000E-01  1.50000000E+00  1.50000000E+00
  8.00000000E-01  8.00000000E-01  1.50000000E+00  1.50000000E+00  8.00000000E-01
  8.00000000E-01  1.50000000E+00  1.50000000E+00  8.00000000E-01  8.00000000E-01
  1.50000000E+00  1.50000000E+00  8.00000000E-01  8.00000000E-01  1.50000000E+00
  1.50000000E+00  8.00000000E-01  8.00000000E-01  1.50000000E+00  1.50000000E+00
  8.00000000E-01  8.00000000E-01  1.50000000E+00  1.50000000E+00  8.00000000E-01
  8.00000000E-01  1.50000000E+00  1.50000000E+00  8.00000000E-01  8.00000000E-01
  1.50000000E+00  1.50000000E+00  8.00000000E-01  8.00000000E-01  1.50000000E+00
  1.50000000E+00  8.00000000E-01  8.00000000E-01  1.50000000E+00  1.50000000E+00
  8.00000000E-01  8.00000000E-01  1.50000000E+00  1.50000000E+00  8.00000000E-01
  8.00000000E-01  1.50000000E+00  1.50000000E+00  8.00000000E-01  8.00000000E-01
  1.50000000E+00  1.50000000E+00  8.00000000E-01  8.00000000E-01  1.50000000E+00
  1.50000000E+00  8.00000000E-01  8.00000000E-01  1.50000000E+00  1.50000000E+00
  8.00000000E-01  8.00000000E-01  1.50000000E+00  1.50000000E+00  8.00000000E-01
  8.00000000E-01  1.50000000E+00  1.50000000E+00  8.00000000E-01  8.00000000E-01
  1.50000000E+00  1.50000000E+00  8.00000000E-01  8.00000000E-01  1.50000000E+00
  1.50000000E+00  8.00000000E-01  8.00000000E-01  1.50000000E+00  1.50000000E+00
  8.00000000E-01  8.00000000E-01  1.50000000E+00  1.50000000E+00  8.00000000E-01
  8.00000000E-01  1.50000000E+00  1.50000000E+00  8.00000000E-01  8.00000000E-01
  1.50000000E+00  1.50000000E+00  8.00000000E-01  8.00000000E-01  1.50000000E+00
  1.50000000E+00  8.00000000E-01  8.00000000E-01  1.50000000E+00  1.50000000E+00
  8.00000000E-01  8.00000000E-01  1.50000000E+00  1.50000000E+00  8.00000000E-01
  8.00000000E-01  1.50000000E+00  1.50000000E+00  8.00000000E-01  8.00000000E-01
  1.50000000E+00  1.50000000E+00  8.00000000E-01  8.00000000E-01  1.50000000E+00
  1.50000000E+00  8.00000000E-01  8.00000000E-01  1.50000000E+00  1.50000000E+00
  8.00000000E-01  8.00000000E-01  1.50000000E+00  1.50000000E+00  8.00000000E-01
  8.00000000E-01  1.50000000E+00  1.50000000E+00  8.00000000E-01  8.00000000E-01
  1.50000000E+00  1.50000000E+00  8.00000000E-01  8.00000000E-01  1.50000000E+00
  1.50000000E+00  8.00000000E-01  8.00000000E-01  1.50000000E+00  1.50000000E+00
  8.00000000E-01  8.00000000E-01  1.50000000E+00  1.50000000E+00  8.00000000E-01
  8.00000000E-01  1.50000000E+00  1.50000000E+00  8.00000000E-01  8.00000000E-01
  1.50000000E+00  1.50000000E+00  8.00000000E-01  8.00000000E-01  1.50000000E+00
  1.50000000E+00  8.00000000E-01  8.00000000E-01  1.50000000E+00  1.50000000E+00
  8.00000000E-01  8.00000000E-01  1.50000000E+00  1.50000000E+00  8.00000000E-01
  8.00000000E-01  1.50000000E+00  1.50000000E+00  8.00000000E-01  8.00000000E-01
  1.50000000E+00  1.50000000E+00  8.00000000E-01  8.00000000E-01  1.50000000E+00
  1.50000000E+00  8.00000000E-01  8.00000000E-01  1.50000000E+00  1.50000000E+00
  8.00000000E-01  8.00000000E-01  1.50000000E+00  1.50000000E+00  8.00000000E-01
  8.00000000E-01  1.50000000E+00  1.50000000E+00  8.00000000E-01  8.00000000E-01
  1.50000000E+00  1.50000000E+00  8.00000000E-01  8.00000000E-01  1.50000000E+00
  1.50000000E+00  8.00000000E-01  8.00000000E-01  1.50000000E+00  1.50000000E+00
  8.00000000E-01  8.00000000E-01  1.50000000E+00  1.50000000E+00  8.00000000E-01
  8.00000000E-01  1.50000000E+00  1.50000000E+00  8.00000000E-01  8.00000000E-01
  1.50000000E+00  1.50000000E+00  8.00000000E-01  8.00000000E-01  1.50000000E+00
  1.50000000E+00  8.00000000E-01  8.00000000E-01  1.50000000E+00  1.50000000E+00
  8.00000000E-01  8.00000000E-01  1.50000000E+00  1.50000000E+00  8.00000000E-01
  8.00000000E-01  1.50000000E+00  1.50000000E+00  8.00000000E-01  8.00000000E-01
  1.50000000E+00  1.50000000E+00  8.00000000E-01  8.00000000E-01  1.50000000E+00
  1.50000000E+00  8.00000000E-01  8.00000000E-01  1.50000000E+00  1.50000000E+00
  8.00000000E-01  8.00000000E-01  1.50000000E+00  1.50000000E+00  8.00000000E-01
  8.00000000E-01  1.50000000E+00  1.50000000E+00  8.00000000E-01  8.00000000E-01
  1.50000000E+00  1.50000000E+00  8.00000000E-01  8.00000000E-01  1.50000000E+00
  1.50000000E+00  8.00000000E-01  8.00000000E-01  1.50000000E+00  1.50000000E+00
  8.00000000E-01  8.00000000E-01  1.50000000E+00  1.50000000E+00  8.00000000E-01
  8.00000000E-01  1.50000000E+00  1.50000000E+00  8.00000000E-01  8.00000000E-01
  1.50000000E+00  1.50000000E+00  8.00000000E-01  8.00000000E-01  1.50000000E+00
  1.50000000E+00  8.00000000E-01  8.00000000E-01  1.50000000E+00  1.50000000E+00
  8.00000000E-01  8.00000000E-01  1.50000000E+00  1.50000000E+00  8.00000000E-01
  8.00000000E-01  1.50000000E+00  1.50000000E+00  8.00000000E-01  8.00000000E-01
  1.50000000E+00  1.50000000E+00  8.00000000E-01  8.00000000E-01  1.50000000E+00
  1.50000000E+00  8.00000000E-01  8.00000000E-01  1.50000000E+00  1.50000000E+00
  8.00000000E-01  8.00000000E-01  1.50000000E+00  1.50000000E+00  8.00000000E-01
  8.00000000E-01  1.50000000E+00  1.50000000E+00  8.00000000E-01  8.00000000E-01
  1.50000000E+00  1.50000000E+00  8.00000000E-01  8.00000000E-01  1.50000000E+00
  1.50000000E+00  8.00000000E-01  8.00000000E-01  1.50000000E+00  1.50000000E+00
  8.00000000E-01  8.00000000E-01  1.50000000E+00  1.50000000E+00  8.00000000E-01
  8.00000000E-01  1.50000000E+00  1.50000000E+00  8.00000000E-01  8.00000000E-01
  1.50000000E+00  1.50000000E+00  8.00000000E-01  8.00000000E-01  1.50000000E+00
  1.50000000E+00  8.00000000E-01  8.00000000E-01  1.50000000E+00  1.50000000E+00
  8.00000000E-01  8.00000000E-01  1.50000000E+00  1.50000000E+00  8.00000000E-01
  8.00000000E-01  1.50000000E+00  1.50000000E+00  8.00000000E-01  8.00000000E-01
  1.50000000E+00  1.50000000E+00  8.00000000E-01  8.00000000E-01  1.50000000E+00
  1.50000000E+00  8.00000000E-01  8.00000000E-01  1.50000000E+00  1.50000000E+00
  8.00000000E-01  8.00000000E-01  1.50000000E+00  1.50000000E+00  8.00000000E-01
  8.00000000E-01  1.50000000E+00  1.50000000E+00  8.00000000E-01  8.00000000E-01
  1.50000000E+00  1.50000000E+00  8.00000000E-01  8.00000000E-01  1.50000000E+00
  1.50000000E+00  8.00000000E-01  8.00000000E-01  1.50000000E+00  1.50000000E+00
  8.00000000E-01  8.00000000E-01  1.50000000E+00  1.50000000E+00  8.00000000E-01
  8.00000000E-01  1.50000000E+00  1.50000000E+00  8.00000000E-01  8.00000000E-01
  1.50000000E+00  1.50000000E+00  8.00000000E-01  8.00000000E-01  1.50000000E+00
  1.50000000E+00  8.00000000E-01  8.00000000E-01  1.50000000E+00  1.50000000E+00
  8.00000000E-01  8.00000000E-01  1.50000000E+00  1.50000000E+00  8.00000000E-01
  8.00000000E-01  1.50000000E+00  1.50000000E+00  8.00000000E-01  8.00000000E-01
  1.50000000E+00  1.50000000E+00  8.00000000E-01  8.00000000E-01  1.50000000E+00
  1.50000000E+00  8.00000000E-01  8.00000000E-01  1.50000000E+00  1.50000000E+00
  8.00000000E-01  8.00000000E-01  1.50000000E+00  1.50000000E+00  8.00000000E-01
  8.00000000E-01  1.50000000E+00  1.50000000E+00  8.00000000E-01  8.00000000E-01
  1.50000000E+00  1.50000000E+00  8.00000000E-01  8.00000000E-01  1.50000000E+00
  1.50000000E+00  8.00000000E-01  8.00000000E-01  1.50000000E+00  1.50000000E+00
  8.00000000E-01  8.00000000E-01  1.50000000E+00  1.50000000E+00  8.00000000E-01
  8.00000000E-01  1.50000000E+00  1.50000000E+00  8.00000000E-01  8.00000000E-01
  1.50000000E+00  1.50000000E+00  8.00000000E-01  8.00000000E-01  1.50000000E+00
  1.50000000E+00  8.00000000E-01  8.00000000E-01  1.50000000E+00  1.50000000E+00
  8.00000000E-01  8.00000000E-01  1.50000000E+00  1.50000000E+00  8.00000000E-01
  8.00000000E-01  1.50000000E+00  1.50000000E+00  8.00000000E-01  8.00000000E-01
  1.50000000E+00  1.50000000E+00  8.00000000E-01  8.00000000E-01  1.50000000E+00
  1.50000000E+00  8.00000000E-01  8.00000000E-01  1.50000000E+00  1.50000000E+00
  8.00000000E-01  8.00000000E-01  1.50000000E+00  1.50000000E+00  8.00000000E-01
  8.00000000E-01  1.50000000E+00  1.50000000E+00  8.00000000E-01  8.00000000E-01
  1.50000000E+00  1.50000000E+00  8.00000000E-01  8.00000000E-01  1.50000000E+00
  1.50000000E+00  8.00000000E-01  8.00000000E-01  1.50000000E+00  1.50000000E+00
  8.00000000E-01  8.00000000E-01  1.50000000E+00  1.50000000E+00  8.00000000E-01
  8.00000000E-01  1.50000000E+00  1.50000000E+00  8.00000000E-01  8.00000000E-01
  1.50000000E+00  1.50000000E+00  8.00000000E-01  8.00000000E-01  1.50000000E+00
  1.50000000E+00  8.00000000E-01  8.00000000E-01  1.50000000E+00  1.50000000E+00
  8.00000000E-01  8.00000000E-01  1.50000000E+00  1.50000000E+00  8.00000000E-01
  8.00000000E-01  1.50000000E+00  1.50000000E+00  8.00000000E-01  8.00000000E-01
  1.50000000E+00  1.50000000E+00  8.00000000E-01  8.00000000E-01  1.50000000E+00
  1.50000000E+00  8.00000000E-01  8.00000000E-01  1.50000000E+00  1.50000000E+00
  8.00000000E-01  8.00000000E-01  1.50000000E+00  1.50000000E+00  8.00000000E-01
  8.00000000E-01  1.50000000E+00  1.50000000E+00  8.00000000E-01  8.00000000E-01
  1.50000000E+00  1.50000000E+00  8.00000000E-01  8.00000000E-01  1.50000000E+00
  1.50000000E+00  8.00000000E-01  8.00000000E-01  1.50000000E+00  1.50000000E+00
  8.00000000E-01  8.00000000E-01  1.50000000E+00  1.50000000E+00  8.00000000E-01
  8.00000000E-01  1.50000000E+00  1.50000000E+00  8.00000000E-01  8.00000000E-01
  1.50000000E+00  1.50000000E+00  8.00000000E-01  8.00000000E-01  1.50000000E+00
  1.50000000E+00  8.00000000E-01  8.00000000E-01  1.50000000E+00  1.50000000E+00
  8.00000000E-01  8.00000000E-01  1.50000000E+00  1.50000000E+00  8.00000000E-01
  8.00000000E-01  1.50000000E+00  1.50000000E+00  8.00000000E-01  8.00000000E-01
  1.50000000E+00  1.50000000E+00  8.00000000E-01  8.00000000E-01  1.50000000E+00
  1.50000000E+00  8.00000000E-01  8.00000000E-01  1.50000000E+00  1.50000000E+00
  8.00000000E-01  8.00000000E-01  1.50000000E+00  1.50000000E+00  8.00000000E-01
  8.00000000E-01  1.50000000E+00  1.50000000E+00  8.00000000E-01  8.00000000E-01
  1.50000000E+00  1.50000000E+00  8.00000000E-01  8.00000000E-01  1.50000000E+00
  1.50000000E+00  8.00000000E-01  8.00000000E-01  1.50000000E+00  1.50000000E+00
  8.00000000E-01  8.00000000E-01  1.50000000E+00  1.50000000E+00  8.00000000E-01
  8.00000000E-01  1.50000000E+00  1.50000000E+00  8.00000000E-01  8.00000000E-01
  1.50000000E+00  1.50000000E+00  8.00000000E-01  8.00000000E-01  1.50000000E+00
  1.50000000E+00  8.00000000E-01  8.00000000E-01  1.50000000E+00  1.50000000E+00
  8.00000000E-01  8.00000000E-01  1.50000000E+00  1.50000000E+00  8.00000000E-01
  8.00000000E-01  1.50000000E+00  1.50000000E+00  8.00000000E-01  8.00000000E-01
  1.50000000E+00  1.50000000E+00  8.00000000E-01  8.00000000E-01  1.50000000E+00
  1.50000000E+00  8.00000000E-01  8.00000000E-01  1.50000000E+00  1.50000000E+00
  8.00000000E-01  8.00000000E-01  1.50000000E+00  1.50000000E+00  8.00000000E-01
  8.00000000E-01  1.50000000E+00  1.50000000E+00  8.00000000E-01  8.00000000E-01
  1.50000000E+00  1.50000000E+00  8.00000000E-01  8.00000000E-01  1.50000000E+00
  1.50000000E+00  8.00000000E-01  8.00000000E-01  1.50000000E+00  1.50000000E+00
  8.00000000E-01  8.00000000E-01  1.50000000E+00  1.50000000E+00  8.00000000E-01
  8.00000000E-01  1.50000000E+00  1.50000000E+00  8.00000000E-01  8.00000000E-01
  1.50000000E+00  1.50000000E+00  8.00000000E-01  8.00000000E-01  1.50000000E+00
  1.50000000E+00  8.00000000E-01  8.00000000E-01  1.50000000E+00  1.50000000E+00
  8.00000000E-01  8.00000000E-01  1.50000000E+00  1.50000000E+00  8.00000000E-01
  8.00000000E-01  1.50000000E+00  1.50000000E+00  8.00000000E-01  8.00000000E-01
  1.50000000E+00  1.50000000E+00  8.00000000E-01  8.00000000E-01  1.50000000E+00
  1.50000000E+00  8.00000000E-01  8.00000000E-01  1.50000000E+00  1.50000000E+00
  8.00000000E-01  8.00000000E-01  1.50000000E+00  1.50000000E+00  8.00000000E-01
  8.00000000E-01  1.50000000E+00  1.50000000E+00  8.00000000E-01  8.00000000E-01
  1.50000000E+00  1.50000000E+00  8.00000000E-01  8.00000000E-01  1.50000000E+00
  1.50000000E+00  8.00000000E-01  8.00000000E-01  1.50000000E+00  1.50000000E+00
  8.00000000E-01  8.00000000E-01  1.50000000E+00  1.50000000E+00  8.00000000E-01
  8.00000000E-01  1.50000000E+00  1.50000000E+00  8.00000000E-01  8.00000000E-01
  1.50000000E+00  1.50000000E+00  8.00000000E-01  8.00000000E-01  1.50000000E+00
  1.50000000E+00  8.00000000E-01  8.00000000E-01  1.50000000E+00  1.50000000E+00
  8.00000000E-01  8.00000000E-01  1.50000000E+00  1.50000000E+00  8.00000000E-01
  8.00000000E-01  1.50000000E+00  1.50000000E+00  8.00000000E-01  8.00000000E-01
  1.50000000E+00  1.50000000E+00  8.00000000E-01  8.00000000E-01  1.50000000E+00
  1.50000000E+00  8.00000000E-01  8.00000000E-01  1.50000000E+00  1.50000000E+00
  8.00000000E-01  8.00000000E-01  1.50000000E+00  1.50000000E+00  8.00000000E-01
  8.00000000E-01  1.50000000E+00  1.50000000E+00  8.00000000E-01  8.00000000E-01
  1.50000000E+00  1.50000000E+00  8.00000000E-01  8.00000000E-01  1.50000000E+00
  1.50000000E+00  8.00000000E-01  8.00000000E-01  1.50000000E+00  1.50000000E+00
  8.00000000E-01  8.00000000E-01  1.50000000E+00  1.50000000E+00  8.00000000E-01
  8.00000000E-01  1.50000000E+00  1.50000000E+00  8.00000000E-01  8.00000000E-01
  1.50000000E+00  1.50000000E+00  8.00000000E-01  8.00000000E-01  1.50000000E+00
  1.50000000E+00  8.00000000E-01  8.00000000E-01  1.50000000E+00  1.50000000E+00
  8.00000000E-01  8.00000000E-01  1.50000000E+00  1.50000000E+00  8.00000000E-01
  8.00000000E-01  1.50000000E+00  1.50000000E+00  8.00000000E-01  8.00000000E-01
  1.50000000E+00  1.50000000E+00  8.00000000E-01  8.00000000E-01  1.50000000E+00
  1.50000000E+00  8.00000000E-01  8.00000000E-01  1.50000000E+00  1.50000000E+00
  8.00000000E-01  8.00000000E-01  1.50000000E+00  1.50000000E+00  8.00000000E-01
  8.00000000E-01  1.50000000E+00  1.50000000E+00  8.00000000E-01  8.00000000E-01
  1.50000000E+00  1.50000000E+00  8.00000000E-01  8.00000000E-01  1.50000000E+00
  1.50000000E+00  8.00000000E-01  8.00000000E-01  1.50000000E+00  1.50000000E+00
  8.00000000E-01  8.00000000E-01  1.50000000E+00  1.50000000E+00  8.00000000E-01
  8.00000000E-01  1.50000000E+00  1.50000000E+00  8.00000000E-01  8.00000000E-01
  1.50000000E+00  1.50000000E+00  8.00000000E-01  8.00000000E-01  1.50000000E+00
  1.50000000E+00  8.00000000E-01  8.00000000E-01  1.50000000E+00  1.50000000E+00
  8.00000000E-01  8.00000000E-01  1.50000000E+00  1.50000000E+00  8.00000000E-01
  8.00000000E-01  1.50000000E+00  1.50000000E+00  8.00000000E-01  8.00000000E-01
  1.50000000E+00  1.50000000E+00  8.00000000E-01  8.00000000E-01  1.50000000E+00
  1.50000000E+00  8.00000000E-01  8.00000000E-01  1.50000000E+00  1.50000000E+00
  8.00000000E-01  8.00000000E-01  1.50000000E+00  1.50000000E+00  8.00000000E-01
  8.00000000E-01  1.50000000E+00  1.50000000E+00  8.00000000E-01  8.00000000E-01
  1.50000000E+00  1.50000000E+00  8.00000000E-01  8.00000000E-01  1.50000000E+00
  1.50000000E+00  8.00000000E-01  8.00000000E-01  1.50000000E+00  1.50000000E+00
  8.00000000E-01  8.00000000E-01  1.50000000E+00  1.50000000E+00  8.00000000E-01
  8.00000000E-01  1.50000000E+00  1.50000000E+00  8.00000000E-01  8.00000000E-01
  1.50000000E+00  1.50000000E+00  8.00000000E-01  8.00000000E-01  1.50000000E+00
  1.50000000E+00  8.00000000E-01  8.00000000E-01  1.50000000E+00  1.50000000E+00
  8.00000000E-01  8.00000000E-01  1.50000000E+00  1.50000000E+00  8.00000000E-01
  8.00000000E-01  1.50000000E+00  1.50000000E+00  8.00000000E-01  8.00000000E-01
  1.50000000E+00  1.50000000E+00  8.00000000E-01  8.00000000E-01  1.50000000E+00
  1.50000000E+00  8.00000000E-01  8.00000000E-01  1.50000000E+00  1.50000000E+00
  8.00000000E-01  8.00000000E-01  1.50000000E+00  1.50000000E+00  8.00000000E-01
  8.00000000E-01  1.50000000E+00  1.50000000E+00  8.00000000E-01  8.00000000E-01
  1.50000000E+00  1.50000000E+00  8.00000000E-01  8.00000000E-01  1.50000000E+00
  1.50000000E+00  8.00000000E-01  8.00000000E-01  1.50000000E+00  1.50000000E+00
  8.00000000E-01  8.00000000E-01  1.50000000E+00  1.50000000E+00  8.00000000E-01
  8.00000000E-01  1.50000000E+00  1.50000000E+00  8.00000000E-01  8.00000000E-01
  1.50000000E+00  1.50000000E+00  8.00000000E-01  8.00000000E-01  1.50000000E+00
  1.50000000E+00  8.00000000E-01  8.00000000E-01  1.50000000E+00  1.50000000E+00
  8.00000000E-01  8.00000000E-01  1.50000000E+00  1.50000000E+00  8.00000000E-01
  8.00000000E-01  1.50000000E+00  1.50000000E+00  8.00000000E-01  8.00000000E-01
  1.50000000E+00  1.50000000E+00  8.00000000E-01  8.00000000E-01  1.50000000E+00
  1.50000000E+00  8.00000000E-01  8.00000000E-01  1.50000000E+00  1.50000000E+00
  8.00000000E-01  8.00000000E-01  1.50000000E+00  1.50000000E+00  8.00000000E-01
  8.00000000E-01  1.50000000E+00  1.50000000E+00  8.00000000E-01  8.00000000E-01
  1.50000000E+00  1.50000000E+00  8.00000000E-01  8.00000000E-01  1.50000000E+00
  1.50000000E+00  8.00000000E-01  8.00000000E-01  1.50000000E+00  1.50000000E+00
  8.00000000E-01  8.00000000E-01  1.50000000E+00  1.50000000E+00  8.00000000E-01
  8.00000000E-01  1.50000000E+00  1.50000000E+00  8.00000000E-01  8.00000000E-01
  1.50000000E+00  1.50000000E+00  8.00000000E-01  8.00000000E-01  1.50000000E+00
  1.50000000E+00  8.00000000E-01  8.00000000E-01  1.50000000E+00  1.50000000E+00
  8.00000000E-01  8.00000000E-01  1.50000000E+00  1.50000000E+00  8.00000000E-01
  8.00000000E-01  1.50000000E+00  1.50000000E+00  8.00000000E-01  8.00000000E-01
  1.50000000E+00  1.50000000E+00  8.00000000E-01  8.00000000E-01  1.50000000E+00
  1.50000000E+00  8.00000000E-01  8.00000000E-01  1.50000000E+00  1.50000000E+00
  8.00000000E-01  8.00000000E-01  1.50000000E+00  1.50000000E+00  8.00000000E-01
  8.00000000E-01  1.50000000E+00  1.50000000E+00  8.00000000E-01  8.00000000E-01
  1.50000000E+00  1.50000000E+00  8.00000000E-01  8.00000000E-01  1.50000000E+00
  1.50000000E+00  8.00000000E-01  8.00000000E-01  1.50000000E+00  1.50000000E+00
  8.00000000E-01  8.00000000E-01  1.50000000E+00  1.50000000E+00  8.00000000E-01
  8.00000000E-01  1.50000000E+00  1.50000000E+00  8.00000000E-01  8.00000000E-01
  1.50000000E+00  1.50000000E+00  8.00000000E-01  8.00000000E-01  1.50000000E+00
  1.50000000E+00  8.00000000E-01  8.00000000E-01  1.50000000E+00  1.50000000E+00
  8.00000000E-01  8.00000000E-01  1.50000000E+00  1.50000000E+00  8.00000000E-01
  8.00000000E-01  1.50000000E+00  1.50000000E+00  8.00000000E-01  8.00000000E-01
  1.50000000E+00  1.50000000E+00  8.00000000E-01  8.00000000E-01  1.50000000E+00
  1.50000000E+00  8.00000000E-01  8.00000000E-01  1.50000000E+00  1.50000000E+00
  8.00000000E-01  8.00000000E-01  1.50000000E+00  1.50000000E+00  8.00000000E-01
  8.00000000E-01  1.50000000E+00  1.50000000E+00  8.00000000E-01  8.00000000E-01
  1.50000000E+00  1.50000000E+00  8.00000000E-01  8.00000000E-01  1.50000000E+00
  1.50000000E+00  8.00000000E-01  8.00000000E-01  1.50000000E+00  1.50000000E+00
  8.00000000E-01  8.00000000E-01  1.50000000E+00  1.50000000E+00  8.00000000E-01
  8.00000000E-01  1.50000000E+00  1.50000000E+00  8.00000000E-01  8.00000000E-01
  1.50000000E+00  1.50000000E+00  8.00000000E-01  8.00000000E-01  1.50000000E+00
  1.50000000E+00  8.00000000E-01  8.00000000E-01  1.50000000E+00  1.50000000E+00
  8.00000000E-01  8.00000000E-01  1.50000000E+00  1.50000000E+00  8.00000000E-01
  8.00000000E-01  1.50000000E+00  1.50000000E+00  8.00000000E-01  8.00000000E-01
  1.50000000E+00  1.50000000E+00  8.00000000E-01  8.00000000E-01  1.50000000E+00
  1.50000000E+00  8.00000000E-01  8.00000000E-01  1.50000000E+00  1.50000000E+00
  8.00000000E-01  8.00000000E-01  1.50000000E+00  1.50000000E+00  8.00000000E-01
  8.00000000E-01  1.50000000E+00  1.50000000E+00  8.00000000E-01  8.00000000E-01
  1.50000000E+00  1.50000000E+00  8.00000000E-01  8.00000000E-01  1.50000000E+00
  1.50000000E+00  8.00000000E-01  8.00000000E-01  1.50000000E+00  1.50000000E+00
  8.00000000E-01  8.00000000E-01  1.50000000E+00  1.50000000E+00  8.00000000E-01
  8.00000000E-01  1.50000000E+00  1.50000000E+00  8.00000000E-01  8.00000000E-01
  1.50000000E+00  1.50000000E+00  8.00000000E-01  8.00000000E-01  1.50000000E+00
  1.50000000E+00  8.00000000E-01  8.00000000E-01  1.50000000E+00  1.50000000E+00
  8.00000000E-01  8.00000000E-01  1.50000000E+00  1.50000000E+00  8.00000000E-01
  8.00000000E-01  1.50000000E+00  1.50000000E+00  8.00000000E-01  8.00000000E-01
  1.50000000E+00  1.50000000E+00  8.00000000E-01  8.00000000E-01  1.50000000E+00
  1.50000000E+00  8.00000000E-01  8.00000000E-01  1.50000000E+00  1.50000000E+00
  8.00000000E-01  8.00000000E-01  1.50000000E+00  1.50000000E+00  8.00000000E-01
  8.00000000E-01  1.50000000E+00  1.50000000E+00  8.00000000E-01  8.00000000E-01
  1.50000000E+00  1.50000000E+00  8.00000000E-01  8.00000000E-01  1.50000000E+00
  1.50000000E+00  8.00000000E-01  8.00000000E-01  1.50000000E+00  1.50000000E+00
  8.00000000E-01  8.00000000E-01  1.50000000E+00  1.50000000E+00  8.00000000E-01
  8.00000000E-01  1.50000000E+00  1.50000000E+00  8.00000000E-01  8.00000000E-01
  1.50000000E+00  1.50000000E+00  8.00000000E-01  8.00000000E-01  1.50000000E+00
  1.50000000E+00  8.00000000E-01  8.00000000E-01  1.50000000E+00  1.50000000E+00
  8.00000000E-01  8.00000000E-01  1.50000000E+00  1.50000000E+00  8.00000000E-01
  8.00000000E-01  1.50000000E+00  1.50000000E+00  8.00000000E-01  8.00000000E-01
  1.50000000E+00  1.50000000E+00  8.00000000E-01  8.00000000E-01  1.50000000E+00
  1.50000000E+00  8.00000000E-01  8.00000000E-01  1.50000000E+00  1.50000000E+00
  8.00000000E-01  8.00000000E-01  1.50000000E+00  1.50000000E+00  8.00000000E-01
  8.00000000E-01  1.50000000E+00  1.50000000E+00  8.00000000E-01  8.00000000E-01
  1.50000000E+00  1.50000000E+00  8.00000000E-01  8.00000000E-01  1.50000000E+00
  1.50000000E+00  8.00000000E-01  8.00000000E-01  1.50000000E+00  1.50000000E+00
  8.00000000E-01  8.00000000E-01  1.50000000E+00  1.50000000E+00  8.00000000E-01
  8.00000000E-01  1.50000000E+00  1.50000000E+00  8.00000000E-01  8.00000000E-01
  1.50000000E+00  1.50000000E+00  8.00000000E-01  8.00000000E-01  1.50000000E+00
  1.50000000E+00  8.00000000E-01  8.00000000E-01  1.50000000E+00  1.50000000E+00
  8.00000000E-01  8.00000000E-01  1.50000000E+00  1.50000000E+00  8.00000000E-01
  8.00000000E-01  1.50000000E+00  1.50000000E+00  8.00000000E-01  8.00000000E-01
  1.50000000E+00  1.50000000E+00  8.00000000E-01  8.00000000E-01  1.50000000E+00
  1.50000000E+00  8.00000000E-01  8.00000000E-01  1.50000000E+00  1.50000000E+00
  8.00000000E-01  8.00000000E-01  1.50000000E+00  1.50000000E+00  8.00000000E-01
  8.00000000E-01  1.50000000E+00  1.50000000E+00  8.00000000E-01  8.00000000E-01
  1.50000000E+00  1.50000000E+00  8.00000000E-01  8.00000000E-01  1.50000000E+00
  1.50000000E+00  8.00000000E-01  8.00000000E-01  1.50000000E+00  1.50000000E+00
  8.00000000E-01  8.00000000E-01  1.50000000E+00  1.50000000E+00  8.00000000E-01
  8.00000000E-01  1.50000000E+00  1.50000000E+00  8.00000000E-01  8.00000000E-01
  1.50000000E+00  1.50000000E+00  8.00000000E-01  8.00000000E-01  1.50000000E+00
  1.50000000E+00  8.00000000E-01  8.00000000E-01  1.50000000E+00  1.50000000E+00
  8.00000000E-01  8.00000000E-01  1.50000000E+00  1.50000000E+00  8.00000000E-01
  8.00000000E-01  1.50000000E+00  1.50000000E+00  8.00000000E-01  8.00000000E-01
  1.50000000E+00  1.50000000E+00  8.00000000E-01  8.00000000E-01  1.50000000E+00
  1.50000000E+00  8.00000000E-01  8.00000000E-01  1.50000000E+00  1.50000000E+00
  8.00000000E-01  8.00000000E-01  1.50000000E+00  1.50000000E+00  8.00000000E-01
  8.00000000E-01  1.50000000E+00  1.50000000E+00  8.00000000E-01  8.00000000E-01
  1.50000000E+00  1.50000000E+00  8.00000000E-01  8.00000000E-01  1.50000000E+00
  1.50000000E+00  8.00000000E-01  8.00000000E-01  1.50000000E+00  1.50000000E+00
  8.00000000E-01  8.00000000E-01  1.50000000E+00  1.50000000E+00  8.00000000E-01
  8.00000000E-01  1.50000000E+00  1.50000000E+00  8.00000000E-01  8.00000000E-01
  1.50000000E+00  1.50000000E+00  8.00000000E-01  8.00000000E-01  1.50000000E+00
  1.50000000E+00  8.00000000E-01  8.00000000E-01  1.50000000E+00  1.50000000E+00
  8.00000000E-01  8.00000000E-01  1.50000000E+00  1.50000000E+00  8.00000000E-01
  8.00000000E-01  1.50000000E+00  1.50000000E+00  8.00000000E-01  8.00000000E-01
  1.50000000E+00  1.50000000E+00  8.00000000E-01  8.00000000E-01  1.50000000E+00
  1.50000000E+00  8.00000000E-01  8.00000000E-01  1.50000000E+00  1.50000000E+00
  8.00000000E-01  8.00000000E-01  1.50000000E+00  1.50000000E+00  8.00000000E-01
  8.00000000E-01  1.50000000E+00  1.50000000E+00  8.00000000E-01  8.00000000E-01
  1.50000000E+00  1.50000000E+00  8.00000000E-01  8.00000000E-01  1.50000000E+00
  1.50000000E+00  8.00000000E-01  8.00000000E-01  1.50000000E+00  1.50000000E+00
  8.00000000E-01  8.00000000E-01  1.50000000E+00  1.50000000E+00  8.00000000E-01
  8.00000000E-01  1.50000000E+00  1.50000000E+00  8.00000000E-01  8.00000000E-01
  1.50000000E+00  1.50000000E+00  8.00000000E-01  8.00000000E-01  1.50000000E+00
  1.50000000E+00  8.00000000E-01  8.00000000E-01  1.50000000E+00  1.50000000E+00
  8.00000000E-01  8.00000000E-01  1.50000000E+00  1.50000000E+00  8.00000000E-01
  8.00000000E-01  1.50000000E+00  1.50000000E+00  8.00000000E-01  8.00000000E-01
  1.50000000E+00  1.50000000E+00  8.00000000E-01  8.00000000E-01  1.50000000E+00
  1.50000000E+00  8.00000000E-01  8.00000000E-01  1.50000000E+00  1.50000000E+00
  8.00000000E-01  8.00000000E-01  1.50000000E+00  1.50000000E+00  8.00000000E-01
  8.00000000E-01  1.50000000E+00  1.50000000E+00  8.00000000E-01  8.00000000E-01
  1.50000000E+00  1.50000000E+00  8.00000000E-01  8.00000000E-01  1.50000000E+00
  1.50000000E+00  8.00000000E-01  8.00000000E-01  1.50000000E+00  1.50000000E+00
  8.00000000E-01  8.00000000E-01  1.50000000E+00  1.50000000E+00  8.00000000E-01
  8.00000000E-01  1.50000000E+00  1.50000000E+00  8.00000000E-01  8.00000000E-01
  1.50000000E+00  1.50000000E+00  8.00000000E-01  8.00000000E-01  1.50000000E+00
  1.50000000E+00  8.00000000E-01  8.00000000E-01  1.50000000E+00  1.50000000E+00
  8.00000000E-01  8.00000000E-01  1.50000000E+00  1.50000000E+00  8.00000000E-01
  8.00000000E-01  1.50000000E+00  1.50000000E+00  8.00000000E-01  8.00000000E-01
  1.50000000E+00  1.50000000E+00  8.00000000E-01  8.00000000E-01  1.50000000E+00
  1.50000000E+00  8.00000000E-01  8.00000000E-01  1.50000000E+00  1.50000000E+00
  8.00000000E-01  8.00000000E-01  1.50000000E+00  1.50000000E+00  8.00000000E-01
  8.00000000E-01  1.50000000E+00  1.50000000E+00  8.00000000E-01  8.00000000E-01
  1.50000000E+00  1.50000000E+00  8.00000000E-01  8.00000000E-01  1.50000000E+00
  1.50000000E+00  8.00000000E-01  8.00000000E-01  1.50000000E+00  1.50000000E+00
  8.00000000E-01  8.00000000E-01  1.50000000E+00  1.50000000E+00  8.00000000E-01
  8.00000000E-01  1.50000000E+00  1.50000000E+00  8.00000000E-01  8.00000000E-01
  1.50000000E+00  1.50000000E+00  8.00000000E-01  8.00000000E-01  1.50000000E+00
  1.50000000E+00  8.00000000E-01  8.00000000E-01  1.50000000E+00  1.50000000E+00
  8.00000000E-01  8.00000000E-01  1.50000000E+00  1.50000000E+00  8.00000000E-01
  8.00000000E-01  1.50000000E+00  1.50000000E+00  8.00000000E-01  8.00000000E-01
  1.50000000E+00  1.50000000E+00  8.00000000E-01  8.00000000E-01  1.50000000E+00
  1.50000000E+00  8.00000000E-01  8.00000000E-01  1.50000000E+00  1.50000000E+00
  8.00000000E-01  8.00000000E-01  1.50000000E+00  1.50000000E+00  8.00000000E-01
  8.00000000E-01  1.50000000E+00  1.50000000E+00  8.00000000E-01  8.00000000E-01
  1.50000000E+00  1.50000000E+00  8.00000000E-01  8.00000000E-01  1.50000000E+00
  1.50000000E+00  8.00000000E-01  8.00000000E-01  1.50000000E+00  1.50000000E+00
  8.00000000E-01  8.00000000E-01  1.50000000E+00  1.50000000E+00  8.00000000E-01
  8.00000000E-01  1.50000000E+00  1.50000000E+00  8.00000000E-01  8.00000000E-01
  1.50000000E+00  1.50000000E+00  8.00000000E-01  8.00000000E-01  1.50000000E+00
  1.50000000E+00  8.00000000E-01  8.00000000E-01  1.50000000E+00  1.50000000E+00
  8.00000000E-01  8.00000000E-01  1.50000000E+00  1.50000000E+00  8.00000000E-01
  8.00000000E-01  1.50000000E+00  1.50000000E+00  8.00000000E-01  8.00000000E-01
  1.50000000E+00  1.50000000E+00  8.00000000E-01  8.00000000E-01  1.50000000E+00
  1.50000000E+00  8.00000000E-01  8.00000000E-01  1.50000000E+00  1.50000000E+00
  8.00000000E-01  8.00000000E-01  1.50000000E+00  1.50000000E+00  8.00000000E-01
  8.00000000E-01  1.50000000E+00  1.50000000E+00  8.00000000E-01  8.00000000E-01
  1.50000000E+00  1.50000000E+00  8.00000000E-01  8.00000000E-01  1.50000000E+00
  1.50000000E+00  8.00000000E-01  8.00000000E-01  1.50000000E+00  1.50000000E+00
  8.00000000E-01  8.00000000E-01  1.50000000E+00  1.50000000E+00  8.00000000E-01
  8.00000000E-01  1.50000000E+00  1.50000000E+00  8.00000000E-01  8.00000000E-01
  1.50000000E+00  1.50000000E+00  8.00000000E-01  8.00000000E-01  1.50000000E+00
  1.50000000E+00  8.00000000E-01  8.00000000E-01  1.50000000E+00  1.50000000E+00
  8.00000000E-01  8.00000000E-01  1.50000000E+00  1.50000000E+00  8.00000000E-01
  8.00000000E-01  1.50000000E+00  1.50000000E+00  8.00000000E-01  8.00000000E-01
  1.50000000E+00  1.50000000E+00  8.00000000E-01  8.00000000E-01  1.50000000E+00
  1.50000000E+00  8.00000000E-01  8.00000000E-01  1.50000000E+00  1.50000000E+00
  8.00000000E-01  8.00000000E-01  1.50000000E+00  1.50000000E+00  8.00000000E-01
  8.00000000E-01  1.50000000E+00  1.50000000E+00  8.00000000E-01  8.00000000E-01
  1.50000000E+00  1.50000000E+00  8.00000000E-01  8.00000000E-01  1.50000000E+00
  1.50000000E+00  8.00000000E-01  8.00000000E-01  1.50000000E+00  1.50000000E+00
  8.00000000E-01  8.00000000E-01  1.50000000E+00  1.50000000E+00  8.00000000E-01
  8.00000000E-01  1.50000000E+00  1.50000000E+00  8.00000000E-01  8.00000000E-01
  1.50000000E+00  1.50000000E+00  8.00000000E-01  8.00000000E-01  1.50000000E+00
  1.50000000E+00  8.00000000E-01  8.00000000E-01  1.50000000E+00  1.50000000E+00
  8.00000000E-01  8.00000000E-01  1.50000000E+00  1.50000000E+00  8.00000000E-01
  8.00000000E-01  1.50000000E+00  1.50000000E+00  8.00000000E-01  8.00000000E-01
  1.50000000E+00  1.50000000E+00  8.00000000E-01  8.00000000E-01  1.50000000E+00
  1.50000000E+00  8.00000000E-01  8.00000000E-01  1.50000000E+00  1.50000000E+00
  8.00000000E-01  8.00000000E-01  1.50000000E+00  1.50000000E+00  8.00000000E-01
  8.00000000E-01  1.50000000E+00  1.50000000E+00  8.00000000E-01  8.00000000E-01
  1.50000000E+00  1.50000000E+00  8.00000000E-01  8.00000000E-01  1.50000000E+00
  1.50000000E+00  8.00000000E-01  8.00000000E-01  1.50000000E+00  1.50000000E+00
  8.00000000E-01  8.00000000E-01  1.50000000E+00  1.50000000E+00  8.00000000E-01
  8.00000000E-01  1.50000000E+00  1.50000000E+00  8.00000000E-01  8.00000000E-01
  1.50000000E+00  1.50000000E+00  8.00000000E-01  8.00000000E-01  1.50000000E+00
  1.50000000E+00  8.00000000E-01  8.00000000E-01  1.50000000E+00  1.50000000E+00
  8.00000000E-01  8.00000000E-01  1.50000000E+00  1.50000000E+00  8.00000000E-01
  8.00000000E-01  1.50000000E+00  1.50000000E+00  8.00000000E-01  8.00000000E-01
  1.50000000E+00  1.50000000E+00  8.00000000E-01  8.00000000E-01  1.50000000E+00
  1.50000000E+00  8.00000000E-01  8.00000000E-01  1.50000000E+00  1.50000000E+00
  8.00000000E-01  8.00000000E-01  1.50000000E+00  1.50000000E+00  8.00000000E-01
  8.00000000E-01  1.50000000E+00  1.50000000E+00  8.00000000E-01  8.00000000E-01
  1.50000000E+00  1.50000000E+00  8.00000000E-01  8.00000000E-01  1.50000000E+00
  1.50000000E+00  8.00000000E-01  8.00000000E-01  1.50000000E+00  1.50000000E+00
  8.00000000E-01  8.00000000E-01  1.50000000E+00  1.50000000E+00  8.00000000E-01
  8.00000000E-01  1.50000000E+00  1.50000000E+00  8.00000000E-01  8.00000000E-01
  1.50000000E+00  1.50000000E+00  8.00000000E-01  8.00000000E-01  1.50000000E+00
  1.50000000E+00  8.00000000E-01  8.00000000E-01  1.50000000E+00  1.50000000E+00
  8.00000000E-01  8.00000000E-01  1.50000000E+00  1.50000000E+00  8.00000000E-01
  8.00000000E-01  1.50000000E+00  1.50000000E+00  8.00000000E-01  8.00000000E-01
  1.50000000E+00  1.50000000E+00  8.00000000E-01  8.00000000E-01  1.50000000E+00
  1.50000000E+00  8.00000000E-01  8.00000000E-01  1.50000000E+00  1.50000000E+00
  8.00000000E-01  8.00000000E-01  1.50000000E+00  1.50000000E+00  8.00000000E-01
  8.00000000E-01  1.50000000E+00  1.50000000E+00  8.00000000E-01  8.00000000E-01
  1.50000000E+00  1.50000000E+00  8.00000000E-01  8.00000000E-01  1.50000000E+00
  1.50000000E+00  8.00000000E-01  8.00000000E-01  1.50000000E+00  1.50000000E+00
  8.00000000E-01  8.00000000E-01  1.50000000E+00  1.50000000E+00  8.00000000E-01
  8.00000000E-01  1.50000000E+00  1.50000000E+00  8.00000000E-01  8.00000000E-01
  1.50000000E+00  1.50000000E+00  8.00000000E-01  8.00000000E-01  1.50000000E+00
  1.50000000E+00  8.00000000E-01  8.00000000E-01  1.50000000E+00  1.50000000E+00
  8.00000000E-01  8.00000000E-01  1.50000000E+00  1.50000000E+00  8.00000000E-01
  8.00000000E-01  1.50000000E+00  1.50000000E+00  8.00000000E-01  8.00000000E-01
  1.50000000E+00  1.50000000E+00  8.00000000E-01  8.00000000E-01  1.50000000E+00
  1.50000000E+00  8.00000000E-01  8.00000000E-01  1.50000000E+00  1.50000000E+00
  8.00000000E-01  8.00000000E-01  1.50000000E+00  1.50000000E+00  8.00000000E-01
  8.00000000E-01  1.50000000E+00  1.50000000E+00  8.00000000E-01  8.00000000E-01
  1.50000000E+00  1.50000000E+00  8.00000000E-01  8.00000000E-01  1.50000000E+00
  1.50000000E+00  8.00000000E-01  8.00000000E-01  1.50000000E+00  1.50000000E+00
  8.00000000E-01  8.00000000E-01  1.50000000E+00  1.50000000E+00  8.00000000E-01
  8.00000000E-01  1.50000000E+00  1.50000000E+00  8.00000000E-01  8.00000000E-01
  1.50000000E+00  1.50000000E+00  8.00000000E-01  8.00000000E-01  1.50000000E+00
  1.50000000E+00  8.00000000E-01  8.00000000E-01  1.50000000E+00  1.50000000E+00
  8.00000000E-01  8.00000000E-01  1.50000000E+00  1.50000000E+00  8.00000000E-01
  8.00000000E-01  1.50000000E+00  1.50000000E+00  8.00000000E-01  8.00000000E-01
  1.50000000E+00  1.50000000E+00  8.00000000E-01  8.00000000E-01  1.50000000E+00
  1.50000000E+00  8.00000000E-01  8.00000000E-01  1.50000000E+00  1.50000000E+00
  8.00000000E-01  8.00000000E-01  1.50000000E+00  1.50000000E+00  8.00000000E-01
  8.00000000E-01  1.50000000E+00  1.50000000E+00  8.00000000E-01  8.00000000E-01
  1.50000000E+00  1.50000000E+00  8.00000000E-01  8.00000000E-01  1.50000000E+00
  1.50000000E+00  8.00000000E-01  8.00000000E-01  1.50000000E+00  1.50000000E+00
  8.00000000E-01  8.00000000E-01  1.50000000E+00  1.50000000E+00  8.00000000E-01
  8.00000000E-01  1.50000000E+00  1.50000000E+00  8.00000000E-01  8.00000000E-01
  1.50000000E+00  1.50000000E+00  8.00000000E-01  8.00000000E-01  1.50000000E+00
  1.50000000E+00  8.00000000E-01  8.00000000E-01  1.50000000E+00  1.50000000E+00
  8.00000000E-01  8.00000000E-01  1.50000000E+00  1.50000000E+00  8.00000000E-01
  8.00000000E-01  1.50000000E+00  1.50000000E+00  8.00000000E-01  8.00000000E-01
  1.50000000E+00  1.50000000E+00  8.00000000E-01  8.00000000E-01  1.50000000E+00
  1.50000000E+00  8.00000000E-01  8.00000000E-01  1.50000000E+00  1.50000000E+00
  8.00000000E-01  8.00000000E-01  1.50000000E+00  1.50000000E+00  8.00000000E-01
  8.00000000E-01  1.50000000E+00  1.50000000E+00  8.00000000E-01  8.00000000E-01
  1.50000000E+00  1.50000000E+00  8.00000000E-01  8.00000000E-01  1.50000000E+00
  1.50000000E+00  8.00000000E-01  8.00000000E-01  1.50000000E+00  1.50000000E+00
  8.00000000E-01  8.00000000E-01  1.50000000E+00  1.50000000E+00  8.00000000E-01
  8.00000000E-01  1.50000000E+00  1.50000000E+00  8.00000000E-01  8.00000000E-01
  1.50000000E+00  1.50000000E+00  8.00000000E-01  8.00000000E-01  1.50000000E+00
  1.50000000E+00  8.00000000E-01  8.00000000E-01  1.50000000E+00  1.50000000E+00
  8.00000000E-01  8.00000000E-01  1.50000000E+00  1.50000000E+00  8.00000000E-01
  8.00000000E-01  1.50000000E+00  1.50000000E+00  8.00000000E-01  8.00000000E-01
  1.50000000E+00  1.50000000E+00  8.00000000E-01  8.00000000E-01  1.50000000E+00
  1.50000000E+00  8.00000000E-01  8.00000000E-01  1.50000000E+00  1.50000000E+00
  8.00000000E-01  8.00000000E-01  1.50000000E+00  1.50000000E+00  8.00000000E-01
  8.00000000E-01  1.50000000E+00  1.50000000E+00  8.00000000E-01  8.00000000E-01
  1.50000000E+00  1.50000000E+00  8.00000000E-01  8.00000000E-01  1.50000000E+00
  1.50000000E+00  8.00000000E-01  8.00000000E-01  1.50000000E+00  1.50000000E+00
  8.00000000E-01  8.00000000E-01  1.50000000E+00  1.50000000E+00  8.00000000E-01
  8.00000000E-01  1.50000000E+00  1.50000000E+00  8.00000000E-01  8.00000000E-01
  1.50000000E+00  1.50000000E+00  8.00000000E-01  8.00000000E-01  1.50000000E+00
  1.50000000E+00  8.00000000E-01  8.00000000E-01  1.50000000E+00  1.50000000E+00
  8.00000000E-01  8.00000000E-01  1.50000000E+00  1.50000000E+00  8.00000000E-01
  8.00000000E-01  1.50000000E+00  1.50000000E+00  8.00000000E-01  8.00000000E-01
  1.50000000E+00  1.50000000E+00  8.00000000E-01  8.00000000E-01  1.50000000E+00
  1.50000000E+00  8.00000000E-01  8.00000000E-01  1.50000000E+00  1.50000000E+00
  8.00000000E-01  8.00000000E-01  1.50000000E+00  1.50000000E+00  8.00000000E-01
  8.00000000E-01  1.50000000E+00  1.50000000E+00  8.00000000E-01  8.00000000E-01
  1.50000000E+00  1.50000000E+00  8.00000000E-01  8.00000000E-01  1.50000000E+00
  1.50000000E+00  8.00000000E-01  8.00000000E-01  1.50000000E+00  1.50000000E+00
  8.00000000E-01  8.00000000E-01  1.50000000E+00  1.50000000E+00  8.00000000E-01
  8.00000000E-01  1.50000000E+00  1.50000000E+00  8.00000000E-01  8.00000000E-01
  1.50000000E+00  1.50000000E+00  8.00000000E-01  8.00000000E-01  1.50000000E+00
  1.50000000E+00  8.00000000E-01  8.00000000E-01  1.50000000E+00  1.50000000E+00
  8.00000000E-01  8.00000000E-01  1.50000000E+00  1.50000000E+00  8.00000000E-01
  8.00000000E-01  1.50000000E+00  1.50000000E+00  8.00000000E-01  8.00000000E-01
  1.50000000E+00  1.50000000E+00  8.00000000E-01  8.00000000E-01  1.50000000E+00
  1.50000000E+00  8.00000000E-01  8.00000000E-01  1.50000000E+00  1.50000000E+00
  8.00000000E-01  8.00000000E-01  1.50000000E+00  1.50000000E+00  8.00000000E-01
  8.00000000E-01  1.50000000E+00  1.50000000E+00  8.00000000E-01  8.00000000E-01
  1.50000000E+00  1.50000000E+00  8.00000000E-01  8.00000000E-01  1.50000000E+00
  1.50000000E+00  8.00000000E-01  8.00000000E-01  1.50000000E+00  1.50000000E+00
  8.00000000E-01  8.00000000E-01  1.50000000E+00  1.50000000E+00  8.00000000E-01
  8.00000000E-01  1.50000000E+00  1.50000000E+00  8.00000000E-01  8.00000000E-01
  1.50000000E+00  1.50000000E+00  8.00000000E-01  8.00000000E-01  1.50000000E+00
  1.50000000E+00  8.00000000E-01  8.00000000E-01  1.50000000E+00  1.50000000E+00
  8.00000000E-01  8.00000000E-01  1.50000000E+00  1.50000000E+00  8.00000000E-01
  8.00000000E-01  1.50000000E+00  1.50000000E+00  8.00000000E-01  8.00000000E-01
  1.50000000E+00  1.50000000E+00  8.00000000E-01  8.00000000E-01  1.50000000E+00
  1.50000000E+00  8.00000000E-01  8.00000000E-01  1.50000000E+00  1.50000000E+00
  8.00000000E-01  8.00000000E-01  1.50000000E+00  1.50000000E+00  8.00000000E-01
  8.00000000E-01  1.50000000E+00  1.50000000E+00  8.00000000E-01  8.00000000E-01
  1.50000000E+00  1.50000000E+00  8.00000000E-01  8.00000000E-01  1.50000000E+00
  1.50000000E+00  8.00000000E-01  8.00000000E-01  1.50000000E+00  1.50000000E+00
  8.00000000E-01  8.00000000E-01  1.50000000E+00  1.50000000E+00  8.00000000E-01
  8.00000000E-01  1.50000000E+00  1.50000000E+00  8.00000000E-01  8.00000000E-01
  1.50000000E+00  1.50000000E+00  8.00000000E-01  8.00000000E-01  1.50000000E+00
  1.50000000E+00  8.00000000E-01  8.00000000E-01  1.50000000E+00  1.50000000E+00
  8.00000000E-01  8.00000000E-01  1.50000000E+00  1.50000000E+00  8.00000000E-01
  8.00000000E-01  1.50000000E+00  1.50000000E+00  8.00000000E-01  8.00000000E-01
  1.50000000E+00  1.50000000E+00  8.00000000E-01  8.00000000E-01  1.50000000E+00
  1.50000000E+00  8.00000000E-01  8.00000000E-01  1.50000000E+00  1.50000000E+00
  8.00000000E-01  8.00000000E-01  1.50000000E+00  1.50000000E+00  8.00000000E-01
  8.00000000E-01  1.50000000E+00  1.50000000E+00  8.00000000E-01  8.00000000E-01
  1.50000000E+00  1.50000000E+00  8.00000000E-01  8.00000000E-01  1.50000000E+00
  1.50000000E+00  8.00000000E-01  8.00000000E-01  1.50000000E+00  1.50000000E+00
  8.00000000E-01  8.00000000E-01  1.50000000E+00  1.50000000E+00  8.00000000E-01
  8.00000000E-01  1.50000000E+00  1.50000000E+00  8.00000000E-01  8.00000000E-01
  1.50000000E+00  1.50000000E+00  8.00000000E-01  8.00000000E-01  1.50000000E+00
  1.50000000E+00  8.00000000E-01  8.00000000E-01  1.50000000E+00  1.50000000E+00
  8.00000000E-01  8.00000000E-01  1.50000000E+00  1.50000000E+00  8.00000000E-01
  8.00000000E-01  1.50000000E+00  1.50000000E+00  8.00000000E-01  8.00000000E-01
  1.50000000E+00  1.50000000E+00  8.00000000E-01  8.00000000E-01  1.50000000E+00
  1.50000000E+00  8.00000000E-01  8.00000000E-01  1.50000000E+00  1.50000000E+00
  8.00000000E-01  8.00000000E-01  1.50000000E+00  1.50000000E+00  8.00000000E-01
  8.00000000E-01  1.50000000E+00  1.50000000E+00  8.00000000E-01  8.00000000E-01
  1.50000000E+00  1.50000000E+00  8.00000000E-01  8.00000000E-01  1.50000000E+00
  1.50000000E+00  8.00000000E-01  8.00000000E-01  1.50000000E+00  1.50000000E+00
  8.00000000E-01  8.00000000E-01  1.50000000E+00  1.50000000E+00  8.00000000E-01
  8.00000000E-01  1.50000000E+00  1.50000000E+00  8.00000000E-01  8.00000000E-01
  1.50000000E+00  1.50000000E+00  8.00000000E-01  8.00000000E-01  1.50000000E+00
  1.50000000E+00  8.00000000E-01  8.00000000E-01  1.50000000E+00  1.50000000E+00
  8.00000000E-01  8.00000000E-01  1.50000000E+00  1.50000000E+00  8.00000000E-01
  8.00000000E-01  1.50000000E+00  1.50000000E+00  8.00000000E-01  8.00000000E-01
  1.50000000E+00  1.50000000E+00  8.00000000E-01  8.00000000E-01  1.50000000E+00
  1.50000000E+00  8.00000000E-01  8.00000000E-01  1.50000000E+00  1.50000000E+00
  8.00000000E-01  8.00000000E-01  1.50000000E+00  1.50000000E+00  8.00000000E-01
  8.00000000E-01  1.50000000E+00  1.50000000E+00  8.00000000E-01  8.00000000E-01
  1.50000000E+00  1.50000000E+00  8.00000000E-01  8.00000000E-01  1.50000000E+00
  1.50000000E+00  8.00000000E-01  8.00000000E-01  1.50000000E+00  1.50000000E+00
  8.00000000E-01  8.00000000E-01  1.50000000E+00  1.50000000E+00  8.00000000E-01
  8.00000000E-01  1.50000000E+00  1.50000000E+00  8.00000000E-01  8.00000000E-01
  1.50000000E+00  1.50000000E+00  8.00000000E-01  8.00000000E-01  1.50000000E+00
  1.50000000E+00  8.00000000E-01  8.00000000E-01  1.50000000E+00  1.50000000E+00
  8.00000000E-01  8.00000000E-01  1.50000000E+00  1.50000000E+00  8.00000000E-01
  8.00000000E-01  1.50000000E+00  1.50000000E+00  8.00000000E-01  8.00000000E-01
  1.50000000E+00  1.50000000E+00  8.00000000E-01  8.00000000E-01  1.50000000E+00
  1.50000000E+00  8.00000000E-01  8.00000000E-01  1.50000000E+00  1.50000000E+00
  8.00000000E-01  8.00000000E-01  1.50000000E+00  1.50000000E+00  8.00000000E-01
  8.00000000E-01  1.50000000E+00  1.50000000E+00  8.00000000E-01  8.00000000E-01
  1.50000000E+00  1.50000000E+00  8.00000000E-01  8.00000000E-01  1.50000000E+00
  1.50000000E+00  8.00000000E-01  8.00000000E-01  1.50000000E+00  1.50000000E+00
  8.00000000E-01  8.00000000E-01  1.50000000E+00  1.50000000E+00  8.00000000E-01
  8.00000000E-01  1.50000000E+00  1.50000000E+00  8.00000000E-01  8.00000000E-01
  1.50000000E+00  1.50000000E+00  8.00000000E-01  8.00000000E-01  1.50000000E+00
  1.50000000E+00  8.00000000E-01  8.00000000E-01  1.50000000E+00  1.50000000E+00
  8.00000000E-01  8.00000000E-01  1.50000000E+00  1.50000000E+00  8.00000000E-01
  8.00000000E-01  1.50000000E+00  1.50000000E+00  8.00000000E-01  8.00000000E-01
  1.50000000E+00  1.50000000E+00  8.00000000E-01  8.00000000E-01  1.50000000E+00
  1.50000000E+00  8.00000000E-01  8.00000000E-01  1.50000000E+00  1.50000000E+00
  8.00000000E-01  8.00000000E-01  1.50000000E+00  1.50000000E+00  8.00000000E-01
  8.00000000E-01  1.50000000E+00  1.50000000E+00  8.00000000E-01  8.00000000E-01
  1.50000000E+00  1.50000000E+00  8.00000000E-01  8.00000000E-01  1.50000000E+00
  1.50000000E+00  8.00000000E-01  8.00000000E-01  1.50000000E+00  1.50000000E+00
  8.00000000E-01  8.00000000E-01  1.50000000E+00  1.50000000E+00  8.00000000E-01
  8.00000000E-01  1.50000000E+00  1.50000000E+00  8.00000000E-01  8.00000000E-01
  1.50000000E+00  1.50000000E+00  8.00000000E-01  8.00000000E-01  1.50000000E+00
  1.50000000E+00  8.00000000E-01  8.00000000E-01  1.50000000E+00  1.50000000E+00
  8.00000000E-01  8.00000000E-01  1.50000000E+00  1.50000000E+00  8.00000000E-01
  8.00000000E-01  1.50000000E+00  1.50000000E+00  8.00000000E-01  8.00000000E-01
  1.50000000E+00  1.50000000E+00  8.00000000E-01  8.00000000E-01  1.50000000E+00
  1.50000000E+00  8.00000000E-01  8.00000000E-01  1.50000000E+00  1.50000000E+00
  8.00000000E-01  8.00000000E-01  1.50000000E+00  1.50000000E+00  8.00000000E-01
  8.00000000E-01  1.50000000E+00  1.50000000E+00  8.00000000E-01  8.00000000E-01
  1.50000000E+00  1.50000000E+00  8.00000000E-01  8.00000000E-01  1.50000000E+00
  1.50000000E+00  8.00000000E-01  8.00000000E-01  1.50000000E+00  1.50000000E+00
  8.00000000E-01  8.00000000E-01  1.50000000E+00  1.50000000E+00  8.00000000E-01
  8.00000000E-01  1.50000000E+00  1.50000000E+00  8.00000000E-01  8.00000000E-01
  1.50000000E+00  1.50000000E+00  8.00000000E-01  8.00000000E-01  1.50000000E+00
  1.50000000E+00  8.00000000E-01  8.00000000E-01  1.50000000E+00  1.50000000E+00
  8.00000000E-01  8.00000000E-01  1.50000000E+00  1.50000000E+00  8.00000000E-01
  8.00000000E-01  1.50000000E+00  1.50000000E+00  8.00000000E-01  8.00000000E-01
  1.50000000E+00  1.50000000E+00  8.00000000E-01  8.00000000E-01  1.50000000E+00
  1.50000000E+00  8.00000000E-01  8.00000000E-01  1.50000000E+00  1.50000000E+00
  8.00000000E-01  8.00000000E-01  1.50000000E+00  1.50000000E+00  8.00000000E-01
  8.00000000E-01  1.50000000E+00  1.50000000E+00  8.00000000E-01  8.00000000E-01
  1.50000000E+00  1.50000000E+00  8.00000000E-01  8.00000000E-01  1.50000000E+00
  1.50000000E+00  8.00000000E-01  8.00000000E-01  1.50000000E+00  1.50000000E+00
  8.00000000E-01  8.00000000E-01  1.50000000E+00  1.50000000E+00  8.00000000E-01
  8.00000000E-01  1.50000000E+00  1.50000000E+00  8.00000000E-01  8.00000000E-01
  1.50000000E+00  1.50000000E+00  8.00000000E-01  8.00000000E-01  1.50000000E+00
  1.50000000E+00  8.00000000E-01  8.00000000E-01  1.50000000E+00  1.50000000E+00
  8.00000000E-01  8.00000000E-01  1.50000000E+00  1.50000000E+00  8.00000000E-01
  8.00000000E-01  1.50000000E+00  1.50000000E+00  8.00000000E-01  8.00000000E-01
  1.50000000E+00  1.50000000E+00  8.00000000E-01  8.00000000E-01  1.50000000E+00
  1.50000000E+00  8.00000000E-01  8.00000000E-01  1.50000000E+00  1.50000000E+00
  8.00000000E-01  8.00000000E-01  1.50000000E+00  1.50000000E+00  8.00000000E-01
  8.00000000E-01  1.50000000E+00  1.50000000E+00  8.00000000E-01  8.00000000E-01
  1.50000000E+00  1.50000000E+00  8.00000000E-01  8.00000000E-01  1.50000000E+00
  1.50000000E+00  8.00000000E-01  8.00000000E-01  1.50000000E+00  1.50000000E+00
  8.00000000E-01  8.00000000E-01  1.50000000E+00  1.50000000E+00  8.00000000E-01
  8.00000000E-01  1.50000000E+00  1.50000000E+00  8.00000000E-01  8.00000000E-01
  1.50000000E+00  1.50000000E+00  8.00000000E-01  8.00000000E-01  1.50000000E+00
  1.50000000E+00  8.00000000E-01  8.00000000E-01  1.50000000E+00  1.50000000E+00
  8.00000000E-01  8.00000000E-01  1.50000000E+00  1.50000000E+00  8.00000000E-01
  8.00000000E-01  1.50000000E+00  1.50000000E+00  8.00000000E-01  8.00000000E-01
  1.50000000E+00  1.50000000E+00  8.00000000E-01  8.00000000E-01  1.50000000E+00
  1.50000000E+00  8.00000000E-01  8.00000000E-01  1.50000000E+00  1.50000000E+00
  8.00000000E-01  8.00000000E-01  1.50000000E+00  1.50000000E+00  8.00000000E-01
  8.00000000E-01  1.50000000E+00  1.50000000E+00  8.00000000E-01  8.00000000E-01
  1.50000000E+00  1.50000000E+00  8.00000000E-01  8.00000000E-01  1.50000000E+00
  1.50000000E+00  8.00000000E-01  8.00000000E-01  1.50000000E+00  1.50000000E+00
  8.00000000E-01  8.00000000E-01  1.50000000E+00  1.50000000E+00  8.00000000E-01
  8.00000000E-01  1.50000000E+00  1.50000000E+00  8.00000000E-01  8.00000000E-01
  1.50000000E+00  1.50000000E+00  8.00000000E-01  8.00000000E-01  1.50000000E+00
  1.50000000E+00  8.00000000E-01  8.00000000E-01  1.50000000E+00  1.50000000E+00
  8.00000000E-01  8.00000000E-01  1.50000000E+00  1.50000000E+00  8.00000000E-01
  8.00000000E-01  1.50000000E+00  1.50000000E+00  8.00000000E-01  8.00000000E-01
  1.50000000E+00  1.50000000E+00  8.00000000E-01  8.00000000E-01  1.50000000E+00
  1.50000000E+00  8.00000000E-01  8.00000000E-01  1.50000000E+00  1.50000000E+00
  8.00000000E-01  8.00000000E-01  1.50000000E+00  1.50000000E+00  8.00000000E-01
  8.00000000E-01  1.50000000E+00  1.50000000E+00  8.00000000E-01  8.00000000E-01
  1.50000000E+00  1.50000000E+00  8.00000000E-01  8.00000000E-01  1.50000000E+00
  1.50000000E+00  8.00000000E-01  8.00000000E-01  1.50000000E+00  1.50000000E+00
  8.00000000E-01  8.00000000E-01  1.50000000E+00  1.50000000E+00  8.00000000E-01
  8.00000000E-01  1.50000000E+00  1.50000000E+00  8.00000000E-01  8.00000000E-01
  1.50000000E+00  1.50000000E+00  8.00000000E-01  8.00000000E-01  1.50000000E+00
  1.50000000E+00  8.00000000E-01  8.00000000E-01  1.50000000E+00  1.50000000E+00
  8.00000000E-01  8.00000000E-01  1.50000000E+00  1.50000000E+00  8.00000000E-01
  8.00000000E-01  1.50000000E+00  1.50000000E+00  8.00000000E-01  8.00000000E-01
  1.50000000E+00  1.50000000E+00  8.00000000E-01  8.00000000E-01  1.50000000E+00
  1.50000000E+00  8.00000000E-01  8.00000000E-01  1.50000000E+00  1.50000000E+00
  8.00000000E-01  8.00000000E-01  1.50000000E+00  1.50000000E+00  8.00000000E-01
  8.00000000E-01  1.50000000E+00  1.50000000E+00  8.00000000E-01  8.00000000E-01
  1.50000000E+00  1.50000000E+00  8.00000000E-01  8.00000000E-01  1.50000000E+00
  1.50000000E+00  8.00000000E-01  8.00000000E-01  1.50000000E+00  1.50000000E+00
  8.00000000E-01  8.00000000E-01  1.50000000E+00  1.50000000E+00  8.00000000E-01
  8.00000000E-01  1.50000000E+00  1.50000000E+00  8.00000000E-01  8.00000000E-01
  1.50000000E+00  1.50000000E+00  8.00000000E-01  8.00000000E-01  1.50000000E+00
  1.50000000E+00  8.00000000E-01  8.00000000E-01  1.50000000E+00  1.50000000E+00
  8.00000000E-01  8.00000000E-01  1.50000000E+00  1.50000000E+00  8.00000000E-01
  8.00000000E-01  1.50000000E+00  1.50000000E+00  8.00000000E-01  8.00000000E-01
  1.50000000E+00  1.50000000E+00  8.00000000E-01  8.00000000E-01  1.50000000E+00
  1.50000000E+00  8.00000000E-01  8.00000000E-01  1.50000000E+00  1.50000000E+00
  8.00000000E-01  8.00000000E-01  1.50000000E+00  1.50000000E+00  8.00000000E-01
  8.00000000E-01  1.50000000E+00  1.50000000E+00  8.00000000E-01  8.00000000E-01
  1.50000000E+00  1.50000000E+00  8.00000000E-01  8.00000000E-01  1.50000000E+00
  1.50000000E+00  8.00000000E-01  8.00000000E-01  1.50000000E+00  1.50000000E+00
  8.00000000E-01  8.00000000E-01  1.50000000E+00  1.50000000E+00  8.00000000E-01
  8.00000000E-01  1.50000000E+00  1.50000000E+00  8.00000000E-01  8.00000000E-01
  1.50000000E+00  1.50000000E+00  8.00000000E-01  8.00000000E-01  1.50000000E+00
  1.50000000E+00  8.00000000E-01  8.00000000E-01  1.50000000E+00  1.50000000E+00
  8.00000000E-01  8.00000000E-01  1.50000000E+00  1.50000000E+00  8.00000000E-01
  8.00000000E-01  1.50000000E+00  1.50000000E+00  8.00000000E-01  8.00000000E-01
  1.50000000E+00  1.50000000E+00  8.00000000E-01  8.00000000E-01  1.50000000E+00
  1.50000000E+00  8.00000000E-01  8.00000000E-01  1.50000000E+00  1.50000000E+00
  8.00000000E-01  8.00000000E-01  1.50000000E+00  1.50000000E+00  8.00000000E-01
  8.00000000E-01  1.50000000E+00  1.50000000E+00  8.00000000E-01  8.00000000E-01
  1.50000000E+00  1.50000000E+00  8.00000000E-01  8.00000000E-01  1.50000000E+00
  1.50000000E+00  8.00000000E-01  8.00000000E-01  1.50000000E+00  1.50000000E+00
  8.00000000E-01  8.00000000E-01  1.50000000E+00  1.50000000E+00  8.00000000E-01
  8.00000000E-01  1.50000000E+00  1.50000000E+00  8.00000000E-01  8.00000000E-01
  1.50000000E+00
%FLAG SCREEN                                                                    
%FORMAT(5E16.8)                                                                 
  8.50000000E-01  8.50000000E-01  7.20000000E-01  8.50000000E-01  8.50000000E-01
  7.20000000E-01  8.50000000E-01  8.50000000E-01  7.20000000E-01  8.50000000E-01
  7.90000000E-01  7.20000000E-01  8.50000000E-01  7.90000000E-01  7.20000000E-01
  7.20000000E-01  8.50000000E-01  7.90000000E-01  8.50000000E-01  7.20000000E-01
  7.90000000E-01  8.50000000E-01  8.50000000E-01  7.90000000E-01  7.20000000E-01
  7.20000000E-01  8.50000000E-01  7.20000000E-01  8.50000000E-01  8.50000000E-01
  8.50000000E-01  8.50000000E-01  8.60000000E-01  8.50000000E-01  8.50000000E-01
  8.50000000E-01  7.20000000E-01  8.50000000E-01  8.50000000E-01  7.20000000E-01
  8.50000000E-01  8.50000000E-01  7.20000000E-01  8.50000000E-01  7.90000000E-01
  7.20000000E-01  8.50000000E-01  7.90000000E-01  7.20000000E-01  7.20000000E-01
  8.50000000E-01  7.90000000E-01  8.50000000E-01  7.20000000E-01  7.90000000E-01
  8.50000000E-01  8.50000000E-01  7.90000000E-01  7.20000000E-01  7.20000000E-01
  8.50000000E-01  7.20000000E-01  8.50000000E-01  8.50000000E-01  8.50000000E-01
  8.50000000E-01  8.60000000E-01  8.50000000E-01  8.50000000E-01  8.50000000E-01
  7.20000000E-01  8.50000000E-01  8.50000000E-01  7.20000000E-01  8.50000000E-01
  8.50000000E-01  7.20000000E-01  8.50000000E-01  7.90000000E-01  7.20000000E-01
  8.50000000E-01  7.90000000E-01  7.20000000E-01  7.20000000E-01  7.90000000E-01
  8.50000000E-01  8.50000000E-01  7.90000000E-01  7.20000000E-01  8.50000000E-01
  7.90000000E-01  7.20000000E-01  7.20000000E-01  8.50000000E-01  7.20000000E-01
  8.50000000E-01  8.50000000E-01  8.50000000E-01  8.50000000E-01  8.60000000E-01
  8.50000000E-01  8.50000000E-01  8.50000000E-01  7.20000000E-01  8.50000000E-01
  8.50000000E-01  7.20000000E-01  8.50000000E-01  8.50000000E-01  7.20000000E-01
  8.50000000E-01  7.90000000E-01  7.20000000E-01  8.50000000E-01  7.20000000E-01
  8.50000000E-01  7.20000000E-01  8.50000000E-01  7.90000000E-01  8.50000000E-01
  7.20000000E-01  8.50000000E-01  7.20000000E-01  8.50000000E-01  7.20000000E-01
  8.50000000E-01  8.50000000E-01  8.50000000E-01  8.50000000E-01  8.60000000E-01
  8.50000000E-01  8.50000000E-01  8.50000000E-01  7.20000000E-01  8.50000000E-01
  8.50000000E-01  7.20000000E-01  8.50000000E-01  8.50000000E-01  7.20000000E-01
  8.50000000E-01  7.90000000E-01  7.20000000E-01  8.50000000E-01  7.20000000E-01
  8.50000000E-01  7.20000000E-01  7.90000000E-01  8.50000000E-01  8.50000000E-01
  7.90000000E-01  7.20000000E-01  8.50000000E-01  7.20000000E-01  8.50000000E-01
  7.20000000E-01  8.50000000E-01  8.50000000E-01  8.50000000E-01  8.50000000E-01
  8.60000000E-01  8.50000000E-01  8.50000000E-01  8.50000000E-01  7.20000000E-01
  8.50000000E-01  8.50000000E-01  7.20000000E-01  8.50000000E-01  8.50000000E-01
  7.20000000E-01  8.50000000E-01  7.90000000E-01  7.20000000E-01  8.50000000E-01
  7.90000000E-01  7.20000000E-01  7.20000000E-01  7.90000000E-01  8.50000000E-01
  8.50000000E-01  7.90000000E-01  7.20000000E-01  8.50000000E-01  7.90000000E-01
  7.20000000E-01  7.20000000E-01  8.50000000E-01  7.20000000E-01  8.50000000E-01
  8.50000000E-01  8.50000000E-01  8.50000000E-01  8.60000000E-01  8.50000000E-01
  8.50000000E-01  8.50000000E-01  7.20000000E-01  8.50000000E-01  8.50000000E-01
  7.20000000E-01  8.50000000E-01  8.50000000E-01  7.20000000E-01  8.50000000E-01
  7.90000000E-01  7.20000000E-01  8.50000000E-01  7.20000000E-01  8.50000000E-01
  7.20000000E-01  8.50000000E-01  7.90000000E-01  8.50000000E-01  7.20000000E-01
  8.50000000E-01  7.20000000E-01  8.50000000E-01  7.20000000E-01  8.50000000E-01
  8.50000000E-01  8.50000000E-01  8.50000000E-01  8.60000000E-01  8.50000000E-01
  8.50000000E-01  8.50000000E-01  7.20000000E-01  8.50000000E-01  8.50000000E-01
  7.20000000E-01  8.50000000E-01  8.50000000E-01  7.20000000E-01  8.50000000E-01
  7.90000000E-01  7.20000000E-01  8.50000000E-01  7.90000000E-01  7.20000000E-01
  7.20000000E-01  7.90000000E-01  8.50000000E-01  8.50000000E-01  7.90000000E-01
  7.20000000E-01  8.50000000E-01  7.90000000E-01  7.20000000E-01  7.20000000E-01
  8.50000000E-01  7.20000000E-01  8.50000000E-01  8.50000000E-01  8.50000000E-01
  8.50000000E-01  8.60000000E-01  8.50000000E-01  8.50000000E-01  8.50000000E-01
  7.20000000E-01  8.50000000E-01  8.50000000E-01  7.20000000E-01  8.50000000E-01
  8.50000000E-01  7.20000000E-01  8.50000000E-01  7.90000000E-01  7.20000000E-01
  8.50000000E-01  7.20000000E-01  8.50000000E-01  7.20000000E-01  8.50000000E-01
  7.90000000E-01  8.50000000E-01  7.20000000E-01  8.50000000E-01  7.20000000E-01
  8.50000000E-01  7.20000000E-01  8.50000000E-01  8.50000000E-01  8.50000000E-01
  8.50000000E-01  8.60000000E-01  8.50000000E-01  8.50000000E-01  8.50000000E-01
  7.20000000E-01  8.50000000E-01  8.50000000E-01  7.20000000E-01  8.50000000E-01
  8.50000000E-01  7.20000000E-01  8.50000000E-01  7.90000000E-01  7.20000000E-01
  8.50000000E-01  7.90000000E-01  7.20000000E-01  7.20000000E-01  7.90000000E-01
  8.50000000E-01  8.50000000E-01  7.90000000E-01  7.20000000E-01  8.50000000E-01
  7.90000000E-01  7.20000000E-01  7.20000000E-01  8.50000000E-01  7.20000000E-01
  8.50000000E-01  8.50000000E-01  8.50000000E-01  8.50000000E-01  8.60000000E-01
  8.50000000E-01  8.50000000E-01  8.50000000E-01  7.20000000E-01  8.50000000E-01
  8.50000000E-01  7.20000000E-01  8.50000000E-01  8.50000000E-01  7.20000000E-01
  8.50000000E-01  7.90000000E-01  7.20000000E-01  8.50000000E-01  7.90000000E-01
  7.20000000E-01  7.20000000E-01  7.90000000E-01  8.50000000E-01  8.50000000E-01
  7.90000000E-01  7.20000000E-01  8.50000000E-01  7.90000000E-01  7.20000000E-01
  7.20000000E-01  8.50000000E-01  7.20000000E-01  8.50000000E-01  8.50000000E-01
  8.50000000E-01  8.50000000E-01  8.60000000E-01  8.50000000E-01  8.50000000E-01
  8.50000000E-01  7.20000000E-01  8.50000000E-01  8.50000000E-01  7.20000000E-01
  8.50000000E-01  8.50000000E-01  7.20000000E-01  8.50000000E-01  7.90000000E-01
  7.20000000E-01  8.50000000E-01  7.20000000E-01  8.50000000E-01  7.20000000E-01
  8.50000000E-01  7.90000000E-01  8.50000000E-01  7.20000000E-01  8.50000000E-01
  7.20000000E-01  8.50000000E-01  7.20000000E-01  8.50000000E-01  8.50000000E-01
  8.50000000E-01  8.50000000E-01  8.60000000E-01  8.50000000E-01  8.50000000E-01
  8.50000000E-01  7.20000000E-01  8.50000000E-01  8.50000000E-01  7.20000000E-01
  8.50000000E-01  8.50000000E-01  7.20000000E-01  8.50000000E-01  7.90000000E-01
  7.20000000E-01  8.50000000E-01  7.20000000E-01  8.50000000E-01  7.20000000E-01
  7.90000000E-01  8.50000000E-01  8.50000000E-01  7.90000000E-01  7.20000000E-01
  8.50000000E-01  7.20000000E-01  8.50000000E-01  7.20000000E-01  8.50000000E-01
  8.50000000E-01  8.50000000E-01  8.50000000E-01  8.60000000E-01  8.50000000E-01
  8.50000000E-01  8.50000000E-01  7.20000000E-01  8.50000000E-01  8.50000000E-01
  7.20000000E-01  8.50000000E-01  8.50000000E-01  7.20000000E-01  8.50000000E-01
  7.90000000E-01  7.20000000E-01  8.50000000E-01  7.90000000E-01  7.20000000E-01
  7.20000000E-01  8.50000000E-01  7.90000000E-01  8.50000000E-01  7.20000000E-01
  7.90000000E-01  8.50000000E-01  8.50000000E-01  7.90000000E-01  7.20000000E-01
  7.20000000E-01  8.50000000E-01  7.20000000E-01  8.50000000E-01  8.50000000E-01
  8.50000000E-01  8.50000000E-01  8.60000000E-01  8.50000000E-01  8.50000000E-01
  8.50000000E-01  7.20000000E-01  8.50000000E-01  8.50000000E-01  7.20000000E-01
  8.50000000E-01  8.50000000E-01  7.20000000E-01  8.50000000E-01  7.90000000E-01
  7.20000000E-01  8.50000000E-01  7.20000000E-01  8.50000000E-01  7.20000000E-01
  7.90000000E-01  8.50000000E-01  8.50000000E-01  7.90000000E-01  7.20000000E-01
  8.50000000E-01  7.20000000E-01  8.50000000E-01  7.20000000E-01  8.50000000E-01
  8.50000000E-01  8.50000000E-01  8.50000000E-01  8.60000000E-01  8.50000000E-01
  8.50000000E-01  8.50000000E-01  7.20000000E-01  8.50000000E-01  8.50000000E-01
  7.20000000E-01  8.50000000E-01  8.50000000E-01  7.20000000E-01  8.50000000E-01
  7.90000000E-01  7.20000000E-01  8.50000000E-01  7.90000000E-01  7.20000000E-01
  7.20000000E-01  8.50000000E-01  7.90000000E-01  8.50000000E-01  7.20000000E-01
  7.90000000E-01  8.50000000E-01  8.50000000E-01  7.90000000E-01  7.20000000E-01
  7.20000000E-01  8.50000000E-01  7.20000000E-01  8.50000000E-01  8.50000000E-01
  8.50000000E-01  8.50000000E-01  8.60000000E-01  8.50000000E-01  8.50000000E-01
  8.50000000E-01  7.20000000E-01  8.50000000E-01  8.50000000E-01  7.20000000E-01
  8.50000000E-01  8.50000000E-01  7.20000000E-01  8.50000000E-01  7.90000000E-01
  7.20000000E-01  8.50000000E-01  7.20000000E-01  8.50000000E-01  7.20000000E-01
  8.50000000E-01  7.90000000E-01  8.50000000E-01  7.20000000E-01  8.50000000E-01
  7.20000000E-01  8.50000000E-01  7.20000000E-01  8.50000000E-01  8.50000000E-01
  8.50000000E-01  8.50000000E-01  8.60000000E-01  8.50000000E-01  8.50000000E-01
  8.50000000E-01  7.20000000E-01  8.50000000E-01  8.50000000E-01  7.20000000E-01
  8.50000000E-01  8.50000000E-01  7.20000000E-01  8.50000000E-01  7.90000000E-01
  7.20000000E-01  8.50000000E-01  7.90000000E-01  7.20000000E-01  7.20000000E-01
  8.50000000E-01  7.90000000E-01  8.50000000E-01  7.20000000E-01  7.90000000E-01
  8.50000000E-01  8.50000000E-01  7.90000000E-01  7.20000000E-01  7.20000000E-01
  8.50000000E-01  7.20000000E-01  8.50000000E-01  8.50000000E-01  8.50000000E-01
  8.50000000E-01  8.60000000E-01  8.50000000E-01  8.50000000E-01  8.50000000E-01
  7.20000000E-01  8.50000000E-01  8.50000000E-01  7.20000000E-01  8.50000000E-01
  8.50000000E-01  7.20000000E-01  8.50000000E-01  7.90000000E-01  7.20000000E-01
  8.50000000E-01  7.90000000E-01  7.20000000E-01  7.20000000E-01  8.50000000E-01
  7.90000000E-01  8.50000000E-01  7.20000000E-01  7.90000000E-01  8.50000000E-01
  8.50000000E-01  7.90000000E-01  7.20000000E-01  7.20000000E-01  8.50000000E-01
  7.20000000E-01  8.50000000E-01  8.50000000E-01  8.50000000E-01  8.50000000E-01
  8.60000000E-01  8.50000000E-01  8.50000000E-01  8.50000000E-01  7.20000000E-01
  8.50000000E-01  8.50000000E-01  7.20000000E-01  8.50000000E-01  8.50000000E-01
  7.20000000E-01  8.50000000E-01  7.90000000E-01  7.20000000E-01  8.50000000E-01
  7.90000000E-01  7.20000000E-01  7.20000000E-01  7.90000000E-01  8.50000000E-01
  8.50000000E-01  7.90000000E-01  7.20000000E-01  8.50000000E-01  7.90000000E-01
  7.20000000E-01  7.20000000E-01  8.50000000E-01  7.20000000E-01  8.50000000E-01
  8.50000000E-01  8.50000000E-01  8.50000000E-01  8.60000000E-01  8.50000000E-01
  8.50000000E-01  8.50000000E-01  7.20000000E-01  8.50000000E-01  8.50000000E-01
  7.20000000E-01  8.50000000E-01  8.50000000E-01  7.20000000E-01  8.50000000E-01
  7.90000000E-01  7.20000000E-01  8.50000000E-01  7.20000000E-01  8.50000000E-01
  7.20000000E-01  8.50000000E-01  7.90000000E-01  8.50000000E-01  7.20000000E-01
  8.50000000E-01  7.20000000E-01  8.50000000E-01  7.20000000E-01  8.50000000E-01
  8.50000000E-01  8.50000000E-01  8.50000000E-01  8.60000000E-01  8.50000000E-01
  8.50000000E-01  8.50000000E-01  7.20000000E-01  8.50000000E-01  8.50000000E-01
  7.20000000E-01  8.50000000E-01  8.50000000E-01  7.20000000E-01  8.50000000E-01
  7.90000000E-01  7.20000000E-01  8.50000000E-01  7.90000000E-01  7.20000000E-01
  7.20000000E-01  7.90000000E-01  8.50000000E-01  8.50000000E-01  7.90000000E-01
  7.20000000E-01  8.50000000E-01  7.90000000E-01  7.20000000E-01  7.20000000E-01
  8.50000000E-01  7.20000000E-01  8.50000000E-01  8.50000000E-01  8.50000000E-01
  8.50000000E-01  8.60000000E-01  8.50000000E-01  8.50000000E-01  8.50000000E-01
  7.20000000E-01  8.50000000E-01  8.50000000E-01  7.20000000E-01  8.50000000E-01
  8.50000000E-01  7.20000000E-01  8.50000000E-01  7.90000000E-01  7.20000000E-01
  8.50000000E-01  7.20000000E-01  8.50000000E-01  7.20000000E-01  8.50000000E-01
  7.90000000E-01  8.50000000E-01  7.20000000E-01  8.50000000E-01  7.20000000E-01
  8.50000000E-01  7.20000000E-01  8.50000000E-01  8.50000000E-01  8.50000000E-01
  8.50000000E-01  8.60000000E-01  8.50000000E-01  8.50000000E-01  8.50000000E-01
  7.20000000E-01  8.50000000E-01  8.50000000E-01  7.20000000E-01  8.50000000E-01
  8.50000000E-01  7.20000000E-01  8.50000000E-01  7.90000000E-01  7.20000000E-01
  8.50000000E-01  7.90000000E-01  7.20000000E-01  7.20000000E-01  8.50000000E-01
  7.90000000E-01  8.50000000E-01  7.20000000E-01  7.90000000E-01  8.50000000E-01
  8.50000000E-01  7.90000000E-01  7.20000000E-01  7.20000000E-01  8.50000000E-01
  7.20000000E-01  8.50000000E-01  8.50000000E-01  8.50000000E-01  8.50000000E-01
  8.60000000E-01  8.50000000E-01  8.50000000E-01  8.50000000E-01  7.20000000E-01
  8.50000000E-01  8.50000000E-01  7.20000000E-01  8.50000000E-01  8.50000000E-01
  7.20000000E-01  8.50000000E-01  7.90000000E-01  7.20000000E-01  8.50000000E-01
  7.90000000E-01  7.20000000E-01  7.20000000E-01  8.50000000E-01  7.90000000E-01
  8.50000000E-01  7.20000000E-01  7.90000000E-01  8.50000000E-01  8.50000000E-01
  7.90000000E-01  7.20000000E-01  7.20000000E-01  8.50000000E-01  7.20000000E-01
  8.50000000E-01  8.50000000E-01  8.50000000E-01  8.50000000E-01  8.60000000E-01
  8.50000000E-01  8.50000000E-01  8.50000000E-01  7.20000000E-01  8.50000000E-01
  8.50000000E-01  7.20000000E-01  8.50000000E-01  8.50000000E-01  7.20000000E-01
  8.50000000E-01  7.90000000E-01  7.20000000E-01  8.50000000E-01  7.20000000E-01
  8.50000000E-01  7.20000000E-01  7.90000000E-01  8.50000000E-01  8.50000000E-01
  7.90000000E-01  7.20000000E-01  8.50000000E-01  7.20000000E-01  8.50000000E-01
  7.20000000E-01  8.50000000E-01  8.50000000E-01  8.50000000E-01  8.50000000E-01
  8.60000000E-01  8.50000000E-01  8.50000000E-01  8.50000000E-01  7.20000000E-01
  8.50000000E-01  8.50000000E-01  7.20000000E-01  8.50000000E-01  8.50000000E-01
  7.20000000E-01  8.50000000E-01  7.90000000E-01  7.20000000E-01  8.50000000E-01
  7.90000000E-01  7.20000000E-01  7.20000000E-01  7.90000000E-01  8.50000000E-01
  8.50000000E-01  7.90000000E-01  7.20000000E-01  8.50000000E-01  7.90000000E-01
  7.20000000E-01  7.20000000E-01  8.50000000E-01  7.20000000E-01  8.50000000E-01
  8.50000000E-01  8.50000000E-01  8.50000000E-01  8.60000000E-01  8.50000000E-01
  8.50000000E-01  8.50000000E-01  7.20000000E-01  8.50000000E-01  8.50000000E-01
  7.20000000E-01  8.50000000E-01  8.50000000E-01  7.20000000E-01  8.50000000E-01
  7.90000000E-01  7.20000000E-01  8.50000000E-01  7.20000000E-01  8.50000000E-01
  7.20000000E-01  7.90000000E-01  8.50000000E-01  8.50000000E-01  7.90000000E-01
  7.20000000E-01  8.50000000E-01  7.20000000E-01  8.50000000E-01  7.20000000E-01
  8.50000000E-01  8.50000000E-01  8.50000000E-01  8.50000000E-01  8.60000000E-01
  8.50000000E-01  8.50000000E-01  8.50000000E-01  7.20000000E-01  8.50000000E-01
  8.50000000E-01  7.20000000E-01  8.50000000E-01  8.50000000E-01  7.20000000E-01
  8.50000000E-01  7.90000000E-01  7.20000000E-01  8.50000000E-01  7.90000000E-01
  7.20000000E-01  7.20000000E-01  8.50000000E-01  7.90000000E-01  8.50000000E-01
  7.20000000E-01  7.90000000E-01  8.50000000E-01  8.50000000E-01  7.90000000E-01
  7.20000000E-01  7.20000000E-01  8.50000000E-01  7.20000000E-01  8.50000000E-01
  8.50000000E-01  8.50000000E-01  8.50000000E-01  8.60000000E-01  8.50000000E-01
  8.50000000E-01  8.50000000E-01  7.20000000E-01  8.50000000E-01  8.50000000E-01
  7.20000000E-01  8.50000000E-01  8.50000000E-01  7.20000000E-01  8.50000000E-01
  7.90000000E-01  7.20000000E-01  8.50000000E-01  7.20000000E-01  8.50000000E-01
  7.20000000E-01  7.90000000E-01  8.50000000E-01  8.50000000E-01  7.90000000E-01
  7.20000000E-01  8.50000000E-01  7.20000000E-01  8.50000000E-01  7.20000000E-01
  8.50000000E-01  8.50000000E-01  8.50000000E-01  8.50000000E-01  8.60000000E-01
  8.50000000E-01  8.50000000E-01  8.50000000E-01  7.20000000E-01  8.50000000E-01
  8.50000000E-01  7.20000000E-01  8.50000000E-01  8.50000000E-01  7.20000000E-01
  8.50000000E-01  7.90000000E-01  7.20000000E-01  8.50000000E-01  7.90000000E-01
  7.20000000E-01  7.20000000E-01  7.90000000E-01  8.50000000E-01  8.50000000E-01
  7.90000000E-01  7.20000000E-01  8.50000000E-01  7.90000000E-01  7.20000000E-01
  7.20000000E-01  8.50000000E-01  7.20000000E-01  8.50000000E-01  8.50000000E-01
  8.50000000E-01  8.50000000E-01  8.60000000E-01  8.50000000E-01  8.50000000E-01
  8.50000000E-01  7.20000000E-01  8.50000000E-01  8.50000000E-01  7.20000000E-01
  8.50000000E-01  8.50000000E-01  7.20000000E-01  8.50000000E-01  7.90000000E-01
  7.20000000E-01  8.50000000E-01  7.90000000E-01  7.20000000E-01  7.20000000E-01
  7.90000000E-01  8.50000000E-01  8.50000000E-01  7.90000000E-01  7.20000000E-01
  8.50000000E-01  7.90000000E-01  7.20000000E-01  7.20000000E-01  8.50000000E-01
  7.20000000E-01  8.50000000E-01  8.50000000E-01  8.50000000E-01  8.50000000E-01
  8.60000000E-01  8.50000000E-01  8.50000000E-01  8.50000000E-01  7.20000000E-01
  8.50000000E-01  8.50000000E-01  7.20000000E-01  8.50000000E-01  8.50000000E-01
  7.20000000E-01  8.50000000E-01  7.90000000E-01  7.20000000E-01  8.50000000E-01
  7.90000000E-01  7.20000000E-01  7.20000000E-01  8.50000000E-01  7.90000000E-01
  8.50000000E-01  7.20000000E-01  7.90000000E-01  8.50000000E-01  8.50000000E-01
  7.90000000E-01  7.20000000E-01  7.20000000E-01  8.50000000E-01  7.20000000E-01
  8.50000000E-01  8.50000000E-01  8.50000000E-01  8.50000000E-01  8.60000000E-01
  8.50000000E-01  8.50000000E-01  8.50000000E-01  7.20000000E-01  8.50000000E-01
  8.50000000E-01  7.20000000E-01  8.50000000E-01  8.50000000E-01  7.20000000E-01
  8.50000000E-01  7.90000000E-01  7.20000000E-01  8.50000000E-01  7.20000000E-01
  8.50000000E-01  7.20000000E-01  8.50000000E-01  7.90000000E-01  8.50000000E-01
  7.20000000E-01  8.50000000E-01  7.20000000E-01  8.50000000E-01  7.20000000E-01
  8.50000000E-01  8.50000000E-01  8.50000000E-01  8.50000000E-01  8.60000000E-01
  8.50000000E-01  8.50000000E-01  8.50000000E-01  7.20000000E-01  8.50000000E-01
  8.50000000E-01  7.20000000E-01  8.50000000E-01  8.50000000E-01  7.20000000E-01
  8.50000000E-01  7.90000000E-01  7.20000000E-01  8.50000000E-01  7.20000000E-01
  8.50000000E-01  7.20000000E-01  8.50000000E-01  7.90000000E-01  8.50000000E-01
  7.20000000E-01  8.50000000E-01  7.20000000E-01  8.50000000E-01  7.20000000E-01
  8.50000000E-01  8.50000000E-01  8.50000000E-01  8.50000000E-01  8.60000000E-01
  8.50000000E-01  8.50000000E-01  8.50000000E-01  7.20000000E-01  8.50000000E-01
  8.50000000E-01  7.20000000E-01  8.50000000E-01  8.50000000E-01  7.20000000E-01
  8.50000000E-01  7.90000000E-01  7.20000000E-01  8.50000000E-01  7.20000000E-01
  8.50000000E-01  7.20000000E-01  8.50000000E-01  7.90000000E-01  8.50000000E-01
  7.20000000E-01  8.50000000E-01  7.20000000E-01  8.50000000E-01  7.20000000E-01
  8.50000000E-01  8.50000000E-01  8.50000000E-01  8.50000000E-01  8.60000000E-01
  8.50000000E-01  8.50000000E-01  8.50000000E-01  7.20000000E-01  8.50000000E-01
  8.50000000E-01  7.20000000E-01  8.50000000E-01  8.50000000E-01  7.20000000E-01
  8.50000000E-01  7.90000000E-01  7.20000000E-01  8.50000000E-01  7.20000000E-01
  8.50000000E-01  7.20000000E-01  7.90000000E-01  8.50000000E-01  8.50000000E-01
  7.90000000E-01  7.20000000E-01  8.50000000E-01  7.20000000E-01  8.50000000E-01
  7.20000000E-01  8.50000000E-01  8.50000000E-01  8.50000000E-01  8.50000000E-01
  8.60000000E-01  8.50000000E-01  8.50000000E-01  8.50000000E-01  7.20000000E-01
  8.50000000E-01  8.50000000E-01  7.20000000E-01  8.50000000E-01  8.50000000E-01
  7.20000000E-01  8.50000000E-01  7.90000000E-01  7.20000000E-01  8.50000000E-01
  7.20000000E-01  8.50000000E-01  7.20000000E-01  8.50000000E-01  7.90000000E-01
  8.50000000E-01  7.20000000E-01  8.50000000E-01  7.20000000E-01  8.50000000E-01
  7.20000000E-01  8.50000000E-01  8.50000000E-01  8.50000000E-01  8.50000000E-01
  8.60000000E-01  8.50000000E-01  8.50000000E-01  8.50000000E-01  7.20000000E-01
  8.50000000E-01  8.50000000E-01  7.20000000E-01  8.50000000E-01  8.50000000E-01
  7.20000000E-01  8.50000000E-01  7.90000000E-01  7.20000000E-01  8.50000000E-01
  7.90000000E-01  7.20000000E-01  7.20000000E-01  7.90000000E-01  8.50000000E-01
  8.50000000E-01  7.90000000E-01  7.20000000E-01  8.50000000E-01  7.90000000E-01
  7.20000000E-01  7.20000000E-01  8.50000000E-01  7.20000000E-01  8.50000000E-01
  8.50000000E-01  8.50000000E-01  8.50000000E-01  8.60000000E-01  8.50000000E-01
  8.50000000E-01  8.50000000E-01  7.20000000E-01  8.50000000E-01  8.50000000E-01
  7.20000000E-01  8.50000000E-01  8.50000000E-01  7.20000000E-01  8.50000000E-01
  7.90000000E-01  7.20000000E-01  8.50000000E-01  7.20000000E-01  8.50000000E-01
  7.20000000E-01  7.90000000E-01  8.50000000E-01  8.50000000E-01  7.90000000E-01
  7.20000000E-01  8.50000000E-01  7.20000000E-01  8.50000000E-01  7.20000000E-01
  8.50000000E-01  8.50000000E-01  8.50000000E-01  8.50000000E-01  8.60000000E-01
  8.50000000E-01  8.50000000E-01  8.50000000E-01  7.20000000E-01  8.50000000E-01
  8.50000000E-01  7.20000000E-01  8.50000000E-01  8.50000000E-01  7.20000000E-01
  8.50000000E-01  7.90000000E-01  7.20000000E-01  8.50000000E-01  7.20000000E-01
  8.50000000E-01  7.20000000E-01  7.90000000E-01  8.50000000E-01  8.50000000E-01
  7.90000000E-01  7.20000000E-01  8.50000000E-01  7.20000000E-01  8.50000000E-01
  7.20000000E-01  8.50000000E-01  8.50000000E-01  8.50000000E-01  8.50000000E-01
  8.60000000E-01  8.50000000E-01  8.50000000E-01  8.50000000E-01  7.20000000E-01
  8.50000000E-01  8.50000000E-01  7.20000000E-01  8.50000000E-01  8.50000000E-01
  7.20000000E-01  8.50000000E-01  7.90000000E-01  7.20000000E-01  8.50000000E-01
  7.90000000E-01  7.20000000E-01  7.20000000E-01  8.50000000E-01  7.90000000E-01
  8.50000000E-01  7.20000000E-01  7.90000000E-01  8.50000000E-01  8.50000000E-01
  7.90000000E-01  7.20000000E-01  7.20000000E-01  8.50000000E-01  7.20000000E-01
  8.50000000E-01  8.50000000E-01  8.50000000E-01  8.50000000E-01  8.60000000E-01
  8.50000000E-01  8.50000000E-01  8.50000000E-01  7.20000000E-01  8.50000000E-01
  8.50000000E-01  7.20000000E-01  8.50000000E-01  8.50000000E-01  7.20000000E-01
  8.50000000E-01  7.90000000E-01  7.20000000E-01  8.50000000E-01  7.90000000E-01
  7.20000000E-01  7.20000000E-01  8.50000000E-01  7.90000000E-01  8.50000000E-01
  7.20000000E-01  7.90000000E-01  8.50000000E-01  8.50000000E-01  7.90000000E-01
  7.20000000E-01  7.20000000E-01  8.50000000E-01  7.20000000E-01  8.50000000E-01
  8.50000000E-01  8.50000000E-01  8.50000000E-01  8.60000000E-01  8.50000000E-01
  8.50000000E-01  8.50000000E-01  7.20000000E-01  8.50000000E-01  8.50000000E-01
  7.20000000E-01  8.50000000E-01  8.50000000E-01  7.20000000E-01  8.50000000E-01
  7.90000000E-01  7.20000000E-01  8.50000000E-01  7.90000000E-01  7.20000000E-01
  7.20000000E-01  8.50000000E-01  7.90000000E-01  8.50000000E-01  7.20000000E-01
  7.90000000E-01  8.50000000E-01  8.50000000E-01  7.90000000E-01  7.20000000E-01
  7.20000000E-01  8.50000000E-01  7.20000000E-01  8.50000000E-01  8.50000000E-01
  8.50000000E-01  8.50000000E-01  8.60000000E-01  8.50000000E-01  8.50000000E-01
  8.50000000E-01  7.20000000E-01  8.50000000E-01  8.50000000E-01  7.20000000E-01
  8.50000000E-01  8.50000000E-01  7.20000000E-01  8.50000000E-01  7.90000000E-01
  7.20000000E-01  8.50000000E-01  7.20000000E-01  8.50000000E-01  7.20000000E-01
  7.90000000E-01  8.50000000E-01  8.50000000E-01  7.90000000E-01  7.20000000E-01
  8.50000000E-01  7.20000000E-01  8.50000000E-01  7.20000000E-01  8.50000000E-01
  8.50000000E-01  8.50000000E-01  8.50000000E-01  8.60000000E-01  8.50000000E-01
  8.50000000E-01  8.50000000E-01  7.20000000E-01  8.50000000E-01  8.50000000E-01
  7.20000000E-01  8.50000000E-01  8.50000000E-01  7.20000000E-01  8.50000000E-01
  7.90000000E-01  7.20000000E-01  8.50000000E-01  7.90000000E-01  7.20000000E-01
  7.20000000E-01  7.90000000E-01  8.50000000E-01  8.50000000E-01  7.90000000E-01
  7.20000000E-01  8.50000000E-01  7.90000000E-01  7.20000000E-01  7.20000000E-01
  8.50000000E-01  7.20000000E-01  8.50000000E-01  8.50000000E-01  8.50000000E-01
  8.50000000E-01  8.60000000E-01  8.50000000E-01  8.50000000E-01  8.50000000E-01
  7.20000000E-01  8.50000000E-01  8.50000000E-01  7.20000000E-01  8.50000000E-01
  8.50000000E-01  7.20000000E-01  8.50000000E-01  7.90000000E-01  7.20000000E-01
  8.50000000E-01  7.20000000E-01  8.50000000E-01  7.20000000E-01  7.90000000E-01
  8.50000000E-01  8.50000000E-01  7.90000000E-01  7.20000000E-01  8.50000000E-01
  7.20000000E-01  8.50000000E-01  7.20000000E-01  8.50000000E-01  8.50000000E-01
  8.50000000E-01  8.50000000E-01  8.60000000E-01  8.50000000E-01  8.50000000E-01
  8.50000000E-01  7.20000000E-01  8.50000000E-01  8.50000000E-01  7.20000000E-01
  8.50000000E-01  8.50000000E-01  7.20000000E-01  8.50000000E-01  7.90000000E-01
  7.20000000E-01  8.50000000E-01  7.20000000E-01  8.50000000E-01  7.20000000E-01
  7.90000000E-01  8.50000000E-01  8.50000000E-01  7.90000000E-01  7.20000000E-01
  8.50000000E-01  7.20000000E-01  8.50000000E-01  7.20000000E-01  8.50000000E-01
  8.50000000E-01  8.50000000E-01  8.50000000E-01  8.60000000E-01  8.50000000E-01
  8.50000000E-01  8.50000000E-01  7.20000000E-01  8.50000000E-01  8.50000000E-01
  7.20000000E-01  8.50000000E-01  8.50000000E-01  7.20000000E-01  8.50000000E-01
  7.90000000E-01  7.20000000E-01  8.50000000E-01  7.90000000E-01  7.20000000E-01
  7.20000000E-01  8.50000000E-01  7.90000000E-01  8.50000000E-01  7.20000000E-01
  7.90000000E-01  8.50000000E-01  8.50000000E-01  7.90000000E-01  7.20000000E-01
  7.20000000E-01  8.50000000E-01  7.20000000E-01  8.50000000E-01  8.50000000E-01
  8.50000000E-01  8.50000000E-01  8.60000000E-01  8.50000000E-01  8.50000000E-01
  8.50000000E-01  7.20000000E-01  8.50000000E-01  8.50000000E-01  7.20000000E-01
  8.50000000E-01  8.50000000E-01  7.20000000E-01  8.50000000E-01  7.90000000E-01
  7.20000000E-01  8.50000000E-01  7.20000000E-01  8.50000000E-01  7.20000000E-01
  8.50000000E-01  7.90000000E-01  8.50000000E-01  7.20000000E-01  8.50000000E-01
  7.20000000E-01  8.50000000E-01  7.20000000E-01  8.50000000E-01  8.50000000E-01
  8.50000000E-01  8.50000000E-01  8.60000000E-01  8.50000000E-01  8.50000000E-01
  8.50000000E-01  7.20000000E-01  8.50000000E-01  8.50000000E-01  7.20000000E-01
  8.50000000E-01  8.50000000E-01  7.20000000E-01  8.50000000E-01  7.90000000E-01
  7.20000000E-01  8.50000000E-01  7.90000000E-01  7.20000000E-01  7.20000000E-01
  7.90000000E-01  8.50000000E-01  8.50000000E-01  7.90000000E-01  7.20000000E-01
  8.50000000E-01  7.90000000E-01  7.20000000E-01  7.20000000E-01  8.50000000E-01
  7.20000000E-01  8.50000000E-01  8.50000000E-01  8.50000000E-01  8.50000000E-01
  8.60000000E-01  8.50000000E-01  8.50000000E-01  8.50000000E-01  7.20000000E-01
  8.50000000E-01  8.50000000E-01  7.20000000E-01  8.50000000E-01  8.50000000E-01
  7.20000000E-01  8.50000000E-01  7.90000000E-01  7.20000000E-01  8.50000000E-01
  7.90000000E-01  7.20000000E-01  7.20000000E-01  7.90000000E-01  8.50000000E-01
  8.50000000E-01  7.90000000E-01  7.20000000E-01  8.50000000E-01  7.90000000E-01
  7.20000000E-01  7.20000000E-01  8.50000000E-01  7.20000000E-01  8.50000000E-01
  8.50000000E-01  8.50000000E-01  8.50000000E-01  8.60000000E-01  8.50000000E-01
  8.50000000E-01  8.50000000E-01  7.20000000E-01  8.50000000E-01  8.50000000E-01
  7.20000000E-01  8.50000000E-01  8.50000000E-01  7.20000000E-01  8.50000000E-01
  7.90000000E-01  7.20000000E-01  8.50000000E-01  7.90000000E-01  7.20000000E-01
  7.20000000E-01  7.90000000E-01  8.50000000E-01  8.50000000E-01  7.90000000E-01
  7.20000000E-01  8.50000000E-01  7.90000000E-01  7.20000000E-01  7.20000000E-01
  8.50000000E-01  7.20000000E-01  8.50000000E-01  8.50000000E-01  8.50000000E-01
  8.50000000E-01  8.60000000E-01  8.50000000E-01  8.50000000E-01  8.50000000E-01
  7.20000000E-01  8.50000000E-01  8.50000000E-01  7.20000000E-01  8.50000000E-01
  8.50000000E-01  7.20000000E-01  8.50000000E-01  7.90000000E-01  7.20000000E-01
  8.50000000E-01  7.20000000E-01  8.50000000E-01  7.20000000E-01  8.50000000E-01
  7.90000000E-01  8.50000000E-01  7.20000000E-01  8.50000000E-01  7.20000000E-01
  8.50000000E-01  7.20000000E-01  8.50000000E-01  8.50000000E-01  8.50000000E-01
  8.50000000E-01  8.60000000E-01  8.50000000E-01  8.50000000E-01  8.50000000E-01
  7.20000000E-01  8.50000000E-01  8.50000000E-01  7.20000000E-01  8.50000000E-01
  8.50000000E-01  7.20000000E-01  8.50000000E-01  7.90000000E-01  7.20000000E-01
  8.50000000E-01  7.90000000E-01  7.20000000E-01  7.20000000E-01  8.50000000E-01
  7.90000000E-01  8.50000000E-01  7.20000000E-01  7.90000000E-01  8.50000000E-01
  8.50000000E-01  7.90000000E-01  7.20000000E-01  7.20000000E-01  8.50000000E-01
  7.20000000E-01  8.50000000E-01  8.50000000E-01  8.50000000E-01  8.50000000E-01
  8.60000000E-01  8.50000000E-01  8.50000000E-01  8.50000000E-01  7.20000000E-01
  8.50000000E-01  8.50000000E-01  7.20000000E-01  8.50000000E-01  8.50000000E-01
  7.20000000E-01  8.50000000E-01  7.90000000E-01  7.20000000E-01  8.50000000E-01
  7.20000000E-01  8.50000000E-01  7.20000000E-01  8.50000000E-01  7.90000000E-01
  8.50000000E-01  7.20000000E-01  8.50000000E-01  7.20000000E-01  8.50000000E-01
  7.20000000E-01  8.50000000E-01  8.50000000E-01  8.50000000E-01  8.50000000E-01
  8.60000000E-01  8.50000000E-01  8.50000000E-01  8.50000000E-01  7.20000000E-01
  8.50000000E-01  8.50000000E-01  7.20000000E-01  8.50000000E-01  8.50000000E-01
  7.20000000E-01  8.50000000E-01  7.90000000E-01  7.20000000E-01  8.50000000E-01
  7.20000000E-01  8.50000000E-01  7.20000000E-01  7.90000000E-01  8.50000000E-01
  8.50000000E-01  7.90000000E-01  7.20000000E-01  8.50000000E-01  7.20000000E-01
  8.50000000E-01  7.20000000E-01  8.50000000E-01  8.50000000E-01  8.50000000E-01
  8.50000000E-01  8.60000000E-01  8.50000000E-01  8.50000000E-01  8.50000000E-01
  7.20000000E-01  8.50000000E-01  8.50000000E-01  7.20000000E-01  8.50000000E-01
  8.50000000E-01  7.20000000E-01  8.50000000E-01  7.90000000E-01  7.20000000E-01
  8.50000000E-01  7.20000000E-01  8.50000000E-01  7.20000000E-01  7.90000000E-01
  8.50000000E-01  8.50000000E-01  7.90000000E-01  7.20000000E-01  8.50000000E-01
  7.20000000E-01  8.50000000E-01  7.20000000E-01  8.50000000E-01  8.50000000E-01
  8.50000000E-01  8.50000000E-01  8.60000000E-01  8.50000000E-01  8.50000000E-01
  8.50000000E-01  7.20000000E-01  8.50000000E-01  8.50000000E-01  7.20000000E-01
  8.50000000E-01  8.50000000E-01  7.20000000E-01  8.50000000E-01  7.90000000E-01
  7.20000000E-01  8.50000000E-01  7.90000000E-01  7.20000000E-01  7.20000000E-01
  8.50000000E-01  7.90000000E-01  8.50000000E-01  7.20000000E-01  7.90000000E-01
  8.50000000E-01  8.50000000E-01  7.90000000E-01  7.20000000E-01  7.20000000E-01
  8.50000000E-01  7.20000000E-01  8.50000000E-01  8.50000000E-01  8.50000000E-01
  8.50000000E-01  8.60000000E-01  8.50000000E-01  8.50000000E-01  8.50000000E-01
  7.20000000E-01  8.50000000E-01  8.50000000E-01  7.20000000E-01  8.50000000E-01
  8.50000000E-01  7.20000000E-01  8.50000000E-01  7.90000000E-01  7.20000000E-01
  8.50000000E-01  7.90000000E-01  7.20000000E-01  7.20000000E-01  7.90000000E-01
  8.50000000E-01  8.50000000E-01  7.90000000E-01  7.20000000E-01  8.50000000E-01
  7.90000000E-01  7.20000000E-01  7.20000000E-01  8.50000000E-01  7.20000000E-01
  8.50000000E-01  8.50000000E-01  8.50000000E-01  8.50000000E-01  8.60000000E-01
  8.50000000E-01  8.50000000E-01  8.50000000E-01  7.20000000E-01  8.50000000E-01
  8.50000000E-01  7.20000000E-01  8.50000000E-01  8.50000000E-01  7.20000000E-01
  8.50000000E-01  7.90000000E-01  7.20000000E-01  8.50000000E-01  7.20000000E-01
  8.50000000E-01  7.20000000E-01  7.90000000E-01  8.50000000E-01  8.50000000E-01
  7.90000000E-01  7.20000000E-01  8.50000000E-01  7.20000000E-01  8.50000000E-01
  7.20000000E-01  8.50000000E-01  8.50000000E-01  8.50000000E-01  8.50000000E-01
  8.60000000E-01  8.50000000E-01  8.50000000E-01  8.50000000E-01  7.20000000E-01
  8.50000000E-01  8.50000000E-01  7.20000000E-01  8.50000000E-01  8.50000000E-01
  7.20000000E-01  8.50000000E-01  7.90000000E-01  7.20000000E-01  8.50000000E-01
  7.20000000E-01  8.50000000E-01  7.20000000E-01  8.50000000E-01  7.90000000E-01
  8.50000000E-01  7.20000000E-01  8.50000000E-01  7.20000000E-01  8.50000000E-01
  7.20000000E-01  8.50000000E-01  8.50000000E-01  8.50000000E-01  8.50000000E-01
  8.60000000E-01  8.50000000E-01  8.50000000E-01  8.50000000E-01  7.20000000E-01
  8.50000000E-01  8.50000000E-01  7.20000000E-01  8.50000000E-01  8.50000000E-01
  7.20000000E-01  8.50000000E-01  7.90000000E-01  7.20000000E-01  8.50000000E-01
  7.90000000E-01  7.20000000E-01  7.20000000E-01  7.90000000E-01  8.50000000E-01
  8.50000000E-01  7.90000000E-01  7.20000000E-01  8.50000000E-01  7.90000000E-01
  7.20000000E-01  7.20000000E-01  8.50000000E-01  7.20000000E-01  8.50000000E-01
  8.50000000E-01  8.50000000E-01  8.50000000E-01  8.60000000E-01  8.50000000E-01
  8.50000000E-01  8.50000000E-01  7.20000000E-01  8.50000000E-01  8.50000000E-01
  7.20000000E-01  8.50000000E-01  8.50000000E-01  7.20000000E-01  8.50000000E-01
  7.90000000E-01  7.20000000E-01  8.50000000E-01  7.20000000E-01  8.50000000E-01
  7.20000000E-01  8.50000000E-01  7.90000000E-01  8.50000000E-01  7.20000000E-01
  8.50000000E-01  7.20000000E-01  8.50000000E-01  7.20000000E-01  8.50000000E-01
  8.50000000E-01  8.50000000E-01  8.50000000E-01  8.60000000E-01  8.50000000E-01
  8.50000000E-01  8.50000000E-01  7.20000000E-01  8.50000000E-01  8.50000000E-01
  7.20000000E-01  8.50000000E-01  8.50000000E-01  7.20000000E-01  8.50000000E-01
  7.90000000E-01  7.20000000E-01  8.50000000E-01  7.90000000E-01  7.20000000E-01
  7.20000000E-01  8.50000000E-01  7.90000000E-01  8.50000000E-01  7.20000000E-01
  7.90000000E-01  8.50000000E-01  8.50000000E-01  7.90000000E-01  7.20000000E-01
  7.20000000E-01  8.50000000E-01  7.20000000E-01  8.50000000E-01  8.50000000E-01
  8.50000000E-01  8.50000000E-01  8.60000000E-01  8.50000000E-01  8.50000000E-01
  8.50000000E-01  7.20000000E-01  8.50000000E-01  8.50000000E-01  7.20000000E-01
  8.50000000E-01  8.50000000E-01  7.20000000E-01  8.50000000E-01  7.90000000E-01
  7.20000000E-01  8.50000000E-01  7.90000000E-01  7.20000000E-01  7.20000000E-01
  8.50000000E-01  7.90000000E-01  8.50000000E-01  7.20000000E-01  7.90000000E-01
  8.50000000E-01  8.50000000E-01  7.90000000E-01  7.20000000E-01  7.20000000E-01
  8.50000000E-01  7.20000000E-01  8.50000000E-01  8.50000000E-01  8.50000000E-01
  8.50000000E-01  8.60000000E-01  8.50000000E-01  8.50000000E-01  8.50000000E-01
  7.20000000E-01  8.50000000E-01  8.50000000E-01  7.20000000E-01  8.50000000E-01
  8.50000000E-01  7.20000000E-01  8.50000000E-01  7.90000000E-01  7.20000000E-01
  8.50000000E-01  7.20000000E-01  8.50000000E-01  7.20000000E-01  8.50000000E-01
  7.90000000E-01  8.50000000E-01  7.20000000E-01  8.50000000E-01  7.20000000E-01
  8.50000000E-01  7.20000000E-01  8.50000000E-01  8.50000000E-01  8.50000000E-01
  8.50000000E-01  8.60000000E-01  8.50000000E-01  8.50000000E-01  8.50000000E-01
  7.20000000E-01  8.50000000E-01  8.50000000E-01  7.20000000E-01  8.50000000E-01
  8.50000000E-01  7.20000000E-01  8.50000000E-01  7.90000000E-01  7.20000000E-01
  8.50000000E-01  7.20000000E-01  8.50000000E-01  7.20000000E-01  7.90000000E-01
  8.50000000E-01  8.50000000E-01  7.90000000E-01  7.20000000E-01  8.50000000E-01
  7.20000000E-01  8.50000000E-01  7.20000000E-01  8.50000000E-01  8.50000000E-01
  8.50000000E-01  8.50000000E-01  8.50000000E-01  8.00000000E-01  8.00000000E-01
  8.00000000E-01  8.00000000E-01  8.00000000E-01  8.00000000E-01  8.00000000E-01
  8.00000000E-01  8.00000000E-01  8.00000000E-01  8.00000000E-01  8.00000000E-01
  8.00000000E-01  8.00000000E-01  8.00000000E-01  8.00000000E-01  8.00000000E-01
  8.00000000E-01  8.00000000E-01  8.00000000E-01  8.00000000E-01  8.00000000E-01
  8.00000000E-01  8.00000000E-01  8.00000000E-01  8.00000000E-01  8.00000000E-01
  8.00000000E-01  8.00000000E-01  8.00000000E-01  8.00000000E-01  8.00000000E-01
  8.00000000E-01  8.00000000E-01  8.00000000E-01  8.00000000E-01  8.00000000E-01
  8.00000000E-01  8.00000000E-01  8.00000000E-01  8.00000000E-01  8.00000000E-01
  8.00000000E-01  8.00000000E-01  8.00000000E-01  8.00000000E-01  8.00000000E-01
  8.00000000E-01  8.00000000E-01  8.00000000E-01  8.00000000E-01  8.00000000E-01
  8.00000000E-01  8.00000000E-01  8.00000000E-01  8.00000000E-01  8.00000000E-01
  8.00000000E-01  8.00000000E-01  8.00000000E-01  8.00000000E-01  8.00000000E-01
  8.00000000E-01  8.00000000E-01  8.00000000E-01  8.00000000E-01  8.00000000E-01
  8.00000000E-01  8.00000000E-01  8.00000000E-01  8.00000000E-01  8.00000000E-01
  8.00000000E-01  8.00000000E-01  8.00000000E-01  8.00000000E-01  8.00000000E-01
  8.00000000E-01  8.00000000E-01  8.00000000E-01  8.00000000E-01  8.00000000E-01
  8.00000000E-01  8.00000000E-01  8.00000000E-01  8.00000000E-01  8.00000000E-01
  8.00000000E-01  8.00000000E-01  8.00000000E-01  8.00000000E-01  8.00000000E-01
  8.00000000E-01  8.00000000E-01  8.00000000E-01  8.00000000E-01  8.00000000E-01
  8.00000000E-01  8.00000000E-01  8.00000000E-01  8.00000000E-01  8.00000000E-01
  8.00000000E-01  8.00000000E-01  8.00000000E-01  8.00000000E-01  8.00000000E-01
  8.00000000E-01  8.00000000E-01  8.00000000E-01  8.00000000E-01  8.00000000E-01
  8.00000000E-01  8.00000000E-01  8.00000000E-01  8.00000000E-01  8.00000000E-01
  8.00000000E-01  8.00000000E-01  8.00000000E-01  8.00000000E-01  8.00000000E-01
  8.00000000E-01  8.00000000E-01  8.00000000E-01  8.00000000E-01  8.00000000E-01
  8.00000000E-01  8.00000000E-01  8.00000000E-01  8.00000000E-01  8.50000000E-01
  7.20000000E-01  7.90000000E-01  7.20000000E-01  7.20000000E-01  8.80000000E-01
  8.80000000E-01  8.80000000E-01  7.90000000E-01  7.20000000E-01  7.20000000E-01
  7.90000000E-01  7.20000000E-01  7.90000000E-01  8.50000000E-01  8.50000000E-01
  8.50000000E-01  8.50000000E-01  8.50000000E-01  8.50000000E-01  8.00000000E-01
  8.50000000E-01  8.50000000E-01  8.50000000E-01  8.00000000E-01  8.50000000E-01
  8.50000000E-01  8.50000000E-01  8.00000000E-01  8.50000000E-01  8.50000000E-01
  8.50000000E-01  8.00000000E-01  8.50000000E-01  8.50000000E-01  8.50000000E-01
  8.00000000E-01  8.50000000E-01  8.50000000E-01  8.50000000E-01  8.00000000E-01
  8.50000000E-01  8.50000000E-01  8.50000000E-01  8.00000000E-01  8.50000000E-01
  8.50000000E-01  8.50000000E-01  8.00000000E-01  8.50000000E-01  8.50000000E-01
  8.50000000E-01  8.00000000E-01  8.50000000E-01  8.50000000E-01  8.50000000E-01
  8.00000000E-01  8.50000000E-01  8.50000000E-01  8.50000000E-01  8.00000000E-01
  8.50000000E-01  8.50000000E-01  8.50000000E-01  8.00000000E-01  8.50000000E-01
  8.50000000E-01  8.50000000E-01  8.00000000E-01  8.50000000E-01  8.50000000E-01
  8.50000000E-01  8.00000000E-01  8.50000000E-01  8.50000000E-01  8.50000000E-01
  8.00000000E-01  8.50000000E-01  8.50000000E-01  8.50000000E-01  8.00000000E-01
  8.50000000E-01  8.50000000E-01  8.50000000E-01  8.00000000E-01  8.50000000E-01
  8.50000000E-01  8.50000000E-01  8.00000000E-01  8.50000000E-01  8.50000000E-01
  8.50000000E-01  8.00000000E-01  8.50000000E-01  8.50000000E-01  8.50000000E-01
  8.00000000E-01  8.50000000E-01  8.50000000E-01  8.50000000E-01  8.00000000E-01
  8.50000000E-01  8.50000000E-01  8.50000000E-01  8.00000000E-01  8.50000000E-01
  8.50000000E-01  8.50000000E-01  8.00000000E-01  8.50000000E-01  8.50000000E-01
  8.50000000E-01  8.00000000E-01  8.50000000E-01  8.50000000E-01  8.50000000E-01
  8.00000000E-01  8.50000000E-01  8.50000000E-01  8.50000000E-01  8.00000000E-01
  8.50000000E-01  8.50000000E-01  8.50000000E-01  8.00000000E-01  8.50000000E-01
  8.50000000E-01  8.50000000E-01  8.00000000E-01  8.50000000E-01  8.50000000E-01
  8.50000000E-01  8.00000000E-01  8.50000000E-01  8.50000000E-01  8.50000000E-01
  8.00000000E-01  8.50000000E-01  8.50000000E-01  8.50000000E-01  8.00000000E-01
  8.50000000E-01  8.50000000E-01  8.50000000E-01  8.00000000E-01  8.50000000E-01
  8.50000000E-01  8.50000000E-01  8.00000000E-01  8.50000000E-01  8.50000000E-01
  8.50000000E-01  8.00000000E-01  8.50000000E-01  8.50000000E-01  8.50000000E-01
  8.00000000E-01  8.50000000E-01  8.50000000E-01  8.50000000E-01  8.00000000E-01
  8.50000000E-01  8.50000000E-01  8.50000000E-01  8.00000000E-01  8.50000000E-01
  8.50000000E-01  8.50000000E-01  8.00000000E-01  8.50000000E-01  8.50000000E-01
  8.50000000E-01  8.00000000E-01  8.50000000E-01  8.50000000E-01  8.50000000E-01
  8.00000000E-01  8.50000000E-01  8.50000000E-01  8.50000000E-01  8.00000000E-01
  8.50000000E-01  8.50000000E-01  8.50000000E-01  8.00000000E-01  8.50000000E-01
  8.50000000E-01  8.50000000E-01  8.00000000E-01  8.50000000E-01  8.50000000E-01
  8.50000000E-01  8.00000000E-01  8.50000000E-01  8.50000000E-01  8.50000000E-01
  8.00000000E-01  8.50000000E-01  8.50000000E-01  8.50000000E-01  8.00000000E-01
  8.50000000E-01  8.50000000E-01  8.50000000E-01  8.00000000E-01  8.50000000E-01
  8.50000000E-01  8.50000000E-01  8.00000000E-01  8.50000000E-01  8.50000000E-01
  8.50000000E-01  8.00000000E-01  8.50000000E-01  8.50000000E-01  8.50000000E-01
  8.00000000E-01  8.50000000E-01  8.50000000E-01  8.50000000E-01  8.00000000E-01
  8.50000000E-01  8.50000000E-01  8.50000000E-01  8.00000000E-01  8.50000000E-01
  8.50000000E-01  8.50000000E-01  8.00000000E-01  8.50000000E-01  8.50000000E-01
  8.50000000E-01  8.00000000E-01  8.50000000E-01  8.50000000E-01  8.50000000E-01
  8.00000000E-01  8.50000000E-01  8.50000000E-01  8.50000000E-01  8.00000000E-01
  8.50000000E-01  8.50000000E-01  8.50000000E-01  8.00000000E-01  8.50000000E-01
  8.50000000E-01  8.50000000E-01  8.00000000E-01  8.50000000E-01  8.50000000E-01
  8.50000000E-01  8.00000000E-01  8.50000000E-01  8.50000000E-01  8.50000000E-01
  8.00000000E-01  8.50000000E-01  8.50000000E-01  8.50000000E-01  8.00000000E-01
  8.50000000E-01  8.50000000E-01  8.50000000E-01  8.00000000E-01  8.50000000E-01
  8.50000000E-01  8.50000000E-01  8.00000000E-01  8.50000000E-01  8.50000000E-01
  8.50000000E-01  8.00000000E-01  8.50000000E-01  8.50000000E-01  8.50000000E-01
  8.00000000E-01  8.50000000E-01  8.50000000E-01  8.50000000E-01  8.00000000E-01
  8.50000000E-01  8.50000000E-01  8.50000000E-01  8.00000000E-01  8.50000000E-01
  8.50000000E-01  8.50000000E-01  8.00000000E-01  8.50000000E-01  8.50000000E-01
  8.50000000E-01  8.00000000E-01  8.50000000E-01  8.50000000E-01  8.50000000E-01
  8.00000000E-01  8.50000000E-01  8.50000000E-01  8.50000000E-01  8.00000000E-01
  8.50000000E-01  8.50000000E-01  8.50000000E-01  8.00000000E-01  8.50000000E-01
  8.50000000E-01  8.50000000E-01  8.00000000E-01  8.50000000E-01  8.50000000E-01
  8.50000000E-01  8.00000000E-01  8.50000000E-01  8.50000000E-01  8.50000000E-01
  8.00000000E-01  8.50000000E-01  8.50000000E-01  8.50000000E-01  8.00000000E-01
  8.50000000E-01  8.50000000E-01  8.50000000E-01  8.00000000E-01  8.50000000E-01
  8.50000000E-01  8.50000000E-01  8.00000000E-01  8.50000000E-01  8.50000000E-01
  8.50000000E-01  8.00000000E-01  8.50000000E-01  8.50000000E-01  8.50000000E-01
  8.00000000E-01  8.50000000E-01  8.50000000E-01  8.50000000E-01  8.00000000E-01
  8.50000000E-01  8.50000000E-01  8.50000000E-01  8.00000000E-01  8.50000000E-01
  8.50000000E-01  8.50000000E-01  8.00000000E-01  8.50000000E-01  8.50000000E-01
  8.50000000E-01  8.00000000E-01  8.50000000E-01  8.50000000E-01  8.50000000E-01
  8.00000000E-01  8.50000000E-01  8.50000000E-01  8.50000000E-01  8.00000000E-01
  8.50000000E-01  8.50000000E-01  8.50000000E-01  8.00000000E-01  8.50000000E-01
  8.50000000E-01  8.50000000E-01  8.00000000E-01  8.50000000E-01  8.50000000E-01
  8.50000000E-01  8.00000000E-01  8.50000000E-01  8.50000000E-01  8.50000000E-01
  8.00000000E-01  8.50000000E-01  8.50000000E-01  8.50000000E-01  8.00000000E-01
  8.50000000E-01  8.50000000E-01  8.50000000E-01  8.00000000E-01  8.50000000E-01
  8.50000000E-01  8.50000000E-01  8.00000000E-01  8.50000000E-01  8.50000000E-01
  8.50000000E-01  8.00000000E-01  8.50000000E-01  8.50000000E-01  8.50000000E-01
  8.00000000E-01  8.50000000E-01  8.50000000E-01  8.50000000E-01  8.00000000E-01
  8.50000000E-01  8.50000000E-01  8.50000000E-01  8.00000000E-01  8.50000000E-01
  8.50000000E-01  8.50000000E-01  8.00000000E-01  8.50000000E-01  8.50000000E-01
  8.50000000E-01  8.00000000E-01  8.50000000E-01  8.50000000E-01  8.50000000E-01
  8.00000000E-01  8.50000000E-01  8.50000000E-01  8.50000000E-01  8.00000000E-01
  8.50000000E-01  8.50000000E-01  8.50000000E-01  8.00000000E-01  8.50000000E-01
  8.50000000E-01  8.50000000E-01  8.00000000E-01  8.50000000E-01  8.50000000E-01
  8.50000000E-01  8.00000000E-01  8.50000000E-01  8.50000000E-01  8.50000000E-01
  8.00000000E-01  8.50000000E-01  8.50000000E-01  8.50000000E-01  8.00000000E-01
  8.50000000E-01  8.50000000E-01  8.50000000E-01  8.00000000E-01  8.50000000E-01
  8.50000000E-01  8.50000000E-01  8.00000000E-01  8.50000000E-01  8.50000000E-01
  8.50000000E-01  8.00000000E-01  8.50000000E-01  8.50000000E-01  8.50000000E-01
  8.00000000E-01  8.50000000E-01  8.50000000E-01  8.50000000E-01  8.00000000E-01
  8.50000000E-01  8.50000000E-01  8.50000000E-01  8.00000000E-01  8.50000000E-01
  8.50000000E-01  8.50000000E-01  8.00000000E-01  8.50000000E-01  8.50000000E-01
  8.50000000E-01  8.00000000E-01  8.50000000E-01  8.50000000E-01  8.50000000E-01
  8.00000000E-01  8.50000000E-01  8.50000000E-01  8.50000000E-01  8.00000000E-01
  8.50000000E-01  8.50000000E-01  8.50000000E-01  8.00000000E-01  8.50000000E-01
  8.50000000E-01  8.50000000E-01  8.00000000E-01  8.50000000E-01  8.50000000E-01
  8.50000000E-01  8.00000000E-01  8.50000000E-01  8.50000000E-01  8.50000000E-01
  8.00000000E-01  8.50000000E-01  8.50000000E-01  8.50000000E-01  8.00000000E-01
  8.50000000E-01  8.50000000E-01  8.50000000E-01  8.00000000E-01  8.50000000E-01
  8.50000000E-01  8.50000000E-01  8.00000000E-01  8.50000000E-01  8.50000000E-01
  8.50000000E-01  8.00000000E-01  8.50000000E-01  8.50000000E-01  8.50000000E-01
  8.00000000E-01  8.50000000E-01  8.50000000E-01  8.50000000E-01  8.00000000E-01
  8.50000000E-01  8.50000000E-01  8.50000000E-01  8.00000000E-01  8.50000000E-01
  8.50000000E-01  8.50000000E-01  8.00000000E-01  8.50000000E-01  8.50000000E-01
  8.50000000E-01  8.00000000E-01  8.50000000E-01  8.50000000E-01  8.50000000E-01
  8.00000000E-01  8.50000000E-01  8.50000000E-01  8.50000000E-01  8.00000000E-01
  8.50000000E-01  8.50000000E-01  8.50000000E-01  8.00000000E-01  8.50000000E-01
  8.50000000E-01  8.50000000E-01  8.00000000E-01  8.50000000E-01  8.50000000E-01
  8.50000000E-01  8.00000000E-01  8.50000000E-01  8.50000000E-01  8.50000000E-01
  8.00000000E-01  8.50000000E-01  8.50000000E-01  8.50000000E-01  8.00000000E-01
  8.50000000E-01  8.50000000E-01  8.50000000E-01  8.00000000E-01  8.50000000E-01
  8.50000000E-01  8.50000000E-01  8.00000000E-01  8.50000000E-01  8.50000000E-01
  8.50000000E-01  8.00000000E-01  8.50000000E-01  8.50000000E-01  8.50000000E-01
  8.00000000E-01  8.50000000E-01  8.50000000E-01  8.50000000E-01  8.00000000E-01
  8.50000000E-01  8.50000000E-01  8.50000000E-01  8.00000000E-01  8.50000000E-01
  8.50000000E-01  8.50000000E-01  8.00000000E-01  8.50000000E-01  8.50000000E-01
  8.50000000E-01  8.00000000E-01  8.50000000E-01  8.50000000E-01  8.50000000E-01
  8.00000000E-01  8.50000000E-01  8.50000000E-01  8.50000000E-01  8.00000000E-01
  8.50000000E-01  8.50000000E-01  8.50000000E-01  8.00000000E-01  8.50000000E-01
  8.50000000E-01  8.50000000E-01  8.00000000E-01  8.50000000E-01  8.50000000E-01
  8.50000000E-01  8.00000000E-01  8.50000000E-01  8.50000000E-01  8.50000000E-01
  8.00000000E-01  8.50000000E-01  8.50000000E-01  8.50000000E-01  8.00000000E-01
  8.50000000E-01  8.50000000E-01  8.50000000E-01  8.00000000E-01  8.50000000E-01
  8.50000000E-01  8.50000000E-01  8.00000000E-01  8.50000000E-01  8.50000000E-01
  8.50000000E-01  8.00000000E-01  8.50000000E-01  8.50000000E-01  8.50000000E-01
  8.00000000E-01  8.50000000E-01  8.50000000E-01  8.50000000E-01  8.00000000E-01
  8.50000000E-01  8.50000000E-01  8.50000000E-01  8.00000000E-01  8.50000000E-01
  8.50000000E-01  8.50000000E-01  8.00000000E-01  8.50000000E-01  8.50000000E-01
  8.50000000E-01  8.00000000E-01  8.50000000E-01  8.50000000E-01  8.50000000E-01
  8.00000000E-01  8.50000000E-01  8.50000000E-01  8.50000000E-01  8.00000000E-01
  8.50000000E-01  8.50000000E-01  8.50000000E-01  8.00000000E-01  8.50000000E-01
  8.50000000E-01  8.50000000E-01  8.00000000E-01  8.50000000E-01  8.50000000E-01
  8.50000000E-01  8.00000000E-01  8.50000000E-01  8.50000000E-01  8.50000000E-01
  8.00000000E-01  8.50000000E-01  8.50000000E-01  8.50000000E-01  8.00000000E-01
  8.50000000E-01  8.50000000E-01  8.50000000E-01  8.00000000E-01  8.50000000E-01
  8.50000000E-01  8.50000000E-01  8.00000000E-01  8.50000000E-01  8.50000000E-01
  8.50000000E-01  8.00000000E-01  8.50000000E-01  8.50000000E-01  8.50000000E-01
  8.00000000E-01  8.50000000E-01  8.50000000E-01  8.50000000E-01  8.00000000E-01
  8.50000000E-01  8.50000000E-01  8.50000000E-01  8.00000000E-01  8.50000000E-01
  8.50000000E-01  8.50000000E-01  8.00000000E-01  8.50000000E-01  8.50000000E-01
  8.50000000E-01  8.00000000E-01  8.50000000E-01  8.50000000E-01  8.50000000E-01
  8.00000000E-01  8.50000000E-01  8.50000000E-01  8.50000000E-01  8.00000000E-01
  8.50000000E-01  8.50000000E-01  8.50000000E-01  8.00000000E-01  8.50000000E-01
  8.50000000E-01  8.50000000E-01  8.00000000E-01  8.50000000E-01  8.50000000E-01
  8.50000000E-01  8.00000000E-01  8.50000000E-01  8.50000000E-01  8.50000000E-01
  8.00000000E-01  8.50000000E-01  8.50000000E-01  8.50000000E-01  8.00000000E-01
  8.50000000E-01  8.50000000E-01  8.50000000E-01  8.00000000E-01  8.50000000E-01
  8.50000000E-01  8.50000000E-01  8.00000000E-01  8.50000000E-01  8.50000000E-01
  8.50000000E-01  8.00000000E-01  8.50000000E-01  8.50000000E-01  8.50000000E-01
  8.00000000E-01  8.50000000E-01  8.50000000E-01  8.50000000E-01  8.00000000E-01
  8.50000000E-01  8.50000000E-01  8.50000000E-01  8.00000000E-01  8.50000000E-01
  8.50000000E-01  8.50000000E-01  8.00000000E-01  8.50000000E-01  8.50000000E-01
  8.50000000E-01  8.00000000E-01  8.50000000E-01  8.50000000E-01  8.50000000E-01
  8.00000000E-01  8.50000000E-01  8.50000000E-01  8.50000000E-01  8.00000000E-01
  8.50000000E-01  8.50000000E-01  8.50000000E-01  8.00000000E-01  8.50000000E-01
  8.50000000E-01  8.50000000E-01  8.00000000E-01  8.50000000E-01  8.50000000E-01
  8.50000000E-01  8.00000000E-01  8.50000000E-01  8.50000000E-01  8.50000000E-01
  8.00000000E-01  8.50000000E-01  8.50000000E-01  8.50000000E-01  8.00000000E-01
  8.50000000E-01  8.50000000E-01  8.50000000E-01  8.00000000E-01  8.50000000E-01
  8.50000000E-01  8.50000000E-01  8.00000000E-01  8.50000000E-01  8.50000000E-01
  8.50000000E-01  8.00000000E-01  8.50000000E-01  8.50000000E-01  8.50000000E-01
  8.00000000E-01  8.50000000E-01  8.50000000E-01  8.50000000E-01  8.00000000E-01
  8.50000000E-01  8.50000000E-01  8.50000000E-01  8.00000000E-01  8.50000000E-01
  8.50000000E-01  8.50000000E-01  8.00000000E-01  8.50000000E-01  8.50000000E-01
  8.50000000E-01  8.00000000E-01  8.50000000E-01  8.50000000E-01  8.50000000E-01
  8.00000000E-01  8.50000000E-01  8.50000000E-01  8.50000000E-01  8.00000000E-01
  8.50000000E-01  8.50000000E-01  8.50000000E-01  8.00000000E-01  8.50000000E-01
  8.50000000E-01  8.50000000E-01  8.00000000E-01  8.50000000E-01  8.50000000E-01
  8.50000000E-01  8.00000000E-01  8.50000000E-01  8.50000000E-01  8.50000000E-01
  8.00000000E-01  8.50000000E-01  8.50000000E-01  8.50000000E-01  8.00000000E-01
  8.50000000E-01  8.50000000E-01  8.50000000E-01  8.00000000E-01  8.50000000E-01
  8.50000000E-01  8.50000000E-01  8.00000000E-01  8.50000000E-01  8.50000000E-01
  8.50000000E-01  8.00000000E-01  8.50000000E-01  8.50000000E-01  8.50000000E-01
  8.00000000E-01  8.50000000E-01  8.50000000E-01  8.50000000E-01  8.00000000E-01
  8.50000000E-01  8.50000000E-01  8.50000000E-01  8.00000000E-01  8.50000000E-01
  8.50000000E-01  8.50000000E-01  8.00000000E-01  8.50000000E-01  8.50000000E-01
  8.50000000E-01  8.00000000E-01  8.50000000E-01  8.50000000E-01  8.50000000E-01
  8.00000000E-01  8.50000000E-01  8.50000000E-01  8.50000000E-01  8.00000000E-01
  8.50000000E-01  8.50000000E-01  8.50000000E-01  8.00000000E-01  8.50000000E-01
  8.50000000E-01  8.50000000E-01  8.00000000E-01  8.50000000E-01  8.50000000E-01
  8.50000000E-01  8.00000000E-01  8.50000000E-01  8.50000000E-01  8.50000000E-01
  8.00000000E-01  8.50000000E-01  8.50000000E-01  8.50000000E-01  8.00000000E-01
  8.50000000E-01  8.50000000E-01  8.50000000E-01  8.00000000E-01  8.50000000E-01
  8.50000000E-01  8.50000000E-01  8.00000000E-01  8.50000000E-01  8.50000000E-01
  8.50000000E-01  8.00000000E-01  8.50000000E-01  8.50000000E-01  8.50000000E-01
  8.00000000E-01  8.50000000E-01  8.50000000E-01  8.50000000E-01  8.00000000E-01
  8.50000000E-01  8.50000000E-01  8.50000000E-01  8.00000000E-01  8.50000000E-01
  8.50000000E-01  8.50000000E-01  8.00000000E-01  8.50000000E-01  8.50000000E-01
  8.50000000E-01  8.00000000E-01  8.50000000E-01  8.50000000E-01  8.50000000E-01
  8.00000000E-01  8.50000000E-01  8.50000000E-01  8.50000000E-01  8.00000000E-01
  8.50000000E-01  8.50000000E-01  8.50000000E-01  8.00000000E-01  8.50000000E-01
  8.50000000E-01  8.50000000E-01  8.00000000E-01  8.50000000E-01  8.50000000E-01
  8.50000000E-01  8.00000000E-01  8.50000000E-01  8.50000000E-01  8.50000000E-01
  8.00000000E-01  8.50000000E-01  8.50000000E-01  8.50000000E-01  8.00000000E-01
  8.50000000E-01  8.50000000E-01  8.50000000E-01  8.00000000E-01  8.50000000E-01
  8.50000000E-01  8.50000000E-01  8.00000000E-01  8.50000000E-01  8.50000000E-01
  8.50000000E-01  8.00000000E-01  8.50000000E-01  8.50000000E-01  8.50000000E-01
  8.00000000E-01  8.50000000E-01  8.50000000E-01  8.50000000E-01  8.00000000E-01
  8.50000000E-01  8.50000000E-01  8.50000000E-01  8.00000000E-01  8.50000000E-01
  8.50000000E-01  8.50000000E-01  8.00000000E-01  8.50000000E-01  8.50000000E-01
  8.50000000E-01  8.00000000E-01  8.50000000E-01  8.50000000E-01  8.50000000E-01
  8.00000000E-01  8.50000000E-01  8.50000000E-01  8.50000000E-01  8.00000000E-01
  8.50000000E-01  8.50000000E-01  8.50000000E-01  8.00000000E-01  8.50000000E-01
  8.50000000E-01  8.50000000E-01  8.00000000E-01  8.50000000E-01  8.50000000E-01
  8.50000000E-01  8.00000000E-01  8.50000000E-01  8.50000000E-01  8.50000000E-01
  8.00000000E-01  8.50000000E-01  8.50000000E-01  8.50000000E-01  8.00000000E-01
  8.50000000E-01  8.50000000E-01  8.50000000E-01  8.00000000E-01  8.50000000E-01
  8.50000000E-01  8.50000000E-01  8.00000000E-01  8.50000000E-01  8.50000000E-01
  8.50000000E-01  8.00000000E-01  8.50000000E-01  8.50000000E-01  8.50000000E-01
  8.00000000E-01  8.50000000E-01  8.50000000E-01  8.50000000E-01  8.00000000E-01
  8.50000000E-01  8.50000000E-01  8.50000000E-01  8.00000000E-01  8.50000000E-01
  8.50000000E-01  8.50000000E-01  8.00000000E-01  8.50000000E-01  8.50000000E-01
  8.50000000E-01  8.00000000E-01  8.50000000E-01  8.50000000E-01  8.50000000E-01
  8.00000000E-01  8.50000000E-01  8.50000000E-01  8.50000000E-01  8.00000000E-01
  8.50000000E-01  8.50000000E-01  8.50000000E-01  8.00000000E-01  8.50000000E-01
  8.50000000E-01  8.50000000E-01  8.00000000E-01  8.50000000E-01  8.50000000E-01
  8.50000000E-01  8.00000000E-01  8.50000000E-01  8.50000000E-01  8.50000000E-01
  8.00000000E-01  8.50000000E-01  8.50000000E-01  8.50000000E-01  8.00000000E-01
  8.50000000E-01  8.50000000E-01  8.50000000E-01  8.00000000E-01  8.50000000E-01
  8.50000000E-01  8.50000000E-01  8.00000000E-01  8.50000000E-01  8.50000000E-01
  8.50000000E-01  8.00000000E-01  8.50000000E-01  8.50000000E-01  8.50000000E-01
  8.00000000E-01  8.50000000E-01  8.50000000E-01  8.50000000E-01  8.00000000E-01
  8.50000000E-01  8.50000000E-01  8.50000000E-01  8.00000000E-01  8.50000000E-01
  8.50000000E-01  8.50000000E-01  8.00000000E-01  8.50000000E-01  8.50000000E-01
  8.50000000E-01  8.00000000E-01  8.50000000E-01  8.50000000E-01  8.50000000E-01
  8.00000000E-01  8.50000000E-01  8.50000000E-01  8.50000000E-01  8.00000000E-01
  8.50000000E-01  8.50000000E-01  8.50000000E-01  8.00000000E-01  8.50000000E-01
  8.50000000E-01  8.50000000E-01  8.00000000E-01  8.50000000E-01  8.50000000E-01
  8.50000000E-01  8.00000000E-01  8.50000000E-01  8.50000000E-01  8.50000000E-01
  8.00000000E-01  8.50000000E-01  8.50000000E-01  8.50000000E-01  8.00000000E-01
  8.50000000E-01  8.50000000E-01  8.50000000E-01  8.00000000E-01  8.50000000E-01
  8.50000000E-01  8.50000000E-01  8.00000000E-01  8.50000000E-01  8.50000000E-01
  8.50000000E-01  8.00000000E-01  8.50000000E-01  8.50000000E-01  8.50000000E-01
  8.00000000E-01  8.50000000E-01  8.50000000E-01  8.50000000E-01  8.00000000E-01
  8.50000000E-01  8.50000000E-01  8.50000000E-01  8.00000000E-01  8.50000000E-01
  8.50000000E-01  8.50000000E-01  8.00000000E-01  8.50000000E-01  8.50000000E-01
  8.50000000E-01  8.00000000E-01  8.50000000E-01  8.50000000E-01  8.50000000E-01
  8.00000000E-01  8.50000000E-01  8.50000000E-01  8.50000000E-01  8.00000000E-01
  8.50000000E-01  8.50000000E-01  8.50000000E-01  8.00000000E-01  8.50000000E-01
  8.50000000E-01  8.50000000E-01  8.00000000E-01  8.50000000E-01  8.50000000E-01
  8.50000000E-01  8.00000000E-01  8.50000000E-01  8.50000000E-01  8.50000000E-01
  8.00000000E-01  8.50000000E-01  8.50000000E-01  8.50000000E-01  8.00000000E-01
  8.50000000E-01  8.50000000E-01  8.50000000E-01  8.00000000E-01  8.50000000E-01
  8.50000000E-01  8.50000000E-01  8.00000000E-01  8.50000000E-01  8.50000000E-01
  8.50000000E-01  8.00000000E-01  8.50000000E-01  8.50000000E-01  8.50000000E-01
  8.00000000E-01  8.50000000E-01  8.50000000E-01  8.50000000E-01  8.00000000E-01
  8.50000000E-01  8.50000000E-01  8.50000000E-01  8.00000000E-01  8.50000000E-01
  8.50000000E-01  8.50000000E-01  8.00000000E-01  8.50000000E-01  8.50000000E-01
  8.50000000E-01  8.00000000E-01  8.50000000E-01  8.50000000E-01  8.50000000E-01
  8.00000000E-01  8.50000000E-01  8.50000000E-01  8.50000000E-01  8.00000000E-01
  8.50000000E-01  8.50000000E-01  8.50000000E-01  8.00000000E-01  8.50000000E-01
  8.50000000E-01  8.50000000E-01  8.00000000E-01  8.50000000E-01  8.50000000E-01
  8.50000000E-01  8.00000000E-01  8.50000000E-01  8.50000000E-01  8.50000000E-01
  8.00000000E-01  8.50000000E-01  8.50000000E-01  8.50000000E-01  8.00000000E-01
  8.50000000E-01  8.50000000E-01  8.50000000E-01  8.00000000E-01  8.50000000E-01
  8.50000000E-01  8.50000000E-01  8.00000000E-01  8.50000000E-01  8.50000000E-01
  8.50000000E-01  8.00000000E-01  8.50000000E-01  8.50000000E-01  8.50000000E-01
  8.00000000E-01  8.50000000E-01  8.50000000E-01  8.50000000E-01  8.00000000E-01
  8.50000000E-01  8.50000000E-01  8.50000000E-01  8.00000000E-01  8.50000000E-01
  8.50000000E-01  8.50000000E-01  8.00000000E-01  8.50000000E-01  8.50000000E-01
  8.50000000E-01  8.00000000E-01  8.50000000E-01  8.50000000E-01  8.50000000E-01
  8.00000000E-01  8.50000000E-01  8.50000000E-01  8.50000000E-01  8.00000000E-01
  8.50000000E-01  8.50000000E-01  8.50000000E-01  8.00000000E-01  8.50000000E-01
  8.50000000E-01  8.50000000E-01  8.00000000E-01  8.50000000E-01  8.50000000E-01
  8.50000000E-01  8.00000000E-01  8.50000000E-01  8.50000000E-01  8.50000000E-01
  8.00000000E-01  8.50000000E-01  8.50000000E-01  8.50000000E-01  8.00000000E-01
  8.50000000E-01  8.50000000E-01  8.50000000E-01  8.00000000E-01  8.50000000E-01
  8.50000000E-01  8.50000000E-01  8.00000000E-01  8.50000000E-01  8.50000000E-01
  8.50000000E-01  8.00000000E-01  8.50000000E-01  8.50000000E-01  8.50000000E-01
  8.00000000E-01  8.50000000E-01  8.50000000E-01  8.50000000E-01  8.00000000E-01
  8.50000000E-01  8.50000000E-01  8.50000000E-01  8.00000000E-01  8.50000000E-01
  8.50000000E-01  8.50000000E-01  8.00000000E-01  8.50000000E-01  8.50000000E-01
  8.50000000E-01  8.00000000E-01  8.50000000E-01  8.50000000E-01  8.50000000E-01
  8.00000000E-01  8.50000000E-01  8.50000000E-01  8.50000000E-01  8.00000000E-01
  8.50000000E-01  8.50000000E-01  8.50000000E-01  8.00000000E-01  8.50000000E-01
  8.50000000E-01  8.50000000E-01  8.00000000E-01  8.50000000E-01  8.50000000E-01
  8.50000000E-01  8.00000000E-01  8.50000000E-01  8.50000000E-01  8.50000000E-01
  8.00000000E-01  8.50000000E-01  8.50000000E-01  8.50000000E-01  8.00000000E-01
  8.50000000E-01  8.50000000E-01  8.50000000E-01  8.00000000E-01  8.50000000E-01
  8.50000000E-01  8.50000000E-01  8.00000000E-01  8.50000000E-01  8.50000000E-01
  8.50000000E-01  8.00000000E-01  8.50000000E-01  8.50000000E-01  8.50000000E-01
  8.00000000E-01  8.50000000E-01  8.50000000E-01  8.50000000E-01  8.00000000E-01
  8.50000000E-01  8.50000000E-01  8.50000000E-01  8.00000000E-01  8.50000000E-01
  8.50000000E-01  8.50000000E-01  8.00000000E-01  8.50000000E-01  8.50000000E-01
  8.50000000E-01  8.00000000E-01  8.50000000E-01  8.50000000E-01  8.50000000E-01
  8.00000000E-01  8.50000000E-01  8.50000000E-01  8.50000000E-01  8.00000000E-01
  8.50000000E-01  8.50000000E-01  8.50000000E-01  8.00000000E-01  8.50000000E-01
  8.50000000E-01  8.50000000E-01  8.00000000E-01  8.50000000E-01  8.50000000E-01
  8.50000000E-01  8.00000000E-01  8.50000000E-01  8.50000000E-01  8.50000000E-01
  8.00000000E-01  8.50000000E-01  8.50000000E-01  8.50000000E-01  8.00000000E-01
  8.50000000E-01  8.50000000E-01  8.50000000E-01  8.00000000E-01  8.50000000E-01
  8.50000000E-01  8.50000000E-01  8.00000000E-01  8.50000000E-01  8.50000000E-01
  8.50000000E-01  8.00000000E-01  8.50000000E-01  8.50000000E-01  8.50000000E-01
  8.00000000E-01  8.50000000E-01  8.50000000E-01  8.50000000E-01  8.00000000E-01
  8.50000000E-01  8.50000000E-01  8.50000000E-01  8.00000000E-01  8.50000000E-01
  8.50000000E-01  8.50000000E-01  8.00000000E-01  8.50000000E-01  8.50000000E-01
  8.50000000E-01  8.00000000E-01  8.50000000E-01  8.50000000E-01  8.50000000E-01
  8.00000000E-01  8.50000000E-01  8.50000000E-01  8.50000000E-01  8.00000000E-01
  8.50000000E-01  8.50000000E-01  8.50000000E-01  8.00000000E-01  8.50000000E-01
  8.50000000E-01  8.50000000E-01  8.00000000E-01  8.50000000E-01  8.50000000E-01
  8.50000000E-01  8.00000000E-01  8.50000000E-01  8.50000000E-01  8.50000000E-01
  8.00000000E-01  8.50000000E-01  8.50000000E-01  8.50000000E-01  8.00000000E-01
  8.50000000E-01  8.50000000E-01  8.50000000E-01  8.00000000E-01  8.50000000E-01
  8.50000000E-01  8.50000000E-01  8.00000000E-01  8.50000000E-01  8.50000000E-01
  8.50000000E-01  8.00000000E-01  8.50000000E-01  8.50000000E-01  8.50000000E-01
  8.00000000E-01  8.50000000E-01  8.50000000E-01  8.50000000E-01  8.00000000E-01
  8.50000000E-01  8.50000000E-01  8.50000000E-01  8.00000000E-01  8.50000000E-01
  8.50000000E-01  8.50000000E-01  8.00000000E-01  8.50000000E-01  8.50000000E-01
  8.50000000E-01  8.00000000E-01  8.50000000E-01  8.50000000E-01  8.50000000E-01
  8.00000000E-01  8.50000000E-01  8.50000000E-01  8.50000000E-01  8.00000000E-01
  8.50000000E-01  8.50000000E-01  8.50000000E-01  8.00000000E-01  8.50000000E-01
  8.50000000E-01  8.50000000E-01  8.00000000E-01  8.50000000E-01  8.50000000E-01
  8.50000000E-01  8.00000000E-01  8.50000000E-01  8.50000000E-01  8.50000000E-01
  8.00000000E-01  8.50000000E-01  8.50000000E-01  8.50000000E-01  8.00000000E-01
  8.50000000E-01  8.50000000E-01  8.50000000E-01  8.00000000E-01  8.50000000E-01
  8.50000000E-01  8.50000000E-01  8.00000000E-01  8.50000000E-01  8.50000000E-01
  8.50000000E-01  8.00000000E-01  8.50000000E-01  8.50000000E-01  8.50000000E-01
  8.00000000E-01  8.50000000E-01  8.50000000E-01  8.50000000E-01  8.00000000E-01
  8.50000000E-01  8.50000000E-01  8.50000000E-01  8.00000000E-01  8.50000000E-01
  8.50000000E-01  8.50000000E-01  8.00000000E-01  8.50000000E-01  8.50000000E-01
  8.50000000E-01  8.00000000E-01  8.50000000E-01  8.50000000E-01  8.50000000E-01
  8.00000000E-01  8.50000000E-01  8.50000000E-01  8.50000000E-01  8.00000000E-01
  8.50000000E-01  8.50000000E-01  8.50000000E-01  8.00000000E-01  8.50000000E-01
  8.50000000E-01  8.50000000E-01  8.00000000E-01  8.50000000E-01  8.50000000E-01
  8.50000000E-01  8.00000000E-01  8.50000000E-01  8.50000000E-01  8.50000000E-01
  8.00000000E-01  8.50000000E-01  8.50000000E-01  8.50000000E-01  8.00000000E-01
  8.50000000E-01  8.50000000E-01  8.50000000E-01  8.00000000E-01  8.50000000E-01
  8.50000000E-01  8.50000000E-01  8.00000000E-01  8.50000000E-01  8.50000000E-01
  8.50000000E-01  8.00000000E-01  8.50000000E-01  8.50000000E-01  8.50000000E-01
  8.00000000E-01  8.50000000E-01  8.50000000E-01  8.50000000E-01  8.00000000E-01
  8.50000000E-01  8.50000000E-01  8.50000000E-01  8.00000000E-01  8.50000000E-01
  8.50000000E-01  8.50000000E-01  8.00000000E-01  8.50000000E-01  8.50000000E-01
  8.50000000E-01  8.00000000E-01  8.50000000E-01  8.50000000E-01  8.50000000E-01
  8.00000000E-01  8.50000000E-01  8.50000000E-01  8.50000000E-01  8.00000000E-01
  8.50000000E-01  8.50000000E-01  8.50000000E-01  8.00000000E-01  8.50000000E-01
  8.50000000E-01  8.50000000E-01  8.00000000E-01  8.50000000E-01  8.50000000E-01
  8.50000000E-01  8.00000000E-01  8.50000000E-01  8.50000000E-01  8.50000000E-01
  8.00000000E-01  8.50000000E-01  8.50000000E-01  8.50000000E-01  8.00000000E-01
  8.50000000E-01  8.50000000E-01  8.50000000E-01  8.00000000E-01  8.50000000E-01
  8.50000000E-01  8.50000000E-01  8.00000000E-01  8.50000000E-01  8.50000000E-01
  8.50000000E-01  8.00000000E-01  8.50000000E-01  8.50000000E-01  8.50000000E-01
  8.00000000E-01  8.50000000E-01  8.50000000E-01  8.50000000E-01  8.00000000E-01
  8.50000000E-01  8.50000000E-01  8.50000000E-01  8.00000000E-01  8.50000000E-01
  8.50000000E-01  8.50000000E-01  8.00000000E-01  8.50000000E-01  8.50000000E-01
  8.50000000E-01  8.00000000E-01  8.50000000E-01  8.50000000E-01  8.50000000E-01
  8.00000000E-01  8.50000000E-01  8.50000000E-01  8.50000000E-01  8.00000000E-01
  8.50000000E-01  8.50000000E-01  8.50000000E-01  8.00000000E-01  8.50000000E-01
  8.50000000E-01  8.50000000E-01  8.00000000E-01  8.50000000E-01  8.50000000E-01
  8.50000000E-01  8.00000000E-01  8.50000000E-01  8.50000000E-01  8.50000000E-01
  8.00000000E-01  8.50000000E-01  8.50000000E-01  8.50000000E-01  8.00000000E-01
  8.50000000E-01  8.50000000E-01  8.50000000E-01  8.00000000E-01  8.50000000E-01
  8.50000000E-01  8.50000000E-01  8.00000000E-01  8.50000000E-01  8.50000000E-01
  8.50000000E-01  8.00000000E-01  8.50000000E-01  8.50000000E-01  8.50000000E-01
  8.00000000E-01  8.50000000E-01  8.50000000E-01  8.50000000E-01  8.00000000E-01
  8.50000000E-01  8.50000000E-01  8.50000000E-01  8.00000000E-01  8.50000000E-01
  8.50000000E-01  8.50000000E-01  8.00000000E-01  8.50000000E-01  8.50000000E-01
  8.50000000E-01  8.00000000E-01  8.50000000E-01  8.50000000E-01  8.50000000E-01
  8.00000000E-01  8.50000000E-01  8.50000000E-01  8.50000000E-01  8.00000000E-01
  8.50000000E-01  8.50000000E-01  8.50000000E-01  8.00000000E-01  8.50000000E-01
  8.50000000E-01  8.50000000E-01  8.00000000E-01  8.50000000E-01  8.50000000E-01
  8.50000000E-01  8.00000000E-01  8.50000000E-01  8.50000000E-01  8.50000000E-01
  8.00000000E-01  8.50000000E-01  8.50000000E-01  8.50000000E-01  8.00000000E-01
  8.50000000E-01  8.50000000E-01  8.50000000E-01  8.00000000E-01  8.50000000E-01
  8.50000000E-01  8.50000000E-01  8.00000000E-01  8.50000000E-01  8.50000000E-01
  8.50000000E-01  8.00000000E-01  8.50000000E-01  8.50000000E-01  8.50000000E-01
  8.00000000E-01  8.50000000E-01  8.50000000E-01  8.50000000E-01  8.00000000E-01
  8.50000000E-01  8.50000000E-01  8.50000000E-01  8.00000000E-01  8.50000000E-01
  8.50000000E-01  8.50000000E-01  8.00000000E-01  8.50000000E-01  8.50000000E-01
  8.50000000E-01  8.00000000E-01  8.50000000E-01  8.50000000E-01  8.50000000E-01
  8.00000000E-01  8.50000000E-01  8.50000000E-01  8.50000000E-01  8.00000000E-01
  8.50000000E-01  8.50000000E-01  8.50000000E-01  8.00000000E-01  8.50000000E-01
  8.50000000E-01  8.50000000E-01  8.00000000E-01  8.50000000E-01  8.50000000E-01
  8.50000000E-01  8.00000000E-01  8.50000000E-01  8.50000000E-01  8.50000000E-01
  8.00000000E-01  8.50000000E-01  8.50000000E-01  8.50000000E-01  8.00000000E-01
  8.50000000E-01  8.50000000E-01  8.50000000E-01  8.00000000E-01  8.50000000E-01
  8.50000000E-01  8.50000000E-01  8.00000000E-01  8.50000000E-01  8.50000000E-01
  8.50000000E-01  8.00000000E-01  8.50000000E-01  8.50000000E-01  8.50000000E-01
  8.00000000E-01  8.50000000E-01  8.50000000E-01  8.50000000E-01  8.00000000E-01
  8.50000000E-01  8.50000000E-01  8.50000000E-01  8.00000000E-01  8.50000000E-01
  8.50000000E-01  8.50000000E-01  8.00000000E-01  8.50000000E-01  8.50000000E-01
  8.50000000E-01  8.00000000E-01  8.50000000E-01  8.50000000E-01  8.50000000E-01
  8.00000000E-01  8.50000000E-01  8.50000000E-01  8.50000000E-01  8.00000000E-01
  8.50000000E-01  8.50000000E-01  8.50000000E-01  8.00000000E-01  8.50000000E-01
  8.50000000E-01  8.50000000E-01  8.00000000E-01  8.50000000E-01  8.50000000E-01
  8.50000000E-01  8.00000000E-01  8.50000000E-01  8.50000000E-01  8.50000000E-01
  8.00000000E-01  8.50000000E-01  8.50000000E-01  8.50000000E-01  8.00000000E-01
  8.50000000E-01  8.50000000E-01  8.50000000E-01  8.00000000E-01  8.50000000E-01
  8.50000000E-01  8.50000000E-01  8.00000000E-01  8.50000000E-01  8.50000000E-01
  8.50000000E-01  8.00000000E-01  8.50000000E-01  8.50000000E-01  8.50000000E-01
  8.00000000E-01  8.50000000E-01  8.50000000E-01  8.50000000E-01  8.00000000E-01
  8.50000000E-01  8.50000000E-01  8.50000000E-01  8.00000000E-01  8.50000000E-01
  8.50000000E-01  8.50000000E-01  8.00000000E-01  8.50000000E-01  8.50000000E-01
  8.50000000E-01  8.00000000E-01  8.50000000E-01  8.50000000E-01  8.50000000E-01
  8.00000000E-01  8.50000000E-01  8.50000000E-01  8.50000000E-01  8.00000000E-01
  8.50000000E-01  8.50000000E-01  8.50000000E-01  8.00000000E-01  8.50000000E-01
  8.50000000E-01  8.50000000E-01  8.00000000E-01  8.50000000E-01  8.50000000E-01
  8.50000000E-01  8.00000000E-01  8.50000000E-01  8.50000000E-01  8.50000000E-01
  8.00000000E-01  8.50000000E-01  8.50000000E-01  8.50000000E-01  8.00000000E-01
  8.50000000E-01  8.50000000E-01  8.50000000E-01  8.00000000E-01  8.50000000E-01
  8.50000000E-01  8.50000000E-01  8.00000000E-01  8.50000000E-01  8.50000000E-01
  8.50000000E-01  8.00000000E-01  8.50000000E-01  8.50000000E-01  8.50000000E-01
  8.00000000E-01  8.50000000E-01  8.50000000E-01  8.50000000E-01  8.00000000E-01
  8.50000000E-01  8.50000000E-01  8.50000000E-01  8.00000000E-01  8.50000000E-01
  8.50000000E-01  8.50000000E-01  8.00000000E-01  8.50000000E-01  8.50000000E-01
  8.50000000E-01  8.00000000E-01  8.50000000E-01  8.50000000E-01  8.50000000E-01
  8.00000000E-01  8.50000000E-01  8.50000000E-01  8.50000000E-01  8.00000000E-01
  8.50000000E-01  8.50000000E-01  8.50000000E-01  8.00000000E-01  8.50000000E-01
  8.50000000E-01  8.50000000E-01  8.00000000E-01  8.50000000E-01  8.50000000E-01
  8.50000000E-01  8.00000000E-01  8.50000000E-01  8.50000000E-01  8.50000000E-01
  8.00000000E-01  8.50000000E-01  8.50000000E-01  8.50000000E-01  8.00000000E-01
  8.50000000E-01  8.50000000E-01  8.50000000E-01  8.00000000E-01  8.50000000E-01
  8.50000000E-01  8.50000000E-01  8.00000000E-01  8.50000000E-01  8.50000000E-01
  8.50000000E-01  8.00000000E-01  8.50000000E-01  8.50000000E-01  8.50000000E-01
  8.00000000E-01  8.50000000E-01  8.50000000E-01  8.50000000E-01  8.00000000E-01
  8.50000000E-01  8.50000000E-01  8.50000000E-01  8.00000000E-01  8.50000000E-01
  8.50000000E-01  8.50000000E-01  8.00000000E-01  8.50000000E-01  8.50000000E-01
  8.50000000E-01  8.00000000E-01  8.50000000E-01  8.50000000E-01  8.50000000E-01
  8.00000000E-01  8.50000000E-01  8.50000000E-01  8.50000000E-01  8.00000000E-01
  8.50000000E-01  8.50000000E-01  8.50000000E-01  8.00000000E-01  8.50000000E-01
  8.50000000E-01  8.50000000E-01  8.00000000E-01  8.50000000E-01  8.50000000E-01
  8.50000000E-01  8.00000000E-01  8.50000000E-01  8.50000000E-01  8.50000000E-01
  8.00000000E-01  8.50000000E-01  8.50000000E-01  8.50000000E-01  8.00000000E-01
  8.50000000E-01  8.50000000E-01  8.50000000E-01  8.00000000E-01  8.50000000E-01
  8.50000000E-01  8.50000000E-01  8.00000000E-01  8.50000000E-01  8.50000000E-01
  8.50000000E-01  8.00000000E-01  8.50000000E-01  8.50000000E-01  8.50000000E-01
  8.00000000E-01  8.50000000E-01  8.50000000E-01  8.50000000E-01  8.00000000E-01
  8.50000000E-01  8.50000000E-01  8.50000000E-01  8.00000000E-01  8.50000000E-01
  8.50000000E-01  8.50000000E-01  8.00000000E-01  8.50000000E-01  8.50000000E-01
  8.50000000E-01  8.00000000E-01  8.50000000E-01  8.50000000E-01  8.50000000E-01
  8.00000000E-01  8.50000000E-01  8.50000000E-01  8.50000000E-01  8.00000000E-01
  8.50000000E-01  8.50000000E-01  8.50000000E-01  8.00000000E-01  8.50000000E-01
  8.50000000E-01  8.50000000E-01  8.00000000E-01  8.50000000E-01  8.50000000E-01
  8.50000000E-01  8.00000000E-01  8.50000000E-01  8.50000000E-01  8.50000000E-01
  8.00000000E-01  8.50000000E-01  8.50000000E-01  8.50000000E-01  8.00000000E-01
  8.50000000E-01  8.50000000E-01  8.50000000E-01  8.00000000E-01  8.50000000E-01
  8.50000000E-01  8.50000000E-01  8.00000000E-01  8.50000000E-01  8.50000000E-01
  8.50000000E-01  8.00000000E-01  8.50000000E-01  8.50000000E-01  8.50000000E-01
  8.00000000E-01  8.50000000E-01  8.50000000E-01  8.50000000E-01  8.00000000E-01
  8.50000000E-01  8.50000000E-01  8.50000000E-01  8.00000000E-01  8.50000000E-01
  8.50000000E-01  8.50000000E-01  8.00000000E-01  8.50000000E-01  8.50000000E-01
  8.50000000E-01  8.00000000E-01  8.50000000E-01  8.50000000E-01  8.50000000E-01
  8.00000000E-01  8.50000000E-01  8.50000000E-01  8.50000000E-01  8.00000000E-01
  8.50000000E-01  8.50000000E-01  8.50000000E-01  8.00000000E-01  8.50000000E-01
  8.50000000E-01  8.50000000E-01  8.00000000E-01  8.50000000E-01  8.50000000E-01
  8.50000000E-01  8.00000000E-01  8.50000000E-01  8.50000000E-01  8.50000000E-01
  8.00000000E-01  8.50000000E-01  8.50000000E-01  8.50000000E-01  8.00000000E-01
  8.50000000E-01  8.50000000E-01  8.50000000E-01  8.00000000E-01  8.50000000E-01
  8.50000000E-01  8.50000000E-01  8.00000000E-01  8.50000000E-01  8.50000000E-01
  8.50000000E-01  8.00000000E-01  8.50000000E-01  8.50000000E-01  8.50000000E-01
  8.00000000E-01  8.50000000E-01  8.50000000E-01  8.50000000E-01  8.00000000E-01
  8.50000000E-01  8.50000000E-01  8.50000000E-01  8.00000000E-01  8.50000000E-01
  8.50000000E-01  8.50000000E-01  8.00000000E-01  8.50000000E-01  8.50000000E-01
  8.50000000E-01  8.00000000E-01  8.50000000E-01  8.50000000E-01  8.50000000E-01
  8.00000000E-01  8.50000000E-01  8.50000000E-01  8.50000000E-01  8.00000000E-01
  8.50000000E-01  8.50000000E-01  8.50000000E-01  8.00000000E-01  8.50000000E-01
  8.50000000E-01  8.50000000E-01  8.00000000E-01  8.50000000E-01  8.50000000E-01
  8.50000000E-01  8.00000000E-01  8.50000000E-01  8.50000000E-01  8.50000000E-01
  8.00000000E-01  8.50000000E-01  8.50000000E-01  8.50000000E-01  8.00000000E-01
  8.50000000E-01  8.50000000E-01  8.50000000E-01  8.00000000E-01  8.50000000E-01
  8.50000000E-01  8.50000000E-01  8.00000000E-01  8.50000000E-01  8.50000000E-01
  8.50000000E-01  8.00000000E-01  8.50000000E-01  8.50000000E-01  8.50000000E-01
  8.00000000E-01  8.50000000E-01  8.50000000E-01  8.50000000E-01  8.00000000E-01
  8.50000000E-01  8.50000000E-01  8.50000000E-01  8.00000000E-01  8.50000000E-01
  8.50000000E-01  8.50000000E-01  8.00000000E-01  8.50000000E-01  8.50000000E-01
  8.50000000E-01  8.00000000E-01  8.50000000E-01  8.50000000E-01  8.50000000E-01
  8.00000000E-01  8.50000000E-01  8.50000000E-01  8.50000000E-01  8.00000000E-01
  8.50000000E-01  8.50000000E-01  8.50000000E-01  8.00000000E-01  8.50000000E-01
  8.50000000E-01  8.50000000E-01  8.00000000E-01  8.50000000E-01  8.50000000E-01
  8.50000000E-01  8.00000000E-01  8.50000000E-01  8.50000000E-01  8.50000000E-01
  8.00000000E-01  8.50000000E-01  8.50000000E-01  8.50000000E-01  8.00000000E-01
  8.50000000E-01  8.50000000E-01  8.50000000E-01  8.00000000E-01  8.50000000E-01
  8.50000000E-01  8.50000000E-01  8.00000000E-01  8.50000000E-01  8.50000000E-01
  8.50000000E-01  8.00000000E-01  8.50000000E-01  8.50000000E-01  8.50000000E-01
  8.00000000E-01  8.50000000E-01  8.50000000E-01  8.50000000E-01  8.00000000E-01
  8.50000000E-01  8.50000000E-01  8.50000000E-01  8.00000000E-01  8.50000000E-01
  8.50000000E-01  8.50000000E-01  8.00000000E-01  8.50000000E-01  8.50000000E-01
  8.50000000E-01  8.00000000E-01  8.50000000E-01  8.50000000E-01  8.50000000E-01
  8.00000000E-01  8.50000000E-01  8.50000000E-01  8.50000000E-01  8.00000000E-01
  8.50000000E-01  8.50000000E-01  8.50000000E-01  8.00000000E-01  8.50000000E-01
  8.50000000E-01  8.50000000E-01  8.00000000E-01  8.50000000E-01  8.50000000E-01
  8.50000000E-01  8.00000000E-01  8.50000000E-01  8.50000000E-01  8.50000000E-01
  8.00000000E-01  8.50000000E-01  8.50000000E-01  8.50000000E-01  8.00000000E-01
  8.50000000E-01  8.50000000E-01  8.50000000E-01  8.00000000E-01  8.50000000E-01
  8.50000000E-01  8.50000000E-01  8.00000000E-01  8.50000000E-01  8.50000000E-01
  8.50000000E-01  8.00000000E-01  8.50000000E-01  8.50000000E-01  8.50000000E-01
  8.00000000E-01  8.50000000E-01  8.50000000E-01  8.50000000E-01  8.00000000E-01
  8.50000000E-01  8.50000000E-01  8.50000000E-01  8.00000000E-01  8.50000000E-01
  8.50000000E-01  8.50000000E-01  8.00000000E-01  8.50000000E-01  8.50000000E-01
  8.50000000E-01  8.00000000E-01  8.50000000E-01  8.50000000E-01  8.50000000E-01
  8.00000000E-01  8.50000000E-01  8.50000000E-01  8.50000000E-01  8.00000000E-01
  8.50000000E-01  8.50000000E-01  8.50000000E-01  8.00000000E-01  8.50000000E-01
  8.50000000E-01  8.50000000E-01  8.00000000E-01  8.50000000E-01  8.50000000E-01
  8.50000000E-01  8.00000000E-01  8.50000000E-01  8.50000000E-01  8.50000000E-01
  8.00000000E-01  8.50000000E-01  8.50000000E-01  8.50000000E-01  8.00000000E-01
  8.50000000E-01  8.50000000E-01  8.50000000E-01  8.00000000E-01  8.50000000E-01
  8.50000000E-01  8.50000000E-01  8.00000000E-01  8.50000000E-01  8.50000000E-01
  8.50000000E-01  8.00000000E-01  8.50000000E-01  8.50000000E-01  8.50000000E-01
  8.00000000E-01  8.50000000E-01  8.50000000E-01  8.50000000E-01  8.00000000E-01
  8.50000000E-01  8.50000000E-01  8.50000000E-01  8.00000000E-01  8.50000000E-01
  8.50000000E-01  8.50000000E-01  8.00000000E-01  8.50000000E-01  8.50000000E-01
  8.50000000E-01  8.00000000E-01  8.50000000E-01  8.50000000E-01  8.50000000E-01
  8.00000000E-01  8.50000000E-01  8.50000000E-01  8.50000000E-01  8.00000000E-01
  8.50000000E-01  8.50000000E-01  8.50000000E-01  8.00000000E-01  8.50000000E-01
  8.50000000E-01  8.50000000E-01  8.00000000E-01  8.50000000E-01  8.50000000E-01
  8.50000000E-01  8.00000000E-01  8.50000000E-01  8.50000000E-01  8.50000000E-01
  8.00000000E-01  8.50000000E-01  8.50000000E-01  8.50000000E-01  8.00000000E-01
  8.50000000E-01  8.50000000E-01  8.50000000E-01  8.00000000E-01  8.50000000E-01
  8.50000000E-01  8.50000000E-01  8.00000000E-01  8.50000000E-01  8.50000000E-01
  8.50000000E-01  8.00000000E-01  8.50000000E-01  8.50000000E-01  8.50000000E-01
  8.00000000E-01  8.50000000E-01  8.50000000E-01  8.50000000E-01  8.00000000E-01
  8.50000000E-01  8.50000000E-01  8.50000000E-01  8.00000000E-01  8.50000000E-01
  8.50000000E-01  8.50000000E-01  8.00000000E-01  8.50000000E-01  8.50000000E-01
  8.50000000E-01  8.00000000E-01  8.50000000E-01  8.50000000E-01  8.50000000E-01
  8.00000000E-01  8.50000000E-01  8.50000000E-01  8.50000000E-01  8.00000000E-01
  8.50000000E-01  8.50000000E-01  8.50000000E-01  8.00000000E-01  8.50000000E-01
  8.50000000E-01  8.50000000E-01  8.00000000E-01  8.50000000E-01  8.50000000E-01
  8.50000000E-01  8.00000000E-01  8.50000000E-01  8.50000000E-01  8.50000000E-01
  8.00000000E-01  8.50000000E-01  8.50000000E-01  8.50000000E-01  8.00000000E-01
  8.50000000E-01  8.50000000E-01  8.50000000E-01  8.00000000E-01  8.50000000E-01
  8.50000000E-01  8.50000000E-01  8.00000000E-01  8.50000000E-01  8.50000000E-01
  8.50000000E-01  8.00000000E-01  8.50000000E-01  8.50000000E-01  8.50000000E-01
  8.00000000E-01  8.50000000E-01  8.50000000E-01  8.50000000E-01  8.00000000E-01
  8.50000000E-01  8.50000000E-01  8.50000000E-01  8.00000000E-01  8.50000000E-01
  8.50000000E-01  8.50000000E-01  8.00000000E-01  8.50000000E-01  8.50000000E-01
  8.50000000E-01  8.00000000E-01  8.50000000E-01  8.50000000E-01  8.50000000E-01
  8.00000000E-01  8.50000000E-01  8.50000000E-01  8.50000000E-01  8.00000000E-01
  8.50000000E-01  8.50000000E-01  8.50000000E-01  8.00000000E-01  8.50000000E-01
  8.50000000E-01  8.50000000E-01  8.00000000E-01  8.50000000E-01  8.50000000E-01
  8.50000000E-01  8.00000000E-01  8.50000000E-01  8.50000000E-01  8.50000000E-01
  8.00000000E-01  8.50000000E-01  8.50000000E-01  8.50000000E-01  8.00000000E-01
  8.50000000E-01  8.50000000E-01  8.50000000E-01  8.00000000E-01  8.50000000E-01
  8.50000000E-01  8.50000000E-01  8.00000000E-01  8.50000000E-01  8.50000000E-01
  8.50000000E-01  8.00000000E-01  8.50000000E-01  8.50000000E-01  8.50000000E-01
  8.00000000E-01  8.50000000E-01  8.50000000E-01  8.50000000E-01  8.00000000E-01
  8.50000000E-01  8.50000000E-01  8.50000000E-01  8.00000000E-01  8.50000000E-01
  8.50000000E-01  8.50000000E-01  8.00000000E-01  8.50000000E-01  8.50000000E-01
  8.50000000E-01  8.00000000E-01  8.50000000E-01  8.50000000E-01  8.50000000E-01
  8.00000000E-01  8.50000000E-01  8.50000000E-01  8.50000000E-01  8.00000000E-01
  8.50000000E-01  8.50000000E-01  8.50000000E-01  8.00000000E-01  8.50000000E-01
  8.50000000E-01  8.50000000E-01  8.00000000E-01  8.50000000E-01  8.50000000E-01
  8.50000000E-01  8.00000000E-01  8.50000000E-01  8.50000000E-01  8.50000000E-01
  8.00000000E-01  8.50000000E-01  8.50000000E-01  8.50000000E-01  8.00000000E-01
  8.50000000E-01  8.50000000E-01  8.50000000E-01  8.00000000E-01  8.50000000E-01
  8.50000000E-01  8.50000000E-01  8.00000000E-01  8.50000000E-01  8.50000000E-01
  8.50000000E-01  8.00000000E-01  8.50000000E-01  8.50000000E-01  8.50000000E-01
  8.00000000E-01  8.50000000E-01  8.50000000E-01  8.50000000E-01  8.00000000E-01
  8.50000000E-01  8.50000000E-01  8.50000000E-01  8.00000000E-01  8.50000000E-01
  8.50000000E-01  8.50000000E-01  8.00000000E-01  8.50000000E-01  8.50000000E-01
  8.50000000E-01  8.00000000E-01  8.50000000E-01  8.50000000E-01  8.50000000E-01
  8.00000000E-01  8.50000000E-01  8.50000000E-01  8.50000000E-01  8.00000000E-01
  8.50000000E-01  8.50000000E-01  8.50000000E-01  8.00000000E-01  8.50000000E-01
  8.50000000E-01  8.50000000E-01  8.00000000E-01  8.50000000E-01  8.50000000E-01
  8.50000000E-01  8.00000000E-01  8.50000000E-01  8.50000000E-01  8.50000000E-01
  8.00000000E-01  8.50000000E-01  8.50000000E-01  8.50000000E-01  8.00000000E-01
  8.50000000E-01  8.50000000E-01  8.50000000E-01  8.00000000E-01  8.50000000E-01
  8.50000000E-01  8.50000000E-01  8.00000000E-01  8.50000000E-01  8.50000000E-01
  8.50000000E-01  8.00000000E-01  8.50000000E-01  8.50000000E-01  8.50000000E-01
  8.00000000E-01  8.50000000E-01  8.50000000E-01  8.50000000E-01  8.00000000E-01
  8.50000000E-01  8.50000000E-01  8.50000000E-01  8.00000000E-01  8.50000000E-01
  8.50000000E-01  8.50000000E-01  8.00000000E-01  8.50000000E-01  8.50000000E-01
  8.50000000E-01  8.00000000E-01  8.50000000E-01  8.50000000E-01  8.50000000E-01
  8.00000000E-01  8.50000000E-01  8.50000000E-01  8.50000000E-01  8.00000000E-01
  8.50000000E-01  8.50000000E-01  8.50000000E-01  8.00000000E-01  8.50000000E-01
  8.50000000E-01  8.50000000E-01  8.00000000E-01  8.50000000E-01  8.50000000E-01
  8.50000000E-01  8.00000000E-01  8.50000000E-01  8.50000000E-01  8.50000000E-01
  8.00000000E-01  8.50000000E-01  8.50000000E-01  8.50000000E-01  8.00000000E-01
  8.50000000E-01  8.50000000E-01  8.50000000E-01  8.00000000E-01  8.50000000E-01
  8.50000000E-01  8.50000000E-01  8.00000000E-01  8.50000000E-01  8.50000000E-01
  8.50000000E-01  8.00000000E-01  8.50000000E-01  8.50000000E-01  8.50000000E-01
  8.00000000E-01  8.50000000E-01  8.50000000E-01  8.50000000E-01  8.00000000E-01
  8.50000000E-01  8.50000000E-01  8.50000000E-01  8.00000000E-01  8.50000000E-01
  8.50000000E-01  8.50000000E-01  8.00000000E-01  8.50000000E-01  8.50000000E-01
  8.50000000E-01  8.00000000E-01  8.50000000E-01  8.50000000E-01  8.50000000E-01
  8.00000000E-01  8.50000000E-01  8.50000000E-01  8.50000000E-01  8.00000000E-01
  8.50000000E-01  8.50000000E-01  8.50000000E-01  8.00000000E-01  8.50000000E-01
  8.50000000E-01  8.50000000E-01  8.00000000E-01  8.50000000E-01  8.50000000E-01
  8.50000000E-01  8.00000000E-01  8.50000000E-01  8.50000000E-01  8.50000000E-01
  8.00000000E-01  8.50000000E-01  8.50000000E-01  8.50000000E-01  8.00000000E-01
  8.50000000E-01  8.50000000E-01  8.50000000E-01  8.00000000E-01  8.50000000E-01
  8.50000000E-01  8.50000000E-01  8.00000000E-01  8.50000000E-01  8.50000000E-01
  8.50000000E-01  8.00000000E-01  8.50000000E-01  8.50000000E-01  8.50000000E-01
  8.00000000E-01  8.50000000E-01  8.50000000E-01  8.50000000E-01  8.00000000E-01
  8.50000000E-01  8.50000000E-01  8.50000000E-01  8.00000000E-01  8.50000000E-01
  8.50000000E-01  8.50000000E-01  8.00000000E-01  8.50000000E-01  8.50000000E-01
  8.50000000E-01  8.00000000E-01  8.50000000E-01  8.50000000E-01  8.50000000E-01
  8.00000000E-01  8.50000000E-01  8.50000000E-01  8.50000000E-01  8.00000000E-01
  8.50000000E-01  8.50000000E-01  8.50000000E-01  8.00000000E-01  8.50000000E-01
  8.50000000E-01  8.50000000E-01  8.00000000E-01  8.50000000E-01  8.50000000E-01
  8.50000000E-01  8.00000000E-01  8.50000000E-01  8.50000000E-01  8.50000000E-01
  8.00000000E-01  8.50000000E-01  8.50000000E-01  8.50000000E-01  8.00000000E-01
  8.50000000E-01  8.50000000E-01  8.50000000E-01  8.00000000E-01  8.50000000E-01
  8.50000000E-01  8.50000000E-01  8.00000000E-01  8.50000000E-01  8.50000000E-01
  8.50000000E-01  8.00000000E-01  8.50000000E-01  8.50000000E-01  8.50000000E-01
  8.00000000E-01  8.50000000E-01  8.50000000E-01  8.50000000E-01  8.00000000E-01
  8.50000000E-01  8.50000000E-01  8.50000000E-01  8.00000000E-01  8.50000000E-01
  8.50000000E-01  8.50000000E-01  8.00000000E-01  8.50000000E-01  8.50000000E-01
  8.50000000E-01  8.00000000E-01  8.50000000E-01  8.50000000E-01  8.50000000E-01
  8.00000000E-01  8.50000000E-01  8.50000000E-01  8.50000000E-01  8.00000000E-01
  8.50000000E-01  8.50000000E-01  8.50000000E-01  8.00000000E-01  8.50000000E-01
  8.50000000E-01  8.50000000E-01  8.00000000E-01  8.50000000E-01  8.50000000E-01
  8.50000000E-01  8.00000000E-01  8.50000000E-01  8.50000000E-01  8.50000000E-01
  8.00000000E-01  8.50000000E-01  8.50000000E-01  8.50000000E-01  8.00000000E-01
  8.50000000E-01  8.50000000E-01  8.50000000E-01  8.00000000E-01  8.50000000E-01
  8.50000000E-01  8.50000000E-01  8.00000000E-01  8.50000000E-01  8.50000000E-01
  8.50000000E-01  8.00000000E-01  8.50000000E-01  8.50000000E-01  8.50000000E-01
  8.00000000E-01  8.50000000E-01  8.50000000E-01  8.50000000E-01  8.00000000E-01
  8.50000000E-01  8.50000000E-01  8.50000000E-01  8.00000000E-01  8.50000000E-01
  8.50000000E-01  8.50000000E-01  8.00000000E-01  8.50000000E-01  8.50000000E-01
  8.50000000E-01  8.00000000E-01  8.50000000E-01  8.50000000E-01  8.50000000E-01
  8.00000000E-01  8.50000000E-01  8.50000000E-01  8.50000000E-01  8.00000000E-01
  8.50000000E-01  8.50000000E-01  8.50000000E-01  8.00000000E-01  8.50000000E-01
  8.50000000E-01  8.50000000E-01  8.00000000E-01  8.50000000E-01  8.50000000E-01
  8.50000000E-01  8.00000000E-01  8.50000000E-01  8.50000000E-01  8.50000000E-01
  8.00000000E-01  8.50000000E-01  8.50000000E-01  8.50000000E-01  8.00000000E-01
  8.50000000E-01  8.50000000E-01  8.50000000E-01  8.00000000E-01  8.50000000E-01
  8.50000000E-01  8.50000000E-01  8.00000000E-01  8.50000000E-01  8.50000000E-01
  8.50000000E-01  8.00000000E-01  8.50000000E-01  8.50000000E-01  8.50000000E-01
  8.00000000E-01  8.50000000E-01  8.50000000E-01  8.50000000E-01  8.00000000E-01
  8.50000000E-01  8.50000000E-01  8.50000000E-01  8.00000000E-01  8.50000000E-01
  8.50000000E-01  8.50000000E-01  8.00000000E-01  8.50000000E-01  8.50000000E-01
  8.50000000E-01  8.00000000E-01  8.50000000E-01  8.50000000E-01  8.50000000E-01
  8.00000000E-01  8.50000000E-01  8.50000000E-01  8.50000000E-01  8.00000000E-01
  8.50000000E-01  8.50000000E-01  8.50000000E-01  8.00000000E-01  8.50000000E-01
  8.50000000E-01  8.50000000E-01  8.00000000E-01  8.50000000E-01  8.50000000E-01
  8.50000000E-01  8.00000000E-01  8.50000000E-01  8.50000000E-01  8.50000000E-01
  8.00000000E-01  8.50000000E-01  8.50000000E-01  8.50000000E-01  8.00000000E-01
  8.50000000E-01  8.50000000E-01  8.50000000E-01  8.00000000E-01  8.50000000E-01
  8.50000000E-01  8.50000000E-01  8.00000000E-01  8.50000000E-01  8.50000000E-01
  8.50000000E-01  8.00000000E-01  8.50000000E-01  8.50000000E-01  8.50000000E-01
  8.00000000E-01  8.50000000E-01  8.50000000E-01  8.50000000E-01  8.00000000E-01
  8.50000000E-01  8.50000000E-01  8.50000000E-01  8.00000000E-01  8.50000000E-01
  8.50000000E-01  8.50000000E-01  8.00000000E-01  8.50000000E-01  8.50000000E-01
  8.50000000E-01  8.00000000E-01  8.50000000E-01  8.50000000E-01  8.50000000E-01
  8.00000000E-01  8.50000000E-01  8.50000000E-01  8.50000000E-01  8.00000000E-01
  8.50000000E-01  8.50000000E-01  8.50000000E-01  8.00000000E-01  8.50000000E-01
  8.50000000E-01  8.50000000E-01  8.00000000E-01  8.50000000E-01  8.50000000E-01
  8.50000000E-01  8.00000000E-01  8.50000000E-01  8.50000000E-01  8.50000000E-01
  8.00000000E-01  8.50000000E-01  8.50000000E-01  8.50000000E-01  8.00000000E-01
  8.50000000E-01  8.50000000E-01  8.50000000E-01  8.00000000E-01  8.50000000E-01
  8.50000000E-01  8.50000000E-01  8.00000000E-01  8.50000000E-01  8.50000000E-01
  8.50000000E-01  8.00000000E-01  8.50000000E-01  8.50000000E-01  8.50000000E-01
  8.00000000E-01  8.50000000E-01  8.50000000E-01  8.50000000E-01  8.00000000E-01
  8.50000000E-01  8.50000000E-01  8.50000000E-01  8.00000000E-01  8.50000000E-01
  8.50000000E-01  8.50000000E-01  8.00000000E-01  8.50000000E-01  8.50000000E-01
  8.50000000E-01  8.00000000E-01  8.50000000E-01  8.50000000E-01  8.50000000E-01
  8.00000000E-01  8.50000000E-01  8.50000000E-01  8.50000000E-01  8.00000000E-01
  8.50000000E-01  8.50000000E-01  8.50000000E-01  8.00000000E-01  8.50000000E-01
  8.50000000E-01  8.50000000E-01  8.00000000E-01  8.50000000E-01  8.50000000E-01
  8.50000000E-01  8.00000000E-01  8.50000000E-01  8.50000000E-01  8.50000000E-01
  8.00000000E-01  8.50000000E-01  8.50000000E-01  8.50000000E-01  8.00000000E-01
  8.50000000E-01  8.50000000E-01  8.50000000E-01  8.00000000E-01  8.50000000E-01
  8.50000000E-01  8.50000000E-01  8.00000000E-01  8.50000000E-01  8.50000000E-01
  8.50000000E-01  8.00000000E-01  8.50000000E-01  8.50000000E-01  8.50000000E-01
  8.00000000E-01  8.50000000E-01  8.50000000E-01  8.50000000E-01  8.00000000E-01
  8.50000000E-01  8.50000000E-01  8.50000000E-01  8.00000000E-01  8.50000000E-01
  8.50000000E-01  8.50000000E-01  8.00000000E-01  8.50000000E-01  8.50000000E-01
  8.50000000E-01  8.00000000E-01  8.50000000E-01  8.50000000E-01  8.50000000E-01
  8.00000000E-01  8.50000000E-01  8.50000000E-01  8.50000000E-01  8.00000000E-01
  8.50000000E-01  8.50000000E-01  8.50000000E-01  8.00000000E-01  8.50000000E-01
  8.50000000E-01  8.50000000E-01  8.00000000E-01  8.50000000E-01  8.50000000E-01
  8.50000000E-01  8.00000000E-01  8.50000000E-01  8.50000000E-01  8.50000000E-01
  8.00000000E-01  8.50000000E-01  8.50000000E-01  8.50000000E-01  8.00000000E-01
  8.50000000E-01  8.50000000E-01  8.50000000E-01  8.00000000E-01  8.50000000E-01
  8.50000000E-01  8.50000000E-01  8.00000000E-01  8.50000000E-01  8.50000000E-01
  8.50000000E-01  8.00000000E-01  8.50000000E-01  8.50000000E-01  8.50000000E-01
  8.00000000E-01  8.50000000E-01  8.50000000E-01  8.50000000E-01  8.00000000E-01
  8.50000000E-01  8.50000000E-01  8.50000000E-01  8.00000000E-01  8.50000000E-01
  8.50000000E-01  8.50000000E-01  8.00000000E-01  8.50000000E-01  8.50000000E-01
  8.50000000E-01  8.00000000E-01  8.50000000E-01  8.50000000E-01  8.50000000E-01
  8.00000000E-01  8.50000000E-01  8.50000000E-01  8.50000000E-01  8.00000000E-01
  8.50000000E-01  8.50000000E-01  8.50000000E-01  8.00000000E-01  8.50000000E-01
  8.50000000E-01  8.50000000E-01  8.00000000E-01  8.50000000E-01  8.50000000E-01
  8.50000000E-01  8.00000000E-01  8.50000000E-01  8.50000000E-01  8.50000000E-01
  8.00000000E-01  8.50000000E-01  8.50000000E-01  8.50000000E-01  8.00000000E-01
  8.50000000E-01  8.50000000E-01  8.50000000E-01  8.00000000E-01  8.50000000E-01
  8.50000000E-01  8.50000000E-01  8.00000000E-01  8.50000000E-01  8.50000000E-01
  8.50000000E-01  8.00000000E-01  8.50000000E-01  8.50000000E-01  8.50000000E-01
  8.00000000E-01  8.50000000E-01  8.50000000E-01  8.50000000E-01  8.00000000E-01
  8.50000000E-01  8.50000000E-01  8.50000000E-01  8.00000000E-01  8.50000000E-01
  8.50000000E-01  8.50000000E-01  8.00000000E-01  8.50000000E-01  8.50000000E-01
  8.50000000E-01  8.00000000E-01  8.50000000E-01  8.50000000E-01  8.50000000E-01
  8.00000000E-01  8.50000000E-01  8.50000000E-01  8.50000000E-01  8.00000000E-01
  8.50000000E-01  8.50000000E-01  8.50000000E-01  8.00000000E-01  8.50000000E-01
  8.50000000E-01  8.50000000E-01  8.00000000E-01  8.50000000E-01  8.50000000E-01
  8.50000000E-01  8.00000000E-01  8.50000000E-01  8.50000000E-01  8.50000000E-01
  8.00000000E-01  8.50000000E-01  8.50000000E-01  8.50000000E-01  8.00000000E-01
  8.50000000E-01  8.50000000E-01  8.50000000E-01  8.00000000E-01  8.50000000E-01
  8.50000000E-01  8.50000000E-01  8.00000000E-01  8.50000000E-01  8.50000000E-01
  8.50000000E-01  8.00000000E-01  8.50000000E-01  8.50000000E-01  8.50000000E-01
  8.00000000E-01  8.50000000E-01  8.50000000E-01  8.50000000E-01  8.00000000E-01
  8.50000000E-01  8.50000000E-01  8.50000000E-01  8.00000000E-01  8.50000000E-01
  8.50000000E-01  8.50000000E-01  8.00000000E-01  8.50000000E-01  8.50000000E-01
  8.50000000E-01  8.00000000E-01  8.50000000E-01  8.50000000E-01  8.50000000E-01
  8.00000000E-01  8.50000000E-01  8.50000000E-01  8.50000000E-01  8.00000000E-01
  8.50000000E-01  8.50000000E-01  8.50000000E-01  8.00000000E-01  8.50000000E-01
  8.50000000E-01  8.50000000E-01  8.00000000E-01  8.50000000E-01  8.50000000E-01
  8.50000000E-01  8.00000000E-01  8.50000000E-01  8.50000000E-01  8.50000000E-01
  8.00000000E-01  8.50000000E-01  8.50000000E-01  8.50000000E-01  8.00000000E-01
  8.50000000E-01  8.50000000E-01  8.50000000E-01  8.00000000E-01  8.50000000E-01
  8.50000000E-01  8.50000000E-01  8.00000000E-01  8.50000000E-01  8.50000000E-01
  8.50000000E-01  8.00000000E-01  8.50000000E-01  8.50000000E-01  8.50000000E-01
  8.00000000E-01  8.50000000E-01  8.50000000E-01  8.50000000E-01  8.00000000E-01
  8.50000000E-01  8.50000000E-01  8.50000000E-01  8.00000000E-01  8.50000000E-01
  8.50000000E-01  8.50000000E-01  8.00000000E-01  8.50000000E-01  8.50000000E-01
  8.50000000E-01  8.00000000E-01  8.50000000E-01  8.50000000E-01  8.50000000E-01
  8.00000000E-01  8.50000000E-01  8.50000000E-01  8.50000000E-01  8.00000000E-01
  8.50000000E-01  8.50000000E-01  8.50000000E-01  8.00000000E-01  8.50000000E-01
  8.50000000E-01  8.50000000E-01  8.00000000E-01  8.50000000E-01  8.50000000E-01
  8.50000000E-01  8.00000000E-01  8.50000000E-01  8.50000000E-01  8.50000000E-01
  8.00000000E-01  8.50000000E-01  8.50000000E-01  8.50000000E-01  8.00000000E-01
  8.50000000E-01  8.50000000E-01  8.50000000E-01  8.00000000E-01  8.50000000E-01
  8.50000000E-01  8.50000000E-01  8.00000000E-01  8.50000000E-01  8.50000000E-01
  8.50000000E-01  8.00000000E-01  8.50000000E-01  8.50000000E-01  8.50000000E-01
  8.00000000E-01  8.50000000E-01  8.50000000E-01  8.50000000E-01  8.00000000E-01
  8.50000000E-01  8.50000000E-01  8.50000000E-01  8.00000000E-01  8.50000000E-01
  8.50000000E-01  8.50000000E-01  8.00000000E-01  8.50000000E-01  8.50000000E-01
  8.50000000E-01  8.00000000E-01  8.50000000E-01  8.50000000E-01  8.50000000E-01
  8.00000000E-01  8.50000000E-01  8.50000000E-01  8.50000000E-01  8.00000000E-01
  8.50000000E-01  8.50000000E-01  8.50000000E-01  8.00000000E-01  8.50000000E-01
  8.50000000E-01  8.50000000E-01  8.00000000E-01  8.50000000E-01  8.50000000E-01
  8.50000000E-01  8.00000000E-01  8.50000000E-01  8.50000000E-01  8.50000000E-01
  8.00000000E-01  8.50000000E-01  8.50000000E-01  8.50000000E-01  8.00000000E-01
  8.50000000E-01  8.50000000E-01  8.50000000E-01  8.00000000E-01  8.50000000E-01
  8.50000000E-01  8.50000000E-01  8.00000000E-01  8.50000000E-01  8.50000000E-01
  8.50000000E-01  8.00000000E-01  8.50000000E-01  8.50000000E-01  8.50000000E-01
  8.00000000E-01  8.50000000E-01  8.50000000E-01  8.50000000E-01  8.00000000E-01
  8.50000000E-01  8.50000000E-01  8.50000000E-01  8.00000000E-01  8.50000000E-01
  8.50000000E-01  8.50000000E-01  8.00000000E-01  8.50000000E-01  8.50000000E-01
  8.50000000E-01  8.00000000E-01  8.50000000E-01  8.50000000E-01  8.50000000E-01
  8.00000000E-01  8.50000000E-01  8.50000000E-01  8.50000000E-01  8.00000000E-01
  8.50000000E-01  8.50000000E-01  8.50000000E-01  8.00000000E-01  8.50000000E-01
  8.50000000E-01  8.50000000E-01  8.00000000E-01  8.50000000E-01  8.50000000E-01
  8.50000000E-01  8.00000000E-01  8.50000000E-01  8.50000000E-01  8.50000000E-01
  8.00000000E-01  8.50000000E-01  8.50000000E-01  8.50000000E-01  8.00000000E-01
  8.50000000E-01  8.50000000E-01  8.50000000E-01  8.00000000E-01  8.50000000E-01
  8.50000000E-01  8.50000000E-01  8.00000000E-01  8.50000000E-01  8.50000000E-01
  8.50000000E-01  8.00000000E-01  8.50000000E-01  8.50000000E-01  8.50000000E-01
  8.00000000E-01  8.50000000E-01  8.50000000E-01  8.50000000E-01  8.00000000E-01
  8.50000000E-01  8.50000000E-01  8.50000000E-01  8.00000000E-01  8.50000000E-01
  8.50000000E-01  8.50000000E-01  8.00000000E-01  8.50000000E-01  8.50000000E-01
  8.50000000E-01  8.00000000E-01  8.50000000E-01  8.50000000E-01  8.50000000E-01
  8.00000000E-01  8.50000000E-01  8.50000000E-01  8.50000000E-01  8.00000000E-01
  8.50000000E-01  8.50000000E-01  8.50000000E-01  8.00000000E-01  8.50000000E-01
  8.50000000E-01  8.50000000E-01  8.00000000E-01  8.50000000E-01  8.50000000E-01
  8.50000000E-01  8.00000000E-01  8.50000000E-01  8.50000000E-01  8.50000000E-01
  8.00000000E-01  8.50000000E-01  8.50000000E-01  8.50000000E-01  8.00000000E-01
  8.50000000E-01  8.50000000E-01  8.50000000E-01  8.00000000E-01  8.50000000E-01
  8.50000000E-01  8.50000000E-01  8.00000000E-01  8.50000000E-01  8.50000000E-01
  8.50000000E-01  8.00000000E-01  8.50000000E-01  8.50000000E-01  8.50000000E-01
  8.00000000E-01  8.50000000E-01  8.50000000E-01  8.50000000E-01  8.00000000E-01
  8.50000000E-01  8.50000000E-01  8.50000000E-01  8.00000000E-01  8.50000000E-01
  8.50000000E-01  8.50000000E-01  8.00000000E-01  8.50000000E-01  8.50000000E-01
  8.50000000E-01  8.00000000E-01  8.50000000E-01  8.50000000E-01  8.50000000E-01
  8.00000000E-01  8.50000000E-01  8.50000000E-01  8.50000000E-01  8.00000000E-01
  8.50000000E-01  8.50000000E-01  8.50000000E-01  8.00000000E-01  8.50000000E-01
  8.50000000E-01  8.50000000E-01  8.00000000E-01  8.50000000E-01  8.50000000E-01
  8.50000000E-01  8.00000000E-01  8.50000000E-01  8.50000000E-01  8.50000000E-01
  8.00000000E-01  8.50000000E-01  8.50000000E-01  8.50000000E-01  8.00000000E-01
  8.50000000E-01  8.50000000E-01  8.50000000E-01  8.00000000E-01  8.50000000E-01
  8.50000000E-01  8.50000000E-01  8.00000000E-01  8.50000000E-01  8.50000000E-01
  8.50000000E-01  8.00000000E-01  8.50000000E-01  8.50000000E-01  8.50000000E-01
  8.00000000E-01  8.50000000E-01  8.50000000E-01  8.50000000E-01  8.00000000E-01
  8.50000000E-01  8.50000000E-01  8.50000000E-01  8.00000000E-01  8.50000000E-01
  8.50000000E-01  8.50000000E-01  8.00000000E-01  8.50000000E-01  8.50000000E-01
  8.50000000E-01  8.00000000E-01  8.50000000E-01  8.50000000E-01  8.50000000E-01
  8.00000000E-01  8.50000000E-01  8.50000000E-01  8.50000000E-01  8.00000000E-01
  8.50000000E-01  8.50000000E-01  8.50000000E-01  8.00000000E-01  8.50000000E-01
  8.50000000E-01  8.50000000E-01  8.00000000E-01  8.50000000E-01  8.50000000E-01
  8.50000000E-01  8.00000000E-01  8.50000000E-01  8.50000000E-01  8.50000000E-01
  8.00000000E-01  8.50000000E-01  8.50000000E-01  8.50000000E-01  8.00000000E-01
  8.50000000E-01  8.50000000E-01  8.50000000E-01  8.00000000E-01  8.50000000E-01
  8.50000000E-01  8.50000000E-01  8.00000000E-01  8.50000000E-01  8.50000000E-01
  8.50000000E-01  8.00000000E-01  8.50000000E-01  8.50000000E-01  8.50000000E-01
  8.00000000E-01  8.50000000E-01  8.50000000E-01  8.50000000E-01  8.00000000E-01
  8.50000000E-01  8.50000000E-01  8.50000000E-01  8.00000000E-01  8.50000000E-01
  8.50000000E-01  8.50000000E-01  8.00000000E-01  8.50000000E-01  8.50000000E-01
  8.50000000E-01  8.00000000E-01  8.50000000E-01  8.50000000E-01  8.50000000E-01
  8.00000000E-01  8.50000000E-01  8.50000000E-01  8.50000000E-01  8.00000000E-01
  8.50000000E-01  8.50000000E-01  8.50000000E-01  8.00000000E-01  8.50000000E-01
  8.50000000E-01  8.50000000E-01  8.00000000E-01  8.50000000E-01  8.50000000E-01
  8.50000000E-01  8.00000000E-01  8.50000000E-01  8.50000000E-01  8.50000000E-01
  8.00000000E-01  8.50000000E-01  8.50000000E-01  8.50000000E-01  8.00000000E-01
  8.50000000E-01  8.50000000E-01  8.50000000E-01  8.00000000E-01  8.50000000E-01
  8.50000000E-01  8.50000000E-01  8.00000000E-01  8.50000000E-01  8.50000000E-01
  8.50000000E-01  8.00000000E-01  8.50000000E-01  8.50000000E-01  8.50000000E-01
  8.00000000E-01  8.50000000E-01  8.50000000E-01  8.50000000E-01  8.00000000E-01
  8.50000000E-01  8.50000000E-01  8.50000000E-01  8.00000000E-01  8.50000000E-01
  8.50000000E-01  8.50000000E-01  8.00000000E-01  8.50000000E-01  8.50000000E-01
  8.50000000E-01  8.00000000E-01  8.50000000E-01  8.50000000E-01  8.50000000E-01
  8.00000000E-01  8.50000000E-01  8.50000000E-01  8.50000000E-01  8.00000000E-01
  8.50000000E-01  8.50000000E-01  8.50000000E-01  8.00000000E-01  8.50000000E-01
  8.50000000E-01  8.50000000E-01  8.00000000E-01  8.50000000E-01  8.50000000E-01
  8.50000000E-01  8.00000000E-01  8.50000000E-01  8.50000000E-01  8.50000000E-01
  8.00000000E-01  8.50000000E-01  8.50000000E-01  8.50000000E-01  8.00000000E-01
  8.50000000E-01  8.50000000E-01  8.50000000E-01  8.00000000E-01  8.50000000E-01
  8.50000000E-01  8.50000000E-01  8.00000000E-01  8.50000000E-01  8.50000000E-01
  8.50000000E-01  8.00000000E-01  8.50000000E-01  8.50000000E-01  8.50000000E-01
  8.00000000E-01  8.50000000E-01  8.50000000E-01  8.50000000E-01  8.00000000E-01
  8.50000000E-01  8.50000000E-01  8.50000000E-01  8.00000000E-01  8.50000000E-01
  8.50000000E-01  8.50000000E-01  8.00000000E-01  8.50000000E-01  8.50000000E-01
  8.50000000E-01  8.00000000E-01  8.50000000E-01  8.50000000E-01  8.50000000E-01
  8.00000000E-01  8.50000000E-01  8.50000000E-01  8.50000000E-01  8.00000000E-01
  8.50000000E-01  8.50000000E-01  8.50000000E-01  8.00000000E-01  8.50000000E-01
  8.50000000E-01  8.50000000E-01  8.00000000E-01  8.50000000E-01  8.50000000E-01
  8.50000000E-01  8.00000000E-01  8.50000000E-01  8.50000000E-01  8.50000000E-01
  8.00000000E-01  8.50000000E-01  8.50000000E-01  8.50000000E-01  8.00000000E-01
  8.50000000E-01  8.50000000E-01  8.50000000E-01  8.00000000E-01  8.50000000E-01
  8.50000000E-01  8.50000000E-01  8.00000000E-01  8.50000000E-01  8.50000000E-01
  8.50000000E-01  8.00000000E-01  8.50000000E-01  8.50000000E-01  8.50000000E-01
  8.00000000E-01  8.50000000E-01  8.50000000E-01  8.50000000E-01  8.00000000E-01
  8.50000000E-01  8.50000000E-01  8.50000000E-01  8.00000000E-01  8.50000000E-01
  8.50000000E-01  8.50000000E-01  8.00000000E-01  8.50000000E-01  8.50000000E-01
  8.50000000E-01  8.00000000E-01  8.50000000E-01  8.50000000E-01  8.50000000E-01
  8.00000000E-01  8.50000000E-01  8.50000000E-01  8.50000000E-01  8.00000000E-01
  8.50000000E-01  8.50000000E-01  8.50000000E-01  8.00000000E-01  8.50000000E-01
  8.50000000E-01  8.50000000E-01  8.00000000E-01  8.50000000E-01  8.50000000E-01
  8.50000000E-01  8.00000000E-01  8.50000000E-01  8.50000000E-01  8.50000000E-01
  8.00000000E-01  8.50000000E-01  8.50000000E-01  8.50000000E-01  8.00000000E-01
  8.50000000E-01  8.50000000E-01  8.50000000E-01  8.00000000E-01  8.50000000E-01
  8.50000000E-01  8.50000000E-01  8.00000000E-01  8.50000000E-01  8.50000000E-01
  8.50000000E-01  8.00000000E-01  8.50000000E-01  8.50000000E-01  8.50000000E-01
  8.00000000E-01  8.50000000E-01  8.50000000E-01  8.50000000E-01  8.00000000E-01
  8.50000000E-01  8.50000000E-01  8.50000000E-01  8.00000000E-01  8.50000000E-01
  8.50000000E-01  8.50000000E-01  8.00000000E-01  8.50000000E-01  8.50000000E-01
  8.50000000E-01  8.00000000E-01  8.50000000E-01  8.50000000E-01  8.50000000E-01
  8.00000000E-01  8.50000000E-01  8.50000000E-01  8.50000000E-01  8.00000000E-01
  8.50000000E-01  8.50000000E-01  8.50000000E-01  8.00000000E-01  8.50000000E-01
  8.50000000E-01  8.50000000E-01  8.00000000E-01  8.50000000E-01  8.50000000E-01
  8.50000000E-01  8.00000000E-01  8.50000000E-01  8.50000000E-01  8.50000000E-01
  8.00000000E-01  8.50000000E-01  8.50000000E-01  8.50000000E-01  8.00000000E-01
  8.50000000E-01  8.50000000E-01  8.50000000E-01  8.00000000E-01  8.50000000E-01
  8.50000000E-01  8.50000000E-01  8.00000000E-01  8.50000000E-01  8.50000000E-01
  8.50000000E-01  8.00000000E-01  8.50000000E-01  8.50000000E-01  8.50000000E-01
  8.00000000E-01  8.50000000E-01  8.50000000E-01  8.50000000E-01  8.00000000E-01
  8.50000000E-01  8.50000000E-01  8.50000000E-01  8.00000000E-01  8.50000000E-01
  8.50000000E-01  8.50000000E-01  8.00000000E-01  8.50000000E-01  8.50000000E-01
  8.50000000E-01  8.00000000E-01  8.50000000E-01  8.50000000E-01  8.50000000E-01
  8.00000000E-01  8.50000000E-01  8.50000000E-01  8.50000000E-01  8.00000000E-01
  8.50000000E-01  8.50000000E-01  8.50000000E-01  8.00000000E-01  8.50000000E-01
  8.50000000E-01  8.50000000E-01  8.00000000E-01  8.50000000E-01  8.50000000E-01
  8.50000000E-01  8.00000000E-01  8.50000000E-01  8.50000000E-01  8.50000000E-01
  8.00000000E-01  8.50000000E-01  8.50000000E-01  8.50000000E-01  8.00000000E-01
  8.50000000E-01  8.50000000E-01  8.50000000E-01  8.00000000E-01  8.50000000E-01
  8.50000000E-01  8.50000000E-01  8.00000000E-01  8.50000000E-01  8.50000000E-01
  8.50000000E-01  8.00000000E-01  8.50000000E-01  8.50000000E-01  8.50000000E-01
  8.00000000E-01  8.50000000E-01  8.50000000E-01  8.50000000E-01  8.00000000E-01
  8.50000000E-01  8.50000000E-01  8.50000000E-01  8.00000000E-01  8.50000000E-01
  8.50000000E-01  8.50000000E-01  8.00000000E-01  8.50000000E-01  8.50000000E-01
  8.50000000E-01  8.00000000E-01  8.50000000E-01  8.50000000E-01  8.50000000E-01
  8.00000000E-01  8.50000000E-01  8.50000000E-01  8.50000000E-01  8.00000000E-01
  8.50000000E-01  8.50000000E-01  8.50000000E-01  8.00000000E-01  8.50000000E-01
  8.50000000E-01  8.50000000E-01  8.00000000E-01  8.50000000E-01  8.50000000E-01
  8.50000000E-01  8.00000000E-01  8.50000000E-01  8.50000000E-01  8.50000000E-01
  8.00000000E-01  8.50000000E-01  8.50000000E-01  8.50000000E-01  8.00000000E-01
  8.50000000E-01  8.50000000E-01  8.50000000E-01  8.00000000E-01  8.50000000E-01
  8.50000000E-01  8.50000000E-01  8.00000000E-01  8.50000000E-01  8.50000000E-01
  8.50000000E-01  8.00000000E-01  8.50000000E-01  8.50000000E-01  8.50000000E-01
  8.00000000E-01  8.50000000E-01  8.50000000E-01  8.50000000E-01  8.00000000E-01
  8.50000000E-01  8.50000000E-01  8.50000000E-01  8.00000000E-01  8.50000000E-01
  8.50000000E-01  8.50000000E-01  8.00000000E-01  8.50000000E-01  8.50000000E-01
  8.50000000E-01  8.00000000E-01  8.50000000E-01  8.50000000E-01  8.50000000E-01
  8.00000000E-01  8.50000000E-01  8.50000000E-01  8.50000000E-01  8.00000000E-01
  8.50000000E-01  8.50000000E-01  8.50000000E-01  8.00000000E-01  8.50000000E-01
  8.50000000E-01  8.50000000E-01  8.00000000E-01  8.50000000E-01  8.50000000E-01
  8.50000000E-01  8.00000000E-01  8.50000000E-01  8.50000000E-01  8.50000000E-01
  8.00000000E-01  8.50000000E-01  8.50000000E-01  8.50000000E-01  8.00000000E-01
  8.50000000E-01  8.50000000E-01  8.50000000E-01  8.00000000E-01  8.50000000E-01
  8.50000000E-01  8.50000000E-01  8.00000000E-01  8.50000000E-01  8.50000000E-01
  8.50000000E-01  8.00000000E-01  8.50000000E-01  8.50000000E-01  8.50000000E-01
  8.00000000E-01  8.50000000E-01  8.50000000E-01  8.50000000E-01  8.00000000E-01
  8.50000000E-01  8.50000000E-01  8.50000000E-01  8.00000000E-01  8.50000000E-01
  8.50000000E-01  8.50000000E-01  8.00000000E-01  8.50000000E-01  8.50000000E-01
  8.50000000E-01  8.00000000E-01  8.50000000E-01  8.50000000E-01  8.50000000E-01
  8.00000000E-01  8.50000000E-01  8.50000000E-01  8.50000000E-01  8.00000000E-01
  8.50000000E-01  8.50000000E-01  8.50000000E-01  8.00000000E-01  8.50000000E-01
  8.50000000E-01  8.50000000E-01  8.00000000E-01  8.50000000E-01  8.50000000E-01
  8.50000000E-01  8.00000000E-01  8.50000000E-01  8.50000000E-01  8.50000000E-01
  8.00000000E-01  8.50000000E-01  8.50000000E-01  8.50000000E-01  8.00000000E-01
  8.50000000E-01  8.50000000E-01  8.50000000E-01  8.00000000E-01  8.50000000E-01
  8.50000000E-01  8.50000000E-01  8.00000000E-01  8.50000000E-01  8.50000000E-01
  8.50000000E-01  8.00000000E-01  8.50000000E-01  8.50000000E-01  8.50000000E-01
  8.00000000E-01  8.50000000E-01  8.50000000E-01  8.50000000E-01  8.00000000E-01
  8.50000000E-01  8.50000000E-01  8.50000000E-01  8.00000000E-01  8.50000000E-01
  8.50000000E-01  8.50000000E-01  8.00000000E-01  8.50000000E-01  8.50000000E-01
  8.50000000E-01  8.00000000E-01  8.50000000E-01  8.50000000E-01  8.50000000E-01
  8.00000000E-01  8.50000000E-01  8.50000000E-01  8.50000000E-01  8.00000000E-01
  8.50000000E-01  8.50000000E-01  8.50000000E-01  8.00000000E-01  8.50000000E-01
  8.50000000E-01  8.50000000E-01  8.00000000E-01  8.50000000E-01  8.50000000E-01
  8.50000000E-01  8.00000000E-01  8.50000000E-01  8.50000000E-01  8.50000000E-01
  8.00000000E-01  8.50000000E-01  8.50000000E-01  8.50000000E-01  8.00000000E-01
  8.50000000E-01  8.50000000E-01  8.50000000E-01  8.00000000E-01  8.50000000E-01
  8.50000000E-01  8.50000000E-01  8.00000000E-01  8.50000000E-01  8.50000000E-01
  8.50000000E-01  8.00000000E-01  8.50000000E-01  8.50000000E-01  8.50000000E-01
  8.00000000E-01  8.50000000E-01  8.50000000E-01  8.50000000E-01  8.00000000E-01
  8.50000000E-01  8.50000000E-01  8.50000000E-01  8.00000000E-01  8.50000000E-01
  8.50000000E-01  8.50000000E-01  8.00000000E-01  8.50000000E-01  8.50000000E-01
  8.50000000E-01  8.00000000E-01  8.50000000E-01  8.50000000E-01  8.50000000E-01
  8.00000000E-01  8.50000000E-01  8.50000000E-01  8.50000000E-01  8.00000000E-01
  8.50000000E-01  8.50000000E-01  8.50000000E-01  8.00000000E-01  8.50000000E-01
  8.50000000E-01  8.50000000E-01  8.00000000E-01  8.50000000E-01  8.50000000E-01
  8.50000000E-01  8.00000000E-01  8.50000000E-01  8.50000000E-01  8.50000000E-01
  8.00000000E-01  8.50000000E-01  8.50000000E-01  8.50000000E-01  8.00000000E-01
  8.50000000E-01  8.50000000E-01  8.50000000E-01  8.00000000E-01  8.50000000E-01
  8.50000000E-01  8.50000000E-01  8.00000000E-01  8.50000000E-01  8.50000000E-01
  8.50000000E-01  8.00000000E-01  8.50000000E-01  8.50000000E-01  8.50000000E-01
  8.00000000E-01  8.50000000E-01  8.50000000E-01  8.50000000E-01  8.00000000E-01
  8.50000000E-01  8.50000000E-01  8.50000000E-01  8.00000000E-01  8.50000000E-01
  8.50000000E-01  8.50000000E-01  8.00000000E-01  8.50000000E-01  8.50000000E-01
  8.50000000E-01  8.00000000E-01  8.50000000E-01  8.50000000E-01  8.50000000E-01
  8.00000000E-01  8.50000000E-01  8.50000000E-01  8.50000000E-01  8.00000000E-01
  8.50000000E-01  8.50000000E-01  8.50000000E-01  8.00000000E-01  8.50000000E-01
  8.50000000E-01  8.50000000E-01  8.00000000E-01  8.50000000E-01  8.50000000E-01
  8.50000000E-01  8.00000000E-01  8.50000000E-01  8.50000000E-01  8.50000000E-01
  8.00000000E-01  8.50000000E-01  8.50000000E-01  8.50000000E-01  8.00000000E-01
  8.50000000E-01  8.50000000E-01  8.50000000E-01  8.00000000E-01  8.50000000E-01
  8.50000000E-01  8.50000000E-01  8.00000000E-01  8.50000000E-01  8.50000000E-01
  8.50000000E-01  8.00000000E-01  8.50000000E-01  8.50000000E-01  8.50000000E-01
  8.00000000E-01  8.50000000E-01  8.50000000E-01  8.50000000E-01  8.00000000E-01
  8.50000000E-01  8.50000000E-01  8.50000000E-01  8.00000000E-01  8.50000000E-01
  8.50000000E-01  8.50000000E-01  8.00000000E-01  8.50000000E-01  8.50000000E-01
  8.50000000E-01  8.00000000E-01  8.50000000E-01  8.50000000E-01  8.50000000E-01
  8.00000000E-01  8.50000000E-01  8.50000000E-01  8.50000000E-01  8.00000000E-01
  8.50000000E-01  8.50000000E-01  8.50000000E-01  8.00000000E-01  8.50000000E-01
  8.50000000E-01  8.50000000E-01  8.00000000E-01  8.50000000E-01  8.50000000E-01
  8.50000000E-01  8.00000000E-01  8.50000000E-01  8.50000000E-01  8.50000000E-01
  8.00000000E-01  8.50000000E-01  8.50000000E-01  8.50000000E-01  8.00000000E-01
  8.50000000E-01  8.50000000E-01  8.50000000E-01  8.00000000E-01  8.50000000E-01
  8.50000000E-01  8.50000000E-01  8.00000000E-01  8.50000000E-01  8.50000000E-01
  8.50000000E-01  8.00000000E-01  8.50000000E-01  8.50000000E-01  8.50000000E-01
  8.00000000E-01  8.50000000E-01  8.50000000E-01  8.50000000E-01  8.00000000E-01
  8.50000000E-01  8.50000000E-01  8.50000000E-01  8.00000000E-01  8.50000000E-01
  8.50000000E-01  8.50000000E-01  8.00000000E-01  8.50000000E-01  8.50000000E-01
  8.50000000E-01  8.00000000E-01  8.50000000E-01  8.50000000E-01  8.50000000E-01
  8.00000000E-01  8.50000000E-01  8.50000000E-01  8.50000000E-01  8.00000000E-01
  8.50000000E-01  8.50000000E-01  8.50000000E-01  8.00000000E-01  8.50000000E-01
  8.50000000E-01  8.50000000E-01  8.00000000E-01  8.50000000E-01  8.50000000E-01
  8.50000000E-01  8.00000000E-01  8.50000000E-01  8.50000000E-01  8.50000000E-01
  8.00000000E-01  8.50000000E-01  8.50000000E-01  8.50000000E-01  8.00000000E-01
  8.50000000E-01  8.50000000E-01  8.50000000E-01  8.00000000E-01  8.50000000E-01
  8.50000000E-01  8.50000000E-01  8.00000000E-01  8.50000000E-01  8.50000000E-01
  8.50000000E-01  8.00000000E-01  8.50000000E-01  8.50000000E-01  8.50000000E-01
  8.00000000E-01  8.50000000E-01  8.50000000E-01  8.50000000E-01  8.00000000E-01
  8.50000000E-01  8.50000000E-01  8.50000000E-01  8.00000000E-01  8.50000000E-01
  8.50000000E-01  8.50000000E-01  8.00000000E-01  8.50000000E-01  8.50000000E-01
  8.50000000E-01  8.00000000E-01  8.50000000E-01  8.50000000E-01  8.50000000E-01
  8.00000000E-01  8.50000000E-01  8.50000000E-01  8.50000000E-01  8.00000000E-01
  8.50000000E-01  8.50000000E-01  8.50000000E-01  8.00000000E-01  8.50000000E-01
  8.50000000E-01  8.50000000E-01  8.00000000E-01  8.50000000E-01  8.50000000E-01
  8.50000000E-01  8.00000000E-01  8.50000000E-01  8.50000000E-01  8.50000000E-01
  8.00000000E-01  8.50000000E-01  8.50000000E-01  8.50000000E-01  8.00000000E-01
  8.50000000E-01  8.50000000E-01  8.50000000E-01  8.00000000E-01  8.50000000E-01
  8.50000000E-01  8.50000000E-01  8.00000000E-01  8.50000000E-01  8.50000000E-01
  8.50000000E-01  8.00000000E-01  8.50000000E-01  8.50000000E-01  8.50000000E-01
  8.00000000E-01  8.50000000E-01  8.50000000E-01  8.50000000E-01  8.00000000E-01
  8.50000000E-01  8.50000000E-01  8.50000000E-01  8.00000000E-01  8.50000000E-01
  8.50000000E-01  8.50000000E-01  8.00000000E-01  8.50000000E-01  8.50000000E-01
  8.50000000E-01  8.00000000E-01  8.50000000E-01  8.50000000E-01  8.50000000E-01
  8.00000000E-01  8.50000000E-01  8.50000000E-01  8.50000000E-01  8.00000000E-01
  8.50000000E-01  8.50000000E-01  8.50000000E-01  8.00000000E-01  8.50000000E-01
  8.50000000E-01  8.50000000E-01  8.00000000E-01  8.50000000E-01  8.50000000E-01
  8.50000000E-01  8.00000000E-01  8.50000000E-01  8.50000000E-01  8.50000000E-01
  8.00000000E-01  8.50000000E-01  8.50000000E-01  8.50000000E-01  8.00000000E-01
  8.50000000E-01  8.50000000E-01  8.50000000E-01  8.00000000E-01  8.50000000E-01
  8.50000000E-01  8.50000000E-01  8.00000000E-01  8.50000000E-01  8.50000000E-01
  8.50000000E-01  8.00000000E-01  8.50000000E-01  8.50000000E-01  8.50000000E-01
  8.00000000E-01  8.50000000E-01  8.50000000E-01  8.50000000E-01  8.00000000E-01
  8.50000000E-01  8.50000000E-01  8.50000000E-01  8.00000000E-01  8.50000000E-01
  8.50000000E-01  8.50000000E-01  8.00000000E-01  8.50000000E-01  8.50000000E-01
  8.50000000E-01  8.00000000E-01  8.50000000E-01  8.50000000E-01  8.50000000E-01
  8.00000000E-01  8.50000000E-01  8.50000000E-01  8.50000000E-01  8.00000000E-01
  8.50000000E-01  8.50000000E-01  8.50000000E-01  8.00000000E-01  8.50000000E-01
  8.50000000E-01  8.50000000E-01  8.00000000E-01  8.50000000E-01  8.50000000E-01
  8.50000000E-01  8.00000000E-01  8.50000000E-01  8.50000000E-01  8.50000000E-01
  8.00000000E-01  8.50000000E-01  8.50000000E-01  8.50000000E-01  8.00000000E-01
  8.50000000E-01  8.50000000E-01  8.50000000E-01  8.00000000E-01  8.50000000E-01
  8.50000000E-01  8.50000000E-01  8.00000000E-01  8.50000000E-01  8.50000000E-01
  8.50000000E-01  8.00000000E-01  8.50000000E-01  8.50000000E-01  8.50000000E-01
  8.00000000E-01  8.50000000E-01  8.50000000E-01  8.50000000E-01  8.00000000E-01
  8.50000000E-01  8.50000000E-01  8.50000000E-01  8.00000000E-01  8.50000000E-01
  8.50000000E-01  8.50000000E-01  8.00000000E-01  8.50000000E-01  8.50000000E-01
  8.50000000E-01  8.00000000E-01  8.50000000E-01  8.50000000E-01  8.50000000E-01
  8.00000000E-01  8.50000000E-01  8.50000000E-01  8.50000000E-01  8.00000000E-01
  8.50000000E-01  8.50000000E-01  8.50000000E-01  8.00000000E-01  8.50000000E-01
  8.50000000E-01  8.50000000E-01  8.00000000E-01  8.50000000E-01  8.50000000E-01
  8.50000000E-01  8.00000000E-01  8.50000000E-01  8.50000000E-01  8.50000000E-01
  8.00000000E-01  8.50000000E-01  8.50000000E-01  8.50000000E-01  8.00000000E-01
  8.50000000E-01  8.50000000E-01  8.50000000E-01  8.00000000E-01  8.50000000E-01
  8.50000000E-01  8.50000000E-01  8.00000000E-01  8.50000000E-01  8.50000000E-01
  8.50000000E-01  8.00000000E-01  8.50000000E-01  8.50000000E-01  8.50000000E-01
  8.00000000E-01  8.50000000E-01  8.50000000E-01  8.50000000E-01  8.00000000E-01
  8.50000000E-01  8.50000000E-01  8.50000000E-01  8.00000000E-01  8.50000000E-01
  8.50000000E-01  8.50000000E-01  8.00000000E-01  8.50000000E-01  8.50000000E-01
  8.50000000E-01  8.00000000E-01  8.50000000E-01  8.50000000E-01  8.50000000E-01
  8.00000000E-01  8.50000000E-01  8.50000000E-01  8.50000000E-01  8.00000000E-01
  8.50000000E-01  8.50000000E-01  8.50000000E-01  8.00000000E-01  8.50000000E-01
  8.50000000E-01  8.50000000E-01  8.00000000E-01  8.50000000E-01  8.50000000E-01
  8.50000000E-01  8.00000000E-01  8.50000000E-01  8.50000000E-01  8.50000000E-01
  8.00000000E-01  8.50000000E-01  8.50000000E-01  8.50000000E-01  8.00000000E-01
  8.50000000E-01  8.50000000E-01  8.50000000E-01  8.00000000E-01  8.50000000E-01
  8.50000000E-01  8.50000000E-01  8.00000000E-01  8.50000000E-01  8.50000000E-01
  8.50000000E-01  8.00000000E-01  8.50000000E-01  8.50000000E-01  8.50000000E-01
  8.00000000E-01  8.50000000E-01  8.50000000E-01  8.50000000E-01  8.00000000E-01
  8.50000000E-01  8.50000000E-01  8.50000000E-01  8.00000000E-01  8.50000000E-01
  8.50000000E-01  8.50000000E-01  8.00000000E-01  8.50000000E-01  8.50000000E-01
  8.50000000E-01  8.00000000E-01  8.50000000E-01  8.50000000E-01  8.50000000E-01
  8.00000000E-01  8.50000000E-01  8.50000000E-01  8.50000000E-01  8.00000000E-01
  8.50000000E-01  8.50000000E-01  8.50000000E-01  8.00000000E-01  8.50000000E-01
  8.50000000E-01  8.50000000E-01  8.00000000E-01  8.50000000E-01  8.50000000E-01
  8.50000000E-01  8.00000000E-01  8.50000000E-01  8.50000000E-01  8.50000000E-01
  8.00000000E-01  8.50000000E-01  8.50000000E-01  8.50000000E-01  8.00000000E-01
  8.50000000E-01  8.50000000E-01  8.50000000E-01  8.00000000E-01  8.50000000E-01
  8.50000000E-01  8.50000000E-01  8.00000000E-01  8.50000000E-01  8.50000000E-01
  8.50000000E-01  8.00000000E-01  8.50000000E-01  8.50000000E-01  8.50000000E-01
  8.00000000E-01  8.50000000E-01  8.50000000E-01  8.50000000E-01  8.00000000E-01
  8.50000000E-01  8.50000000E-01  8.50000000E-01  8.00000000E-01  8.50000000E-01
  8.50000000E-01  8.50000000E-01  8.00000000E-01  8.50000000E-01  8.50000000E-01
  8.50000000E-01  8.00000000E-01  8.50000000E-01  8.50000000E-01  8.50000000E-01
  8.00000000E-01  8.50000000E-01  8.50000000E-01  8.50000000E-01  8.00000000E-01
  8.50000000E-01  8.50000000E-01  8.50000000E-01  8.00000000E-01  8.50000000E-01
  8.50000000E-01  8.50000000E-01  8.00000000E-01  8.50000000E-01  8.50000000E-01
  8.50000000E-01  8.00000000E-01  8.50000000E-01  8.50000000E-01  8.50000000E-01
  8.00000000E-01  8.50000000E-01  8.50000000E-01  8.50000000E-01  8.00000000E-01
  8.50000000E-01  8.50000000E-01  8.50000000E-01  8.00000000E-01  8.50000000E-01
  8.50000000E-01  8.50000000E-01  8.00000000E-01  8.50000000E-01  8.50000000E-01
  8.50000000E-01  8.00000000E-01  8.50000000E-01  8.50000000E-01  8.50000000E-01
  8.00000000E-01  8.50000000E-01  8.50000000E-01  8.50000000E-01  8.00000000E-01
  8.50000000E-01  8.50000000E-01  8.50000000E-01  8.00000000E-01  8.50000000E-01
  8.50000000E-01  8.50000000E-01  8.00000000E-01  8.50000000E-01  8.50000000E-01
  8.50000000E-01  8.00000000E-01  8.50000000E-01  8.50000000E-01  8.50000000E-01
  8.00000000E-01  8.50000000E-01  8.50000000E-01  8.50000000E-01  8.00000000E-01
  8.50000000E-01  8.50000000E-01  8.50000000E-01  8.00000000E-01  8.50000000E-01
  8.50000000E-01  8.50000000E-01  8.00000000E-01  8.50000000E-01  8.50000000E-01
  8.50000000E-01  8.00000000E-01  8.50000000E-01  8.50000000E-01  8.50000000E-01
  8.00000000E-01  8.50000000E-01  8.50000000E-01  8.50000000E-01  8.00000000E-01
  8.50000000E-01  8.50000000E-01  8.50000000E-01  8.00000000E-01  8.50000000E-01
  8.50000000E-01  8.50000000E-01  8.00000000E-01  8.50000000E-01  8.50000000E-01
  8.50000000E-01  8.00000000E-01  8.50000000E-01  8.50000000E-01  8.50000000E-01
  8.00000000E-01  8.50000000E-01  8.50000000E-01  8.50000000E-01  8.00000000E-01
  8.50000000E-01  8.50000000E-01  8.50000000E-01  8.00000000E-01  8.50000000E-01
  8.50000000E-01  8.50000000E-01  8.00000000E-01  8.50000000E-01  8.50000000E-01
  8.50000000E-01  8.00000000E-01  8.50000000E-01  8.50000000E-01  8.50000000E-01
  8.00000000E-01  8.50000000E-01  8.50000000E-01  8.50000000E-01  8.00000000E-01
  8.50000000E-01  8.50000000E-01  8.50000000E-01  8.00000000E-01  8.50000000E-01
  8.50000000E-01  8.50000000E-01  8.00000000E-01  8.50000000E-01  8.50000000E-01
  8.50000000E-01  8.00000000E-01  8.50000000E-01  8.50000000E-01  8.50000000E-01
  8.00000000E-01  8.50000000E-01  8.50000000E-01  8.50000000E-01  8.00000000E-01
  8.50000000E-01  8.50000000E-01  8.50000000E-01  8.00000000E-01  8.50000000E-01
  8.50000000E-01  8.50000000E-01  8.00000000E-01  8.50000000E-01  8.50000000E-01
  8.50000000E-01  8.00000000E-01  8.50000000E-01  8.50000000E-01  8.50000000E-01
  8.00000000E-01  8.50000000E-01  8.50000000E-01  8.50000000E-01  8.00000000E-01
  8.50000000E-01  8.50000000E-01  8.50000000E-01  8.00000000E-01  8.50000000E-01
  8.50000000E-01  8.50000000E-01  8.00000000E-01  8.50000000E-01  8.50000000E-01
  8.50000000E-01  8.00000000E-01  8.50000000E-01  8.50000000E-01  8.50000000E-01
  8.00000000E-01  8.50000000E-01  8.50000000E-01  8.50000000E-01  8.00000000E-01
  8.50000000E-01  8.50000000E-01  8.50000000E-01  8.00000000E-01  8.50000000E-01
  8.50000000E-01  8.50000000E-01  8.00000000E-01  8.50000000E-01  8.50000000E-01
  8.50000000E-01  8.00000000E-01  8.50000000E-01  8.50000000E-01  8.50000000E-01
  8.00000000E-01  8.50000000E-01  8.50000000E-01  8.50000000E-01  8.00000000E-01
  8.50000000E-01  8.50000000E-01  8.50000000E-01  8.00000000E-01  8.50000000E-01
  8.50000000E-01  8.50000000E-01  8.00000000E-01  8.50000000E-01  8.50000000E-01
  8.50000000E-01  8.00000000E-01  8.50000000E-01  8.50000000E-01  8.50000000E-01
  8.00000000E-01  8.50000000E-01  8.50000000E-01  8.50000000E-01  8.00000000E-01
  8.50000000E-01  8.50000000E-01  8.50000000E-01  8.00000000E-01  8.50000000E-01
  8.50000000E-01  8.50000000E-01  8.00000000E-01  8.50000000E-01  8.50000000E-01
  8.50000000E-01  8.00000000E-01  8.50000000E-01  8.50000000E-01  8.50000000E-01
  8.00000000E-01  8.50000000E-01  8.50000000E-01  8.50000000E-01  8.00000000E-01
  8.50000000E-01  8.50000000E-01  8.50000000E-01  8.00000000E-01  8.50000000E-01
  8.50000000E-01  8.50000000E-01  8.00000000E-01  8.50000000E-01  8.50000000E-01
  8.50000000E-01  8.00000000E-01  8.50000000E-01  8.50000000E-01  8.50000000E-01
  8.00000000E-01  8.50000000E-01  8.50000000E-01  8.50000000E-01  8.00000000E-01
  8.50000000E-01  8.50000000E-01  8.50000000E-01  8.00000000E-01  8.50000000E-01
  8.50000000E-01  8.50000000E-01  8.00000000E-01  8.50000000E-01  8.50000000E-01
  8.50000000E-01  8.00000000E-01  8.50000000E-01  8.50000000E-01  8.50000000E-01
  8.00000000E-01  8.50000000E-01  8.50000000E-01  8.50000000E-01  8.00000000E-01
  8.50000000E-01  8.50000000E-01  8.50000000E-01  8.00000000E-01  8.50000000E-01
  8.50000000E-01  8.50000000E-01  8.00000000E-01  8.50000000E-01  8.50000000E-01
  8.50000000E-01  8.00000000E-01  8.50000000E-01  8.50000000E-01  8.50000000E-01
  8.00000000E-01  8.50000000E-01  8.50000000E-01  8.50000000E-01  8.00000000E-01
  8.50000000E-01  8.50000000E-01  8.50000000E-01  8.00000000E-01  8.50000000E-01
  8.50000000E-01  8.50000000E-01  8.00000000E-01  8.50000000E-01  8.50000000E-01
  8.50000000E-01  8.00000000E-01  8.50000000E-01  8.50000000E-01  8.50000000E-01
  8.00000000E-01  8.50000000E-01  8.50000000E-01  8.50000000E-01  8.00000000E-01
  8.50000000E-01  8.50000000E-01  8.50000000E-01  8.00000000E-01  8.50000000E-01
  8.50000000E-01  8.50000000E-01  8.00000000E-01  8.50000000E-01  8.50000000E-01
  8.50000000E-01  8.00000000E-01  8.50000000E-01  8.50000000E-01  8.50000000E-01
  8.00000000E-01  8.50000000E-01  8.50000000E-01  8.50000000E-01  8.00000000E-01
  8.50000000E-01  8.50000000E-01  8.50000000E-01  8.00000000E-01  8.50000000E-01
  8.50000000E-01  8.50000000E-01  8.00000000E-01  8.50000000E-01  8.50000000E-01
  8.50000000E-01  8.00000000E-01  8.50000000E-01  8.50000000E-01  8.50000000E-01
  8.00000000E-01  8.50000000E-01  8.50000000E-01  8.50000000E-01  8.00000000E-01
  8.50000000E-01  8.50000000E-01  8.50000000E-01  8.00000000E-01  8.50000000E-01
  8.50000000E-01  8.50000000E-01  8.00000000E-01  8.50000000E-01  8.50000000E-01
  8.50000000E-01  8.00000000E-01  8.50000000E-01  8.50000000E-01  8.50000000E-01
  8.00000000E-01  8.50000000E-01  8.50000000E-01  8.50000000E-01  8.00000000E-01
  8.50000000E-01  8.50000000E-01  8.50000000E-01  8.00000000E-01  8.50000000E-01
  8.50000000E-01  8.50000000E-01  8.00000000E-01  8.50000000E-01  8.50000000E-01
  8.50000000E-01  8.00000000E-01  8.50000000E-01  8.50000000E-01  8.50000000E-01
  8.00000000E-01  8.50000000E-01  8.50000000E-01  8.50000000E-01  8.00000000E-01
  8.50000000E-01  8.50000000E-01  8.50000000E-01  8.00000000E-01  8.50000000E-01
  8.50000000E-01  8.50000000E-01  8.00000000E-01  8.50000000E-01  8.50000000E-01
  8.50000000E-01  8.00000000E-01  8.50000000E-01  8.50000000E-01  8.50000000E-01
  8.00000000E-01  8.50000000E-01  8.50000000E-01  8.50000000E-01  8.00000000E-01
  8.50000000E-01  8.50000000E-01  8.50000000E-01  8.00000000E-01  8.50000000E-01
  8.50000000E-01  8.50000000E-01  8.00000000E-01  8.50000000E-01  8.50000000E-01
  8.50000000E-01  8.00000000E-01  8.50000000E-01  8.50000000E-01  8.50000000E-01
  8.00000000E-01  8.50000000E-01  8.50000000E-01  8.50000000E-01  8.00000000E-01
  8.50000000E-01  8.50000000E-01  8.50000000E-01  8.00000000E-01  8.50000000E-01
  8.50000000E-01  8.50000000E-01  8.00000000E-01  8.50000000E-01  8.50000000E-01
  8.50000000E-01  8.00000000E-01  8.50000000E-01  8.50000000E-01  8.50000000E-01
  8.00000000E-01  8.50000000E-01  8.50000000E-01  8.50000000E-01  8.00000000E-01
  8.50000000E-01  8.50000000E-01  8.50000000E-01  8.00000000E-01  8.50000000E-01
  8.50000000E-01  8.50000000E-01  8.00000000E-01  8.50000000E-01  8.50000000E-01
  8.50000000E-01  8.00000000E-01  8.50000000E-01  8.50000000E-01  8.50000000E-01
  8.00000000E-01  8.50000000E-01  8.50000000E-01  8.50000000E-01  8.00000000E-01
  8.50000000E-01  8.50000000E-01  8.50000000E-01  8.00000000E-01  8.50000000E-01
  8.50000000E-01  8.50000000E-01  8.00000000E-01  8.50000000E-01  8.50000000E-01
  8.50000000E-01  8.00000000E-01  8.50000000E-01  8.50000000E-01  8.50000000E-01
  8.00000000E-01  8.50000000E-01  8.50000000E-01  8.50000000E-01  8.00000000E-01
  8.50000000E-01  8.50000000E-01  8.50000000E-01  8.00000000E-01  8.50000000E-01
  8.50000000E-01  8.50000000E-01  8.00000000E-01  8.50000000E-01  8.50000000E-01
  8.50000000E-01  8.00000000E-01  8.50000000E-01  8.50000000E-01  8.50000000E-01
  8.00000000E-01  8.50000000E-01  8.50000000E-01  8.50000000E-01  8.00000000E-01
  8.50000000E-01  8.50000000E-01  8.50000000E-01  8.00000000E-01  8.50000000E-01
  8.50000000E-01  8.50000000E-01  8.00000000E-01  8.50000000E-01  8.50000000E-01
  8.50000000E-01  8.00000000E-01  8.50000000E-01  8.50000000E-01  8.50000000E-01
  8.00000000E-01  8.50000000E-01  8.50000000E-01  8.50000000E-01  8.00000000E-01
  8.50000000E-01  8.50000000E-01  8.50000000E-01  8.00000000E-01  8.50000000E-01
  8.50000000E-01  8.50000000E-01  8.00000000E-01  8.50000000E-01  8.50000000E-01
  8.50000000E-01  8.00000000E-01  8.50000000E-01  8.50000000E-01  8.50000000E-01
  8.00000000E-01  8.50000000E-01  8.50000000E-01  8.50000000E-01  8.00000000E-01
  8.50000000E-01  8.50000000E-01  8.50000000E-01  8.00000000E-01  8.50000000E-01
  8.50000000E-01  8.50000000E-01  8.00000000E-01  8.50000000E-01  8.50000000E-01
  8.50000000E-01  8.00000000E-01  8.50000000E-01  8.50000000E-01  8.50000000E-01
  8.00000000E-01  8.50000000E-01  8.50000000E-01  8.50000000E-01  8.00000000E-01
  8.50000000E-01  8.50000000E-01  8.50000000E-01  8.00000000E-01  8.50000000E-01
  8.50000000E-01  8.50000000E-01  8.00000000E-01  8.50000000E-01  8.50000000E-01
  8.50000000E-01  8.00000000E-01  8.50000000E-01  8.50000000E-01  8.50000000E-01
  8.00000000E-01  8.50000000E-01  8.50000000E-01  8.50000000E-01  8.00000000E-01
  8.50000000E-01  8.50000000E-01  8.50000000E-01  8.00000000E-01  8.50000000E-01
  8.50000000E-01  8.50000000E-01  8.00000000E-01  8.50000000E-01  8.50000000E-01
  8.50000000E-01  8.00000000E-01  8.50000000E-01  8.50000000E-01  8.50000000E-01
  8.00000000E-01  8.50000000E-01  8.50000000E-01  8.50000000E-01  8.00000000E-01
  8.50000000E-01  8.50000000E-01  8.50000000E-01  8.00000000E-01  8.50000000E-01
  8.50000000E-01  8.50000000E-01  8.00000000E-01  8.50000000E-01  8.50000000E-01
  8.50000000E-01  8.00000000E-01  8.50000000E-01  8.50000000E-01  8.50000000E-01
  8.00000000E-01  8.50000000E-01  8.50000000E-01  8.50000000E-01  8.00000000E-01
  8.50000000E-01  8.50000000E-01  8.50000000E-01  8.00000000E-01  8.50000000E-01
  8.50000000E-01  8.50000000E-01  8.00000000E-01  8.50000000E-01  8.50000000E-01
  8.50000000E-01  8.00000000E-01  8.50000000E-01  8.50000000E-01  8.50000000E-01
  8.00000000E-01  8.50000000E-01  8.50000000E-01  8.50000000E-01  8.00000000E-01
  8.50000000E-01  8.50000000E-01  8.50000000E-01  8.00000000E-01  8.50000000E-01
  8.50000000E-01  8.50000000E-01  8.00000000E-01  8.50000000E-01  8.50000000E-01
  8.50000000E-01  8.00000000E-01  8.50000000E-01  8.50000000E-01  8.50000000E-01
  8.00000000E-01  8.50000000E-01  8.50000000E-01  8.50000000E-01  8.00000000E-01
  8.50000000E-01  8.50000000E-01  8.50000000E-01  8.00000000E-01  8.50000000E-01
  8.50000000E-01  8.50000000E-01  8.00000000E-01  8.50000000E-01  8.50000000E-01
  8.50000000E-01  8.00000000E-01  8.50000000E-01  8.50000000E-01  8.50000000E-01
  8.00000000E-01  8.50000000E-01  8.50000000E-01  8.50000000E-01  8.00000000E-01
  8.50000000E-01  8.50000000E-01  8.50000000E-01  8.00000000E-01  8.50000000E-01
  8.50000000E-01  8.50000000E-01  8.00000000E-01  8.50000000E-01  8.50000000E-01
  8.50000000E-01  8.00000000E-01  8.50000000E-01  8.50000000E-01  8.50000000E-01
  8.00000000E-01  8.50000000E-01  8.50000000E-01  8.50000000E-01  8.00000000E-01
  8.50000000E-01  8.50000000E-01  8.50000000E-01  8.00000000E-01  8.50000000E-01
  8.50000000E-01  8.50000000E-01  8.00000000E-01  8.50000000E-01  8.50000000E-01
  8.50000000E-01  8.00000000E-01  8.50000000E-01  8.50000000E-01  8.50000000E-01
  8.00000000E-01  8.50000000E-01  8.50000000E-01  8.50000000E-01  8.00000000E-01
  8.50000000E-01  8.50000000E-01  8.50000000E-01  8.00000000E-01  8.50000000E-01
  8.50000000E-01  8.50000000E-01  8.00000000E-01  8.50000000E-01  8.50000000E-01
  8.50000000E-01  8.00000000E-01  8.50000000E-01  8.50000000E-01  8.50000000E-01
  8.00000000E-01  8.50000000E-01  8.50000000E-01  8.50000000E-01  8.00000000E-01
  8.50000000E-01  8.50000000E-01  8.50000000E-01  8.00000000E-01  8.50000000E-01
  8.50000000E-01  8.50000000E-01  8.00000000E-01  8.50000000E-01  8.50000000E-01
  8.50000000E-01  8.00000000E-01  8.50000000E-01  8.50000000E-01  8.50000000E-01
  8.00000000E-01  8.50000000E-01  8.50000000E-01  8.50000000E-01  8.00000000E-01
  8.50000000E-01  8.50000000E-01  8.50000000E-01  8.00000000E-01  8.50000000E-01
  8.50000000E-01  8.50000000E-01  8.00000000E-01  8.50000000E-01  8.50000000E-01
  8.50000000E-01  8.00000000E-01  8.50000000E-01  8.50000000E-01  8.50000000E-01
  8.00000000E-01  8.50000000E-01  8.50000000E-01  8.50000000E-01  8.00000000E-01
  8.50000000E-01  8.50000000E-01  8.50000000E-01  8.00000000E-01  8.50000000E-01
  8.50000000E-01  8.50000000E-01  8.00000000E-01  8.50000000E-01  8.50000000E-01
  8.50000000E-01  8.00000000E-01  8.50000000E-01  8.50000000E-01  8.50000000E-01
  8.00000000E-01  8.50000000E-01  8.50000000E-01  8.50000000E-01  8.00000000E-01
  8.50000000E-01  8.50000000E-01  8.50000000E-01  8.00000000E-01  8.50000000E-01
  8.50000000E-01  8.50000000E-01  8.00000000E-01  8.50000000E-01  8.50000000E-01
  8.50000000E-01  8.00000000E-01  8.50000000E-01  8.50000000E-01  8.50000000E-01
  8.00000000E-01  8.50000000E-01  8.50000000E-01  8.50000000E-01  8.00000000E-01
  8.50000000E-01  8.50000000E-01  8.50000000E-01  8.00000000E-01  8.50000000E-01
  8.50000000E-01  8.50000000E-01  8.00000000E-01  8.50000000E-01  8.50000000E-01
  8.50000000E-01  8.00000000E-01  8.50000000E-01  8.50000000E-01  8.50000000E-01
  8.00000000E-01  8.50000000E-01  8.50000000E-01  8.50000000E-01  8.00000000E-01
  8.50000000E-01  8.50000000E-01  8.50000000E-01  8.00000000E-01  8.50000000E-01
  8.50000000E-01  8.50000000E-01  8.00000000E-01  8.50000000E-01  8.50000000E-01
  8.50000000E-01  8.00000000E-01  8.50000000E-01  8.50000000E-01  8.50000000E-01
  8.00000000E-01  8.50000000E-01  8.50000000E-01  8.50000000E-01  8.00000000E-01
  8.50000000E-01  8.50000000E-01  8.50000000E-01  8.00000000E-01  8.50000000E-01
  8.50000000E-01  8.50000000E-01  8.00000000E-01  8.50000000E-01  8.50000000E-01
  8.50000000E-01  8.00000000E-01  8.50000000E-01  8.50000000E-01  8.50000000E-01
  8.00000000E-01  8.50000000E-01  8.50000000E-01  8.50000000E-01  8.00000000E-01
  8.50000000E-01  8.50000000E-01  8.50000000E-01  8.00000000E-01  8.50000000E-01
  8.50000000E-01  8.50000000E-01  8.00000000E-01  8.50000000E-01  8.50000000E-01
  8.50000000E-01  8.00000000E-01  8.50000000E-01  8.50000000E-01  8.50000000E-01
  8.00000000E-01  8.50000000E-01  8.50000000E-01  8.50000000E-01  8.00000000E-01
  8.50000000E-01  8.50000000E-01  8.50000000E-01  8.00000000E-01  8.50000000E-01
  8.50000000E-01  8.50000000E-01  8.00000000E-01  8.50000000E-01  8.50000000E-01
  8.50000000E-01  8.00000000E-01  8.50000000E-01  8.50000000E-01  8.50000000E-01
  8.00000000E-01  8.50000000E-01  8.50000000E-01  8.50000000E-01  8.00000000E-01
  8.50000000E-01  8.50000000E-01  8.50000000E-01  8.00000000E-01  8.50000000E-01
  8.50000000E-01  8.50000000E-01  8.00000000E-01  8.50000000E-01  8.50000000E-01
  8.50000000E-01  8.00000000E-01  8.50000000E-01  8.50000000E-01  8.50000000E-01
  8.00000000E-01  8.50000000E-01  8.50000000E-01  8.50000000E-01  8.00000000E-01
  8.50000000E-01  8.50000000E-01  8.50000000E-01  8.00000000E-01  8.50000000E-01
  8.50000000E-01  8.50000000E-01  8.00000000E-01  8.50000000E-01  8.50000000E-01
  8.50000000E-01  8.00000000E-01  8.50000000E-01  8.50000000E-01  8.50000000E-01
  8.00000000E-01  8.50000000E-01  8.50000000E-01  8.50000000E-01  8.00000000E-01
  8.50000000E-01  8.50000000E-01  8.50000000E-01  8.00000000E-01  8.50000000E-01
  8.50000000E-01  8.50000000E-01  8.00000000E-01  8.50000000E-01  8.50000000E-01
  8.50000000E-01  8.00000000E-01  8.50000000E-01  8.50000000E-01  8.50000000E-01
  8.00000000E-01  8.50000000E-01  8.50000000E-01  8.50000000E-01  8.00000000E-01
  8.50000000E-01  8.50000000E-01  8.50000000E-01  8.00000000E-01  8.50000000E-01
  8.50000000E-01  8.50000000E-01  8.00000000E-01  8.50000000E-01  8.50000000E-01
  8.50000000E-01  8.00000000E-01  8.50000000E-01  8.50000000E-01  8.50000000E-01
  8.00000000E-01  8.50000000E-01  8.50000000E-01  8.50000000E-01  8.00000000E-01
  8.50000000E-01  8.50000000E-01  8.50000000E-01  8.00000000E-01  8.50000000E-01
  8.50000000E-01  8.50000000E-01  8.00000000E-01  8.50000000E-01  8.50000000E-01
  8.50000000E-01  8.00000000E-01  8.50000000E-01  8.50000000E-01  8.50000000E-01
  8.00000000E-01  8.50000000E-01  8.50000000E-01  8.50000000E-01  8.00000000E-01
  8.50000000E-01  8.50000000E-01  8.50000000E-01  8.00000000E-01  8.50000000E-01
  8.50000000E-01  8.50000000E-01  8.00000000E-01  8.50000000E-01  8.50000000E-01
  8.50000000E-01  8.00000000E-01  8.50000000E-01  8.50000000E-01  8.50000000E-01
  8.00000000E-01  8.50000000E-01  8.50000000E-01  8.50000000E-01  8.00000000E-01
  8.50000000E-01  8.50000000E-01  8.50000000E-01  8.00000000E-01  8.50000000E-01
  8.50000000E-01  8.50000000E-01  8.00000000E-01  8.50000000E-01  8.50000000E-01
  8.50000000E-01  8.00000000E-01  8.50000000E-01  8.50000000E-01  8.50000000E-01
  8.00000000E-01  8.50000000E-01  8.50000000E-01  8.50000000E-01  8.00000000E-01
  8.50000000E-01  8.50000000E-01  8.50000000E-01  8.00000000E-01  8.50000000E-01
  8.50000000E-01  8.50000000E-01  8.00000000E-01  8.50000000E-01  8.50000000E-01
  8.50000000E-01  8.00000000E-01  8.50000000E-01  8.50000000E-01  8.50000000E-01
  8.00000000E-01  8.50000000E-01  8.50000000E-01  8.50000000E-01  8.00000000E-01
  8.50000000E-01  8.50000000E-01  8.50000000E-01  8.00000000E-01  8.50000000E-01
  8.50000000E-01  8.50000000E-01  8.00000000E-01  8.50000000E-01  8.50000000E-01
  8.50000000E-01  8.00000000E-01  8.50000000E-01  8.50000000E-01  8.50000000E-01
  8.00000000E-01  8.50000000E-01  8.50000000E-01  8.50000000E-01  8.00000000E-01
  8.50000000E-01  8.50000000E-01  8.50000000E-01  8.00000000E-01  8.50000000E-01
  8.50000000E-01  8.50000000E-01  8.00000000E-01  8.50000000E-01  8.50000000E-01
  8.50000000E-01  8.00000000E-01  8.50000000E-01  8.50000000E-01  8.50000000E-01
  8.00000000E-01  8.50000000E-01  8.50000000E-01  8.50000000E-01  8.00000000E-01
  8.50000000E-01  8.50000000E-01  8.50000000E-01  8.00000000E-01  8.50000000E-01
  8.50000000E-01  8.50000000E-01  8.00000000E-01  8.50000000E-01  8.50000000E-01
  8.50000000E-01  8.00000000E-01  8.50000000E-01  8.50000000E-01  8.50000000E-01
  8.00000000E-01  8.50000000E-01  8.50000000E-01  8.50000000E-01  8.00000000E-01
  8.50000000E-01  8.50000000E-01  8.50000000E-01  8.00000000E-01  8.50000000E-01
  8.50000000E-01  8.50000000E-01  8.00000000E-01  8.50000000E-01  8.50000000E-01
  8.50000000E-01  8.00000000E-01  8.50000000E-01  8.50000000E-01  8.50000000E-01
  8.00000000E-01  8.50000000E-01  8.50000000E-01  8.50000000E-01  8.00000000E-01
  8.50000000E-01  8.50000000E-01  8.50000000E-01  8.00000000E-01  8.50000000E-01
  8.50000000E-01  8.50000000E-01  8.00000000E-01  8.50000000E-01  8.50000000E-01
  8.50000000E-01  8.00000000E-01  8.50000000E-01  8.50000000E-01  8.50000000E-01
  8.00000000E-01  8.50000000E-01  8.50000000E-01  8.50000000E-01  8.00000000E-01
  8.50000000E-01  8.50000000E-01  8.50000000E-01  8.00000000E-01  8.50000000E-01
  8.50000000E-01  8.50000000E-01  8.00000000E-01  8.50000000E-01  8.50000000E-01
  8.50000000E-01  8.00000000E-01  8.50000000E-01  8.50000000E-01  8.50000000E-01
  8.00000000E-01  8.50000000E-01  8.50000000E-01  8.50000000E-01  8.00000000E-01
  8.50000000E-01  8.50000000E-01  8.50000000E-01  8.00000000E-01  8.50000000E-01
  8.50000000E-01  8.50000000E-01  8.00000000E-01  8.50000000E-01  8.50000000E-01
  8.50000000E-01  8.00000000E-01  8.50000000E-01  8.50000000E-01  8.50000000E-01
  8.00000000E-01  8.50000000E-01  8.50000000E-01  8.50000000E-01  8.00000000E-01
  8.50000000E-01  8.50000000E-01  8.50000000E-01  8.00000000E-01  8.50000000E-01
  8.50000000E-01  8.50000000E-01  8.00000000E-01  8.50000000E-01  8.50000000E-01
  8.50000000E-01  8.00000000E-01  8.50000000E-01  8.50000000E-01  8.50000000E-01
  8.00000000E-01  8.50000000E-01  8.50000000E-01  8.50000000E-01  8.00000000E-01
  8.50000000E-01  8.50000000E-01  8.50000000E-01  8.00000000E-01  8.50000000E-01
  8.50000000E-01  8.50000000E-01  8.00000000E-01  8.50000000E-01  8.50000000E-01
  8.50000000E-01  8.00000000E-01  8.50000000E-01  8.50000000E-01  8.50000000E-01
  8.00000000E-01  8.50000000E-01  8.50000000E-01  8.50000000E-01  8.00000000E-01
  8.50000000E-01  8.50000000E-01  8.50000000E-01  8.00000000E-01  8.50000000E-01
  8.50000000E-01  8.50000000E-01  8.00000000E-01  8.50000000E-01  8.50000000E-01
  8.50000000E-01  8.00000000E-01  8.50000000E-01  8.50000000E-01  8.50000000E-01
  8.00000000E-01  8.50000000E-01  8.50000000E-01  8.50000000E-01  8.00000000E-01
  8.50000000E-01  8.50000000E-01  8.50000000E-01  8.00000000E-01  8.50000000E-01
  8.50000000E-01  8.50000000E-01  8.00000000E-01  8.50000000E-01  8.50000000E-01
  8.50000000E-01  8.00000000E-01  8.50000000E-01  8.50000000E-01  8.50000000E-01
  8.00000000E-01  8.50000000E-01  8.50000000E-01  8.50000000E-01  8.00000000E-01
  8.50000000E-01  8.50000000E-01  8.50000000E-01  8.00000000E-01  8.50000000E-01
  8.50000000E-01  8.50000000E-01  8.00000000E-01  8.50000000E-01  8.50000000E-01
  8.50000000E-01  8.00000000E-01  8.50000000E-01  8.50000000E-01  8.50000000E-01
  8.00000000E-01  8.50000000E-01  8.50000000E-01  8.50000000E-01  8.00000000E-01
  8.50000000E-01  8.50000000E-01  8.50000000E-01  8.00000000E-01  8.50000000E-01
  8.50000000E-01  8.50000000E-01  8.00000000E-01  8.50000000E-01  8.50000000E-01
  8.50000000E-01  8.00000000E-01  8.50000000E-01  8.50000000E-01  8.50000000E-01
  8.00000000E-01  8.50000000E-01  8.50000000E-01  8.50000000E-01  8.00000000E-01
  8.50000000E-01  8.50000000E-01  8.50000000E-01  8.00000000E-01  8.50000000E-01
  8.50000000E-01  8.50000000E-01  8.00000000E-01  8.50000000E-01  8.50000000E-01
  8.50000000E-01  8.00000000E-01  8.50000000E-01  8.50000000E-01  8.50000000E-01
  8.00000000E-01  8.50000000E-01  8.50000000E-01  8.50000000E-01  8.00000000E-01
  8.50000000E-01  8.50000000E-01  8.50000000E-01  8.00000000E-01  8.50000000E-01
  8.50000000E-01  8.50000000E-01  8.00000000E-01  8.50000000E-01  8.50000000E-01
  8.50000000E-01  8.00000000E-01  8.50000000E-01  8.50000000E-01  8.50000000E-01
  8.00000000E-01  8.50000000E-01  8.50000000E-01  8.50000000E-01  8.00000000E-01
  8.50000000E-01  8.50000000E-01  8.50000000E-01  8.00000000E-01  8.50000000E-01
  8.50000000E-01  8.50000000E-01  8.00000000E-01  8.50000000E-01  8.50000000E-01
  8.50000000E-01  8.00000000E-01  8.50000000E-01  8.50000000E-01  8.50000000E-01
  8.00000000E-01  8.50000000E-01  8.50000000E-01  8.50000000E-01  8.00000000E-01
  8.50000000E-01  8.50000000E-01  8.50000000E-01  8.00000000E-01  8.50000000E-01
  8.50000000E-01  8.50000000E-01  8.00000000E-01  8.50000000E-01  8.50000000E-01
  8.50000000E-01  8.00000000E-01  8.50000000E-01  8.50000000E-01  8.50000000E-01
  8.00000000E-01  8.50000000E-01  8.50000000E-01  8.50000000E-01  8.00000000E-01
  8.50000000E-01  8.50000000E-01  8.50000000E-01  8.00000000E-01  8.50000000E-01
  8.50000000E-01  8.50000000E-01  8.00000000E-01  8.50000000E-01  8.50000000E-01
  8.50000000E-01  8.00000000E-01  8.50000000E-01  8.50000000E-01  8.50000000E-01
  8.00000000E-01  8.50000000E-01  8.50000000E-01  8.50000000E-01  8.00000000E-01
  8.50000000E-01  8.50000000E-01  8.50000000E-01  8.00000000E-01  8.50000000E-01
  8.50000000E-01  8.50000000E-01  8.00000000E-01  8.50000000E-01  8.50000000E-01
  8.50000000E-01  8.00000000E-01  8.50000000E-01  8.50000000E-01  8.50000000E-01
  8.00000000E-01  8.50000000E-01  8.50000000E-01  8.50000000E-01  8.00000000E-01
  8.50000000E-01  8.50000000E-01  8.50000000E-01  8.00000000E-01  8.50000000E-01
  8.50000000E-01  8.50000000E-01  8.00000000E-01  8.50000000E-01  8.50000000E-01
  8.50000000E-01  8.00000000E-01  8.50000000E-01  8.50000000E-01  8.50000000E-01
  8.00000000E-01  8.50000000E-01  8.50000000E-01  8.50000000E-01  8.00000000E-01
  8.50000000E-01  8.50000000E-01  8.50000000E-01  8.00000000E-01  8.50000000E-01
  8.50000000E-01  8.50000000E-01  8.00000000E-01  8.50000000E-01  8.50000000E-01
  8.50000000E-01  8.00000000E-01  8.50000000E-01  8.50000000E-01  8.50000000E-01
  8.00000000E-01  8.50000000E-01  8.50000000E-01  8.50000000E-01  8.00000000E-01
  8.50000000E-01  8.50000000E-01  8.50000000E-01  8.00000000E-01  8.50000000E-01
  8.50000000E-01  8.50000000E-01  8.00000000E-01  8.50000000E-01  8.50000000E-01
  8.50000000E-01  8.00000000E-01  8.50000000E-01  8.50000000E-01  8.50000000E-01
  8.00000000E-01  8.50000000E-01  8.50000000E-01  8.50000000E-01  8.00000000E-01
  8.50000000E-01  8.50000000E-01  8.50000000E-01  8.00000000E-01  8.50000000E-01
  8.50000000E-01  8.50000000E-01  8.00000000E-01  8.50000000E-01  8.50000000E-01
  8.50000000E-01  8.00000000E-01  8.50000000E-01  8.50000000E-01  8.50000000E-01
  8.00000000E-01  8.50000000E-01  8.50000000E-01  8.50000000E-01  8.00000000E-01
  8.50000000E-01  8.50000000E-01  8.50000000E-01  8.00000000E-01  8.50000000E-01
  8.50000000E-01  8.50000000E-01  8.00000000E-01  8.50000000E-01  8.50000000E-01
  8.50000000E-01  8.00000000E-01  8.50000000E-01  8.50000000E-01  8.50000000E-01
  8.00000000E-01  8.50000000E-01  8.50000000E-01  8.50000000E-01  8.00000000E-01
  8.50000000E-01  8.50000000E-01  8.50000000E-01  8.00000000E-01  8.50000000E-01
  8.50000000E-01  8.50000000E-01  8.00000000E-01  8.50000000E-01  8.50000000E-01
  8.50000000E-01  8.00000000E-01  8.50000000E-01  8.50000000E-01  8.50000000E-01
  8.00000000E-01  8.50000000E-01  8.50000000E-01  8.50000000E-01  8.00000000E-01
  8.50000000E-01  8.50000000E-01  8.50000000E-01  8.00000000E-01  8.50000000E-01
  8.50000000E-01  8.50000000E-01  8.00000000E-01  8.50000000E-01  8.50000000E-01
  8.50000000E-01  8.00000000E-01  8.50000000E-01  8.50000000E-01  8.50000000E-01
  8.00000000E-01  8.50000000E-01  8.50000000E-01  8.50000000E-01  8.00000000E-01
  8.50000000E-01  8.50000000E-01  8.50000000E-01  8.00000000E-01  8.50000000E-01
  8.50000000E-01  8.50000000E-01  8.00000000E-01  8.50000000E-01  8.50000000E-01
  8.50000000E-01  8.00000000E-01  8.50000000E-01  8.50000000E-01  8.50000000E-01
  8.00000000E-01  8.50000000E-01  8.50000000E-01  8.50000000E-01  8.00000000E-01
  8.50000000E-01  8.50000000E-01  8.50000000E-01  8.00000000E-01  8.50000000E-01
  8.50000000E-01  8.50000000E-01  8.00000000E-01  8.50000000E-01  8.50000000E-01
  8.50000000E-01  8.00000000E-01  8.50000000E-01  8.50000000E-01  8.50000000E-01
  8.00000000E-01  8.50000000E-01  8.50000000E-01  8.50000000E-01  8.00000000E-01
  8.50000000E-01  8.50000000E-01  8.50000000E-01  8.00000000E-01  8.50000000E-01
  8.50000000E-01  8.50000000E-01  8.00000000E-01  8.50000000E-01  8.50000000E-01
  8.50000000E-01  8.00000000E-01  8.50000000E-01  8.50000000E-01  8.50000000E-01
  8.00000000E-01  8.50000000E-01  8.50000000E-01  8.50000000E-01  8.00000000E-01
  8.50000000E-01  8.50000000E-01  8.50000000E-01  8.00000000E-01  8.50000000E-01
  8.50000000E-01  8.50000000E-01  8.00000000E-01  8.50000000E-01  8.50000000E-01
  8.50000000E-01  8.00000000E-01  8.50000000E-01  8.50000000E-01  8.50000000E-01
  8.00000000E-01  8.50000000E-01  8.50000000E-01  8.50000000E-01  8.00000000E-01
  8.50000000E-01  8.50000000E-01  8.50000000E-01  8.00000000E-01  8.50000000E-01
  8.50000000E-01  8.50000000E-01  8.00000000E-01  8.50000000E-01  8.50000000E-01
  8.50000000E-01  8.00000000E-01  8.50000000E-01  8.50000000E-01  8.50000000E-01
  8.00000000E-01  8.50000000E-01  8.50000000E-01  8.50000000E-01  8.00000000E-01
  8.50000000E-01  8.50000000E-01  8.50000000E-01  8.00000000E-01  8.50000000E-01
  8.50000000E-01  8.50000000E-01  8.00000000E-01  8.50000000E-01  8.50000000E-01
  8.50000000E-01  8.00000000E-01  8.50000000E-01  8.50000000E-01  8.50000000E-01
  8.00000000E-01  8.50000000E-01  8.50000000E-01  8.50000000E-01  8.00000000E-01
  8.50000000E-01  8.50000000E-01  8.50000000E-01  8.00000000E-01  8.50000000E-01
  8.50000000E-01  8.50000000E-01  8.00000000E-01  8.50000000E-01  8.50000000E-01
  8.50000000E-01  8.00000000E-01  8.50000000E-01  8.50000000E-01  8.50000000E-01
  8.00000000E-01  8.50000000E-01  8.50000000E-01  8.50000000E-01  8.00000000E-01
  8.50000000E-01  8.50000000E-01  8.50000000E-01  8.00000000E-01  8.50000000E-01
  8.50000000E-01  8.50000000E-01  8.00000000E-01  8.50000000E-01  8.50000000E-01
  8.50000000E-01  8.00000000E-01  8.50000000E-01  8.50000000E-01  8.50000000E-01
  8.00000000E-01  8.50000000E-01  8.50000000E-01  8.50000000E-01  8.00000000E-01
  8.50000000E-01  8.50000000E-01  8.50000000E-01  8.00000000E-01  8.50000000E-01
  8.50000000E-01  8.50000000E-01  8.00000000E-01  8.50000000E-01  8.50000000E-01
  8.50000000E-01  8.00000000E-01  8.50000000E-01  8.50000000E-01  8.50000000E-01
  8.00000000E-01  8.50000000E-01  8.50000000E-01  8.50000000E-01  8.00000000E-01
  8.50000000E-01  8.50000000E-01  8.50000000E-01  8.00000000E-01  8.50000000E-01
  8.50000000E-01  8.50000000E-01  8.00000000E-01  8.50000000E-01  8.50000000E-01
  8.50000000E-01  8.00000000E-01  8.50000000E-01  8.50000000E-01  8.50000000E-01
  8.00000000E-01  8.50000000E-01  8.50000000E-01  8.50000000E-01  8.00000000E-01
  8.50000000E-01  8.50000000E-01  8.50000000E-01  8.00000000E-01  8.50000000E-01
  8.50000000E-01  8.50000000E-01  8.00000000E-01  8.50000000E-01  8.50000000E-01
  8.50000000E-01  8.00000000E-01  8.50000000E-01  8.50000000E-01  8.50000000E-01
  8.00000000E-01  8.50000000E-01  8.50000000E-01  8.50000000E-01  8.00000000E-01
  8.50000000E-01  8.50000000E-01  8.50000000E-01  8.00000000E-01  8.50000000E-01
  8.50000000E-01  8.50000000E-01  8.00000000E-01  8.50000000E-01  8.50000000E-01
  8.50000000E-01  8.00000000E-01  8.50000000E-01  8.50000000E-01  8.50000000E-01
  8.00000000E-01  8.50000000E-01  8.50000000E-01  8.50000000E-01  8.00000000E-01
  8.50000000E-01  8.50000000E-01  8.50000000E-01  8.00000000E-01  8.50000000E-01
  8.50000000E-01  8.50000000E-01  8.00000000E-01  8.50000000E-01  8.50000000E-01
  8.50000000E-01  8.00000000E-01  8.50000000E-01  8.50000000E-01  8.50000000E-01
  8.00000000E-01  8.50000000E-01  8.50000000E-01  8.50000000E-01  8.00000000E-01
  8.50000000E-01  8.50000000E-01  8.50000000E-01  8.00000000E-01  8.50000000E-01
  8.50000000E-01  8.50000000E-01  8.00000000E-01  8.50000000E-01  8.50000000E-01
  8.50000000E-01  8.00000000E-01  8.50000000E-01  8.50000000E-01  8.50000000E-01
  8.00000000E-01  8.50000000E-01  8.50000000E-01  8.50000000E-01  8.00000000E-01
  8.50000000E-01  8.50000000E-01  8.50000000E-01  8.00000000E-01  8.50000000E-01
  8.50000000E-01  8.50000000E-01  8.00000000E-01  8.50000000E-01  8.50000000E-01
  8.50000000E-01  8.00000000E-01  8.50000000E-01  8.50000000E-01  8.50000000E-01
  8.00000000E-01  8.50000000E-01  8.50000000E-01  8.50000000E-01  8.00000000E-01
  8.50000000E-01  8.50000000E-01  8.50000000E-01  8.00000000E-01  8.50000000E-01
  8.50000000E-01  8.50000000E-01  8.00000000E-01  8.50000000E-01  8.50000000E-01
  8.50000000E-01  8.00000000E-01  8.50000000E-01  8.50000000E-01  8.50000000E-01
  8.00000000E-01  8.50000000E-01  8.50000000E-01  8.50000000E-01  8.00000000E-01
  8.50000000E-01  8.50000000E-01  8.50000000E-01  8.00000000E-01  8.50000000E-01
  8.50000000E-01  8.50000000E-01  8.00000000E-01  8.50000000E-01  8.50000000E-01
  8.50000000E-01  8.00000000E-01  8.50000000E-01  8.50000000E-01  8.50000000E-01
  8.00000000E-01  8.50000000E-01  8.50000000E-01  8.50000000E-01  8.00000000E-01
  8.50000000E-01  8.50000000E-01  8.50000000E-01  8.00000000E-01  8.50000000E-01
  8.50000000E-01  8.50000000E-01  8.00000000E-01  8.50000000E-01  8.50000000E-01
  8.50000000E-01  8.00000000E-01  8.50000000E-01  8.50000000E-01  8.50000000E-01
  8.00000000E-01  8.50000000E-01  8.50000000E-01  8.50000000E-01  8.00000000E-01
  8.50000000E-01  8.50000000E-01  8.50000000E-01  8.00000000E-01  8.50000000E-01
  8.50000000E-01  8.50000000E-01  8.00000000E-01  8.50000000E-01  8.50000000E-01
  8.50000000E-01  8.00000000E-01  8.50000000E-01  8.50000000E-01  8.50000000E-01
  8.00000000E-01  8.50000000E-01  8.50000000E-01  8.50000000E-01  8.00000000E-01
  8.50000000E-01  8.50000000E-01  8.50000000E-01  8.00000000E-01  8.50000000E-01
  8.50000000E-01  8.50000000E-01  8.00000000E-01  8.50000000E-01  8.50000000E-01
  8.50000000E-01  8.00000000E-01  8.50000000E-01  8.50000000E-01  8.50000000E-01
  8.00000000E-01  8.50000000E-01  8.50000000E-01  8.50000000E-01  8.00000000E-01
  8.50000000E-01  8.50000000E-01  8.50000000E-01  8.00000000E-01  8.50000000E-01
  8.50000000E-01  8.50000000E-01  8.00000000E-01  8.50000000E-01  8.50000000E-01
  8.50000000E-01  8.00000000E-01  8.50000000E-01  8.50000000E-01  8.50000000E-01
  8.00000000E-01  8.50000000E-01  8.50000000E-01  8.50000000E-01  8.00000000E-01
  8.50000000E-01  8.50000000E-01  8.50000000E-01  8.00000000E-01  8.50000000E-01
  8.50000000E-01  8.50000000E-01  8.00000000E-01  8.50000000E-01  8.50000000E-01
  8.50000000E-01  8.00000000E-01  8.50000000E-01  8.50000000E-01  8.50000000E-01
  8.00000000E-01  8.50000000E-01  8.50000000E-01  8.50000000E-01  8.00000000E-01
  8.50000000E-01  8.50000000E-01  8.50000000E-01  8.00000000E-01  8.50000000E-01
  8.50000000E-01  8.50000000E-01  8.00000000E-01  8.50000000E-01  8.50000000E-01
  8.50000000E-01  8.00000000E-01  8.50000000E-01  8.50000000E-01  8.50000000E-01
  8.00000000E-01  8.50000000E-01  8.50000000E-01  8.50000000E-01  8.00000000E-01
  8.50000000E-01  8.50000000E-01  8.50000000E-01  8.00000000E-01  8.50000000E-01
  8.50000000E-01  8.50000000E-01  8.00000000E-01  8.50000000E-01  8.50000000E-01
  8.50000000E-01  8.00000000E-01  8.50000000E-01  8.50000000E-01  8.50000000E-01
  8.00000000E-01  8.50000000E-01  8.50000000E-01  8.50000000E-01  8.00000000E-01
  8.50000000E-01  8.50000000E-01  8.50000000E-01  8.00000000E-01  8.50000000E-01
  8.50000000E-01  8.50000000E-01  8.00000000E-01  8.50000000E-01  8.50000000E-01
  8.50000000E-01  8.00000000E-01  8.50000000E-01  8.50000000E-01  8.50000000E-01
  8.00000000E-01  8.50000000E-01  8.50000000E-01  8.50000000E-01  8.00000000E-01
  8.50000000E-01  8.50000000E-01  8.50000000E-01  8.00000000E-01  8.50000000E-01
  8.50000000E-01  8.50000000E-01  8.00000000E-01  8.50000000E-01  8.50000000E-01
  8.50000000E-01  8.00000000E-01  8.50000000E-01  8.50000000E-01  8.50000000E-01
  8.00000000E-01  8.50000000E-01  8.50000000E-01  8.50000000E-01  8.00000000E-01
  8.50000000E-01  8.50000000E-01  8.50000000E-01  8.00000000E-01  8.50000000E-01
  8.50000000E-01  8.50000000E-01  8.00000000E-01  8.50000000E-01  8.50000000E-01
  8.50000000E-01  8.00000000E-01  8.50000000E-01  8.50000000E-01  8.50000000E-01
  8.00000000E-01  8.50000000E-01  8.50000000E-01  8.50000000E-01  8.00000000E-01
  8.50000000E-01  8.50000000E-01  8.50000000E-01  8.00000000E-01  8.50000000E-01
  8.50000000E-01  8.50000000E-01  8.00000000E-01  8.50000000E-01  8.50000000E-01
  8.50000000E-01  8.00000000E-01  8.50000000E-01  8.50000000E-01  8.50000000E-01
  8.00000000E-01  8.50000000E-01  8.50000000E-01  8.50000000E-01  8.00000000E-01
  8.50000000E-01  8.50000000E-01  8.50000000E-01  8.00000000E-01  8.50000000E-01
  8.50000000E-01  8.50000000E-01  8.00000000E-01  8.50000000E-01  8.50000000E-01
  8.50000000E-01  8.00000000E-01  8.50000000E-01  8.50000000E-01  8.50000000E-01
  8.00000000E-01  8.50000000E-01  8.50000000E-01  8.50000000E-01  8.00000000E-01
  8.50000000E-01  8.50000000E-01  8.50000000E-01  8.00000000E-01  8.50000000E-01
  8.50000000E-01  8.50000000E-01  8.00000000E-01  8.50000000E-01  8.50000000E-01
  8.50000000E-01  8.00000000E-01  8.50000000E-01  8.50000000E-01  8.50000000E-01
  8.00000000E-01  8.50000000E-01  8.50000000E-01  8.50000000E-01  8.00000000E-01
  8.50000000E-01  8.50000000E-01  8.50000000E-01  8.00000000E-01  8.50000000E-01
  8.50000000E-01  8.50000000E-01  8.00000000E-01  8.50000000E-01  8.50000000E-01
  8.50000000E-01  8.00000000E-01  8.50000000E-01  8.50000000E-01  8.50000000E-01
  8.00000000E-01  8.50000000E-01  8.50000000E-01  8.50000000E-01  8.00000000E-01
  8.50000000E-01  8.50000000E-01  8.50000000E-01  8.00000000E-01  8.50000000E-01
  8.50000000E-01  8.50000000E-01  8.00000000E-01  8.50000000E-01  8.50000000E-01
  8.50000000E-01  8.00000000E-01  8.50000000E-01  8.50000000E-01  8.50000000E-01
  8.00000000E-01  8.50000000E-01  8.50000000E-01  8.50000000E-01  8.00000000E-01
  8.50000000E-01  8.50000000E-01  8.50000000E-01  8.00000000E-01  8.50000000E-01
  8.50000000E-01  8.50000000E-01  8.00000000E-01  8.50000000E-01  8.50000000E-01
  8.50000000E-01  8.00000000E-01  8.50000000E-01  8.50000000E-01  8.50000000E-01
  8.00000000E-01  8.50000000E-01  8.50000000E-01  8.50000000E-01  8.00000000E-01
  8.50000000E-01  8.50000000E-01  8.50000000E-01  8.00000000E-01  8.50000000E-01
  8.50000000E-01  8.50000000E-01  8.00000000E-01  8.50000000E-01  8.50000000E-01
  8.50000000E-01  8.00000000E-01  8.50000000E-01  8.50000000E-01  8.50000000E-01
  8.00000000E-01  8.50000000E-01  8.50000000E-01  8.50000000E-01  8.00000000E-01
  8.50000000E-01  8.50000000E-01  8.50000000E-01  8.00000000E-01  8.50000000E-01
  8.50000000E-01  8.50000000E-01  8.00000000E-01  8.50000000E-01  8.50000000E-01
  8.50000000E-01  8.00000000E-01  8.50000000E-01  8.50000000E-01  8.50000000E-01
  8.00000000E-01  8.50000000E-01  8.50000000E-01  8.50000000E-01  8.00000000E-01
  8.50000000E-01  8.50000000E-01  8.50000000E-01  8.00000000E-01  8.50000000E-01
  8.50000000E-01  8.50000000E-01  8.00000000E-01  8.50000000E-01  8.50000000E-01
  8.50000000E-01  8.00000000E-01  8.50000000E-01  8.50000000E-01  8.50000000E-01
  8.00000000E-01  8.50000000E-01  8.50000000E-01  8.50000000E-01  8.00000000E-01
  8.50000000E-01  8.50000000E-01  8.50000000E-01  8.00000000E-01  8.50000000E-01
  8.50000000E-01  8.50000000E-01  8.00000000E-01  8.50000000E-01  8.50000000E-01
  8.50000000E-01  8.00000000E-01  8.50000000E-01  8.50000000E-01  8.50000000E-01
  8.00000000E-01  8.50000000E-01  8.50000000E-01  8.50000000E-01  8.00000000E-01
  8.50000000E-01  8.50000000E-01  8.50000000E-01  8.00000000E-01  8.50000000E-01
  8.50000000E-01  8.50000000E-01  8.00000000E-01  8.50000000E-01  8.50000000E-01
  8.50000000E-01  8.00000000E-01  8.50000000E-01  8.50000000E-01  8.50000000E-01
  8.00000000E-01  8.50000000E-01  8.50000000E-01  8.50000000E-01  8.00000000E-01
  8.50000000E-01  8.50000000E-01  8.50000000E-01  8.00000000E-01  8.50000000E-01
  8.50000000E-01  8.50000000E-01  8.00000000E-01  8.50000000E-01  8.50000000E-01
  8.50000000E-01  8.00000000E-01  8.50000000E-01  8.50000000E-01  8.50000000E-01
  8.00000000E-01  8.50000000E-01  8.50000000E-01  8.50000000E-01  8.00000000E-01
  8.50000000E-01  8.50000000E-01  8.50000000E-01  8.00000000E-01  8.50000000E-01
  8.50000000E-01  8.50000000E-01  8.00000000E-01  8.50000000E-01  8.50000000E-01
  8.50000000E-01  8.00000000E-01  8.50000000E-01  8.50000000E-01  8.50000000E-01
  8.00000000E-01  8.50000000E-01  8.50000000E-01  8.50000000E-01  8.00000000E-01
  8.50000000E-01  8.50000000E-01  8.50000000E-01  8.00000000E-01  8.50000000E-01
  8.50000000E-01  8.50000000E-01  8.00000000E-01  8.50000000E-01  8.50000000E-01
  8.50000000E-01  8.00000000E-01  8.50000000E-01  8.50000000E-01  8.50000000E-01
  8.00000000E-01  8.50000000E-01  8.50000000E-01  8.50000000E-01  8.00000000E-01
  8.50000000E-01  8.50000000E-01  8.50000000E-01  8.00000000E-01  8.50000000E-01
  8.50000000E-01  8.50000000E-01  8.00000000E-01  8.50000000E-01  8.50000000E-01
  8.50000000E-01  8.00000000E-01  8.50000000E-01  8.50000000E-01  8.50000000E-01
  8.00000000E-01  8.50000000E-01  8.50000000E-01  8.50000000E-01  8.00000000E-01
  8.50000000E-01  8.50000000E-01  8.50000000E-01  8.00000000E-01  8.50000000E-01
  8.50000000E-01  8.50000000E-01  8.00000000E-01  8.50000000E-01  8.50000000E-01
  8.50000000E-01  8.00000000E-01  8.50000000E-01  8.50000000E-01  8.50000000E-01
  8.00000000E-01  8.50000000E-01  8.50000000E-01  8.50000000E-01  8.00000000E-01
  8.50000000E-01  8.50000000E-01  8.50000000E-01  8.00000000E-01  8.50000000E-01
  8.50000000E-01  8.50000000E-01  8.00000000E-01  8.50000000E-01  8.50000000E-01
  8.50000000E-01  8.00000000E-01  8.50000000E-01  8.50000000E-01  8.50000000E-01
  8.00000000E-01  8.50000000E-01  8.50000000E-01  8.50000000E-01  8.00000000E-01
  8.50000000E-01  8.50000000E-01  8.50000000E-01  8.00000000E-01  8.50000000E-01
  8.50000000E-01  8.50000000E-01  8.00000000E-01  8.50000000E-01  8.50000000E-01
  8.50000000E-01  8.00000000E-01  8.50000000E-01  8.50000000E-01  8.50000000E-01
  8.00000000E-01  8.50000000E-01  8.50000000E-01  8.50000000E-01  8.00000000E-01
  8.50000000E-01  8.50000000E-01  8.50000000E-01  8.00000000E-01  8.50000000E-01
  8.50000000E-01  8.50000000E-01  8.00000000E-01  8.50000000E-01  8.50000000E-01
  8.50000000E-01  8.00000000E-01  8.50000000E-01  8.50000000E-01  8.50000000E-01
  8.00000000E-01  8.50000000E-01  8.50000000E-01  8.50000000E-01  8.00000000E-01
  8.50000000E-01  8.50000000E-01  8.50000000E-01  8.00000000E-01  8.50000000E-01
  8.50000000E-01  8.50000000E-01  8.00000000E-01  8.50000000E-01  8.50000000E-01
  8.50000000E-01  8.00000000E-01  8.50000000E-01  8.50000000E-01  8.50000000E-01
  8.00000000E-01  8.50000000E-01  8.50000000E-01  8.50000000E-01  8.00000000E-01
  8.50000000E-01  8.50000000E-01  8.50000000E-01  8.00000000E-01  8.50000000E-01
  8.50000000E-01  8.50000000E-01  8.00000000E-01  8.50000000E-01  8.50000000E-01
  8.50000000E-01  8.00000000E-01  8.50000000E-01  8.50000000E-01  8.50000000E-01
  8.00000000E-01  8.50000000E-01  8.50000000E-01  8.50000000E-01  8.00000000E-01
  8.50000000E-01  8.50000000E-01  8.50000000E-01  8.00000000E-01  8.50000000E-01
  8.50000000E-01  8.50000000E-01  8.00000000E-01  8.50000000E-01  8.50000000E-01
  8.50000000E-01  8.00000000E-01  8.50000000E-01  8.50000000E-01  8.50000000E-01
  8.00000000E-01  8.50000000E-01  8.50000000E-01  8.50000000E-01  8.00000000E-01
  8.50000000E-01  8.50000000E-01  8.50000000E-01  8.00000000E-01  8.50000000E-01
  8.50000000E-01  8.50000000E-01  8.00000000E-01  8.50000000E-01  8.50000000E-01
  8.50000000E-01  8.00000000E-01  8.50000000E-01  8.50000000E-01  8.50000000E-01
  8.00000000E-01  8.50000000E-01  8.50000000E-01  8.50000000E-01  8.00000000E-01
  8.50000000E-01  8.50000000E-01  8.50000000E-01  8.00000000E-01  8.50000000E-01
  8.50000000E-01  8.50000000E-01  8.00000000E-01  8.50000000E-01  8.50000000E-01
  8.50000000E-01  8.00000000E-01  8.50000000E-01  8.50000000E-01  8.50000000E-01
  8.00000000E-01  8.50000000E-01  8.50000000E-01  8.50000000E-01  8.00000000E-01
  8.50000000E-01  8.50000000E-01  8.50000000E-01  8.00000000E-01  8.50000000E-01
  8.50000000E-01  8.50000000E-01  8.00000000E-01  8.50000000E-01  8.50000000E-01
  8.50000000E-01  8.00000000E-01  8.50000000E-01  8.50000000E-01  8.50000000E-01
  8.00000000E-01  8.50000000E-01  8.50000000E-01  8.50000000E-01  8.00000000E-01
  8.50000000E-01  8.50000000E-01  8.50000000E-01  8.00000000E-01  8.50000000E-01
  8.50000000E-01  8.50000000E-01  8.00000000E-01  8.50000000E-01  8.50000000E-01
  8.50000000E-01  8.00000000E-01  8.50000000E-01  8.50000000E-01  8.50000000E-01
  8.00000000E-01  8.50000000E-01  8.50000000E-01  8.50000000E-01  8.00000000E-01
  8.50000000E-01  8.50000000E-01  8.50000000E-01  8.00000000E-01  8.50000000E-01
  8.50000000E-01  8.50000000E-01  8.00000000E-01  8.50000000E-01  8.50000000E-01
  8.50000000E-01  8.00000000E-01  8.50000000E-01  8.50000000E-01  8.50000000E-01
  8.00000000E-01  8.50000000E-01  8.50000000E-01  8.50000000E-01  8.00000000E-01
  8.50000000E-01  8.50000000E-01  8.50000000E-01  8.00000000E-01  8.50000000E-01
  8.50000000E-01  8.50000000E-01  8.00000000E-01  8.50000000E-01  8.50000000E-01
  8.50000000E-01  8.00000000E-01  8.50000000E-01  8.50000000E-01  8.50000000E-01
  8.00000000E-01  8.50000000E-01  8.50000000E-01  8.50000000E-01  8.00000000E-01
  8.50000000E-01  8.50000000E-01  8.50000000E-01  8.00000000E-01  8.50000000E-01
  8.50000000E-01  8.50000000E-01  8.00000000E-01  8.50000000E-01  8.50000000E-01
  8.50000000E-01  8.00000000E-01  8.50000000E-01  8.50000000E-01  8.50000000E-01
  8.00000000E-01  8.50000000E-01  8.50000000E-01  8.50000000E-01  8.00000000E-01
  8.50000000E-01  8.50000000E-01  8.50000000E-01  8.00000000E-01  8.50000000E-01
  8.50000000E-01  8.50000000E-01  8.00000000E-01  8.50000000E-01  8.50000000E-01
  8.50000000E-01  8.00000000E-01  8.50000000E-01  8.50000000E-01  8.50000000E-01
  8.00000000E-01  8.50000000E-01  8.50000000E-01  8.50000000E-01  8.00000000E-01
  8.50000000E-01  8.50000000E-01  8.50000000E-01  8.00000000E-01  8.50000000E-01
  8.50000000E-01  8.50000000E-01  8.00000000E-01  8.50000000E-01  8.50000000E-01
  8.50000000E-01  8.00000000E-01  8.50000000E-01  8.50000000E-01  8.50000000E-01
  8.00000000E-01  8.50000000E-01  8.50000000E-01  8.50000000E-01  8.00000000E-01
  8.50000000E-01  8.50000000E-01  8.50000000E-01  8.00000000E-01  8.50000000E-01
  8.50000000E-01  8.50000000E-01  8.00000000E-01  8.50000000E-01  8.50000000E-01
  8.50000000E-01  8.00000000E-01  8.50000000E-01  8.50000000E-01  8.50000000E-01
  8.00000000E-01  8.50000000E-01  8.50000000E-01  8.50000000E-01  8.00000000E-01
  8.50000000E-01  8.50000000E-01  8.50000000E-01  8.00000000E-01  8.50000000E-01
  8.50000000E-01  8.50000000E-01  8.00000000E-01  8.50000000E-01  8.50000000E-01
  8.50000000E-01  8.00000000E-01  8.50000000E-01  8.50000000E-01  8.50000000E-01
  8.00000000E-01  8.50000000E-01  8.50000000E-01  8.50000000E-01  8.00000000E-01
  8.50000000E-01  8.50000000E-01  8.50000000E-01  8.00000000E-01  8.50000000E-01
  8.50000000E-01  8.50000000E-01  8.00000000E-01  8.50000000E-01  8.50000000E-01
  8.50000000E-01  8.00000000E-01  8.50000000E-01  8.50000000E-01  8.50000000E-01
  8.00000000E-01  8.50000000E-01  8.50000000E-01  8.50000000E-01  8.00000000E-01
  8.50000000E-01  8.50000000E-01  8.50000000E-01  8.00000000E-01  8.50000000E-01
  8.50000000E-01  8.50000000E-01  8.00000000E-01  8.50000000E-01  8.50000000E-01
  8.50000000E-01  8.00000000E-01  8.50000000E-01  8.50000000E-01  8.50000000E-01
  8.00000000E-01  8.50000000E-01  8.50000000E-01  8.50000000E-01  8.00000000E-01
  8.50000000E-01  8.50000000E-01  8.50000000E-01  8.00000000E-01  8.50000000E-01
  8.50000000E-01  8.50000000E-01  8.00000000E-01  8.50000000E-01  8.50000000E-01
  8.50000000E-01  8.00000000E-01  8.50000000E-01  8.50000000E-01  8.50000000E-01
  8.00000000E-01  8.50000000E-01  8.50000000E-01  8.50000000E-01  8.00000000E-01
  8.50000000E-01  8.50000000E-01  8.50000000E-01  8.00000000E-01  8.50000000E-01
  8.50000000E-01  8.50000000E-01  8.00000000E-01  8.50000000E-01  8.50000000E-01
  8.50000000E-01  8.00000000E-01  8.50000000E-01  8.50000000E-01  8.50000000E-01
  8.00000000E-01  8.50000000E-01  8.50000000E-01  8.50000000E-01  8.00000000E-01
  8.50000000E-01  8.50000000E-01  8.50000000E-01  8.00000000E-01  8.50000000E-01
  8.50000000E-01  8.50000000E-01  8.00000000E-01  8.50000000E-01  8.50000000E-01
  8.50000000E-01  8.00000000E-01  8.50000000E-01  8.50000000E-01  8.50000000E-01
  8.00000000E-01  8.50000000E-01  8.50000000E-01  8.50000000E-01  8.00000000E-01
  8.50000000E-01  8.50000000E-01  8.50000000E-01  8.00000000E-01  8.50000000E-01
  8.50000000E-01  8.50000000E-01  8.00000000E-01  8.50000000E-01  8.50000000E-01
  8.50000000E-01  8.00000000E-01  8.50000000E-01  8.50000000E-01  8.50000000E-01
  8.00000000E-01  8.50000000E-01  8.50000000E-01  8.50000000E-01  8.00000000E-01
  8.50000000E-01  8.50000000E-01  8.50000000E-01  8.00000000E-01  8.50000000E-01
  8.50000000E-01  8.50000000E-01  8.00000000E-01  8.50000000E-01  8.50000000E-01
  8.50000000E-01  8.00000000E-01  8.50000000E-01  8.50000000E-01  8.50000000E-01
  8.00000000E-01  8.50000000E-01  8.50000000E-01  8.50000000E-01  8.00000000E-01
  8.50000000E-01  8.50000000E-01  8.50000000E-01  8.00000000E-01  8.50000000E-01
  8.50000000E-01  8.50000000E-01  8.00000000E-01  8.50000000E-01  8.50000000E-01
  8.50000000E-01  8.00000000E-01  8.50000000E-01  8.50000000E-01  8.50000000E-01
  8.00000000E-01  8.50000000E-01  8.50000000E-01  8.50000000E-01  8.00000000E-01
  8.50000000E-01  8.50000000E-01  8.50000000E-01  8.00000000E-01  8.50000000E-01
  8.50000000E-01  8.50000000E-01  8.00000000E-01  8.50000000E-01  8.50000000E-01
  8.50000000E-01  8.00000000E-01  8.50000000E-01  8.50000000E-01  8.50000000E-01
  8.00000000E-01  8.50000000E-01  8.50000000E-01  8.50000000E-01  8.00000000E-01
  8.50000000E-01  8.50000000E-01  8.50000000E-01  8.00000000E-01  8.50000000E-01
  8.50000000E-01  8.50000000E-01  8.00000000E-01  8.50000000E-01  8.50000000E-01
  8.50000000E-01  8.00000000E-01  8.50000000E-01  8.50000000E-01  8.50000000E-01
  8.00000000E-01  8.50000000E-01  8.50000000E-01  8.50000000E-01  8.00000000E-01
  8.50000000E-01  8.50000000E-01  8.50000000E-01  8.00000000E-01  8.50000000E-01
  8.50000000E-01  8.50000000E-01  8.00000000E-01  8.50000000E-01  8.50000000E-01
  8.50000000E-01  8.00000000E-01  8.50000000E-01  8.50000000E-01  8.50000000E-01
  8.00000000E-01  8.50000000E-01  8.50000000E-01  8.50000000E-01  8.00000000E-01
  8.50000000E-01  8.50000000E-01  8.50000000E-01  8.00000000E-01  8.50000000E-01
  8.50000000E-01  8.50000000E-01  8.00000000E-01  8.50000000E-01  8.50000000E-01
  8.50000000E-01  8.00000000E-01  8.50000000E-01  8.50000000E-01  8.50000000E-01
  8.00000000E-01  8.50000000E-01  8.50000000E-01  8.50000000E-01  8.00000000E-01
  8.50000000E-01  8.50000000E-01  8.50000000E-01  8.00000000E-01  8.50000000E-01
  8.50000000E-01  8.50000000E-01  8.00000000E-01  8.50000000E-01  8.50000000E-01
  8.50000000E-01  8.00000000E-01  8.50000000E-01  8.50000000E-01  8.50000000E-01
  8.00000000E-01  8.50000000E-01  8.50000000E-01  8.50000000E-01  8.00000000E-01
  8.50000000E-01  8.50000000E-01  8.50000000E-01  8.00000000E-01  8.50000000E-01
  8.50000000E-01  8.50000000E-01  8.00000000E-01  8.50000000E-01  8.50000000E-01
  8.50000000E-01  8.00000000E-01  8.50000000E-01  8.50000000E-01  8.50000000E-01
  8.00000000E-01  8.50000000E-01  8.50000000E-01  8.50000000E-01  8.00000000E-01
  8.50000000E-01  8.50000000E-01  8.50000000E-01  8.00000000E-01  8.50000000E-01
  8.50000000E-01  8.50000000E-01  8.00000000E-01  8.50000000E-01  8.50000000E-01
  8.50000000E-01  8.00000000E-01  8.50000000E-01  8.50000000E-01  8.50000000E-01
  8.00000000E-01  8.50000000E-01  8.50000000E-01  8.50000000E-01  8.00000000E-01
  8.50000000E-01  8.50000000E-01  8.50000000E-01  8.00000000E-01  8.50000000E-01
  8.50000000E-01  8.50000000E-01  8.00000000E-01  8.50000000E-01  8.50000000E-01
  8.50000000E-01  8.00000000E-01  8.50000000E-01  8.50000000E-01  8.50000000E-01
  8.00000000E-01  8.50000000E-01  8.50000000E-01  8.50000000E-01  8.00000000E-01
  8.50000000E-01  8.50000000E-01  8.50000000E-01  8.00000000E-01  8.50000000E-01
  8.50000000E-01  8.50000000E-01  8.00000000E-01  8.50000000E-01  8.50000000E-01
  8.50000000E-01  8.00000000E-01  8.50000000E-01  8.50000000E-01  8.50000000E-01
  8.00000000E-01  8.50000000E-01  8.50000000E-01  8.50000000E-01  8.00000000E-01
  8.50000000E-01  8.50000000E-01  8.50000000E-01  8.00000000E-01  8.50000000E-01
  8.50000000E-01  8.50000000E-01  8.00000000E-01  8.50000000E-01  8.50000000E-01
  8.50000000E-01  8.00000000E-01  8.50000000E-01  8.50000000E-01  8.50000000E-01
  8.00000000E-01  8.50000000E-01  8.50000000E-01  8.50000000E-01  8.00000000E-01
  8.50000000E-01  8.50000000E-01  8.50000000E-01  8.00000000E-01  8.50000000E-01
  8.50000000E-01  8.50000000E-01  8.00000000E-01  8.50000000E-01  8.50000000E-01
  8.50000000E-01  8.00000000E-01  8.50000000E-01  8.50000000E-01  8.50000000E-01
  8.00000000E-01  8.50000000E-01  8.50000000E-01  8.50000000E-01  8.00000000E-01
  8.50000000E-01  8.50000000E-01  8.50000000E-01  8.00000000E-01  8.50000000E-01
  8.50000000E-01  8.50000000E-01  8.00000000E-01  8.50000000E-01  8.50000000E-01
  8.50000000E-01  8.00000000E-01  8.50000000E-01  8.50000000E-01  8.50000000E-01
  8.00000000E-01  8.50000000E-01  8.50000000E-01  8.50000000E-01  8.00000000E-01
  8.50000000E-01  8.50000000E-01  8.50000000E-01  8.00000000E-01  8.50000000E-01
  8.50000000E-01  8.50000000E-01  8.00000000E-01  8.50000000E-01  8.50000000E-01
  8.50000000E-01  8.00000000E-01  8.50000000E-01  8.50000000E-01  8.50000000E-01
  8.00000000E-01  8.50000000E-01  8.50000000E-01  8.50000000E-01  8.00000000E-01
  8.50000000E-01  8.50000000E-01  8.50000000E-01  8.00000000E-01  8.50000000E-01
  8.50000000E-01  8.50000000E-01  8.00000000E-01  8.50000000E-01  8.50000000E-01
  8.50000000E-01  8.00000000E-01  8.50000000E-01  8.50000000E-01  8.50000000E-01
  8.00000000E-01  8.50000000E-01  8.50000000E-01  8.50000000E-01  8.00000000E-01
  8.50000000E-01  8.50000000E-01  8.50000000E-01  8.00000000E-01  8.50000000E-01
  8.50000000E-01  8.50000000E-01  8.00000000E-01  8.50000000E-01  8.50000000E-01
  8.50000000E-01  8.00000000E-01  8.50000000E-01  8.50000000E-01  8.50000000E-01
  8.00000000E-01  8.50000000E-01  8.50000000E-01  8.50000000E-01  8.00000000E-01
  8.50000000E-01  8.50000000E-01  8.50000000E-01  8.00000000E-01  8.50000000E-01
  8.50000000E-01  8.50000000E-01  8.00000000E-01  8.50000000E-01  8.50000000E-01
  8.50000000E-01  8.00000000E-01  8.50000000E-01  8.50000000E-01  8.50000000E-01
  8.00000000E-01  8.50000000E-01  8.50000000E-01  8.50000000E-01  8.00000000E-01
  8.50000000E-01  8.50000000E-01  8.50000000E-01  8.00000000E-01  8.50000000E-01
  8.50000000E-01  8.50000000E-01  8.00000000E-01  8.50000000E-01  8.50000000E-01
  8.50000000E-01  8.00000000E-01  8.50000000E-01  8.50000000E-01  8.50000000E-01
  8.00000000E-01  8.50000000E-01  8.50000000E-01  8.50000000E-01  8.00000000E-01
  8.50000000E-01  8.50000000E-01  8.50000000E-01  8.00000000E-01  8.50000000E-01
  8.50000000E-01  8.50000000E-01  8.00000000E-01  8.50000000E-01  8.50000000E-01
  8.50000000E-01  8.00000000E-01  8.50000000E-01  8.50000000E-01  8.50000000E-01
  8.00000000E-01  8.50000000E-01  8.50000000E-01  8.50000000E-01  8.00000000E-01
  8.50000000E-01  8.50000000E-01  8.50000000E-01  8.00000000E-01  8.50000000E-01
  8.50000000E-01  8.50000000E-01  8.00000000E-01  8.50000000E-01  8.50000000E-01
  8.50000000E-01  8.00000000E-01  8.50000000E-01  8.50000000E-01  8.50000000E-01
  8.00000000E-01  8.50000000E-01  8.50000000E-01  8.50000000E-01  8.00000000E-01
  8.50000000E-01  8.50000000E-01  8.50000000E-01  8.00000000E-01  8.50000000E-01
  8.50000000E-01  8.50000000E-01  8.00000000E-01  8.50000000E-01  8.50000000E-01
  8.50000000E-01  8.00000000E-01  8.50000000E-01  8.50000000E-01  8.50000000E-01
  8.00000000E-01  8.50000000E-01  8.50000000E-01  8.50000000E-01  8.00000000E-01
  8.50000000E-01  8.50000000E-01  8.50000000E-01  8.00000000E-01  8.50000000E-01
  8.50000000E-01  8.50000000E-01  8.00000000E-01  8.50000000E-01  8.50000000E-01
  8.50000000E-01  8.00000000E-01  8.50000000E-01  8.50000000E-01  8.50000000E-01
  8.00000000E-01  8.50000000E-01  8.50000000E-01  8.50000000E-01  8.00000000E-01
  8.50000000E-01  8.50000000E-01  8.50000000E-01  8.00000000E-01  8.50000000E-01
  8.50000000E-01  8.50000000E-01  8.00000000E-01  8.50000000E-01  8.50000000E-01
  8.50000000E-01  8.00000000E-01  8.50000000E-01  8.50000000E-01  8.50000000E-01
  8.00000000E-01  8.50000000E-01  8.50000000E-01  8.50000000E-01  8.00000000E-01
  8.50000000E-01  8.50000000E-01  8.50000000E-01  8.00000000E-01  8.50000000E-01
  8.50000000E-01  8.50000000E-01  8.00000000E-01  8.50000000E-01  8.50000000E-01
  8.50000000E-01  8.00000000E-01  8.50000000E-01  8.50000000E-01  8.50000000E-01
  8.00000000E-01  8.50000000E-01  8.50000000E-01  8.50000000E-01  8.00000000E-01
  8.50000000E-01  8.50000000E-01  8.50000000E-01  8.00000000E-01  8.50000000E-01
  8.50000000E-01  8.50000000E-01  8.00000000E-01  8.50000000E-01  8.50000000E-01
  8.50000000E-01  8.00000000E-01  8.50000000E-01  8.50000000E-01  8.50000000E-01
  8.00000000E-01  8.50000000E-01  8.50000000E-01  8.50000000E-01  8.00000000E-01
  8.50000000E-01  8.50000000E-01  8.50000000E-01  8.00000000E-01  8.50000000E-01
  8.50000000E-01  8.50000000E-01  8.00000000E-01  8.50000000E-01  8.50000000E-01
  8.50000000E-01  8.00000000E-01  8.50000000E-01  8.50000000E-01  8.50000000E-01
  8.00000000E-01  8.50000000E-01  8.50000000E-01  8.50000000E-01  8.00000000E-01
  8.50000000E-01  8.50000000E-01  8.50000000E-01  8.00000000E-01  8.50000000E-01
  8.50000000E-01  8.50000000E-01  8.00000000E-01  8.50000000E-01  8.50000000E-01
  8.50000000E-01  8.00000000E-01  8.50000000E-01  8.50000000E-01  8.50000000E-01
  8.00000000E-01  8.50000000E-01  8.50000000E-01  8.50000000E-01  8.00000000E-01
  8.50000000E-01  8.50000000E-01  8.50000000E-01  8.00000000E-01  8.50000000E-01
  8.50000000E-01  8.50000000E-01  8.00000000E-01  8.50000000E-01  8.50000000E-01
  8.50000000E-01  8.00000000E-01  8.50000000E-01  8.50000000E-01  8.50000000E-01
  8.00000000E-01  8.50000000E-01  8.50000000E-01  8.50000000E-01  8.00000000E-01
  8.50000000E-01  8.50000000E-01  8.50000000E-01  8.00000000E-01  8.50000000E-01
  8.50000000E-01  8.50000000E-01  8.00000000E-01  8.50000000E-01  8.50000000E-01
  8.50000000E-01  8.00000000E-01  8.50000000E-01  8.50000000E-01  8.50000000E-01
  8.00000000E-01  8.50000000E-01  8.50000000E-01  8.50000000E-01  8.00000000E-01
  8.50000000E-01  8.50000000E-01  8.50000000E-01  8.00000000E-01  8.50000000E-01
  8.50000000E-01  8.50000000E-01  8.00000000E-01  8.50000000E-01  8.50000000E-01
  8.50000000E-01  8.00000000E-01  8.50000000E-01  8.50000000E-01  8.50000000E-01
  8.00000000E-01  8.50000000E-01  8.50000000E-01  8.50000000E-01  8.00000000E-01
  8.50000000E-01  8.50000000E-01  8.50000000E-01  8.00000000E-01  8.50000000E-01
  8.50000000E-01  8.50000000E-01  8.00000000E-01  8.50000000E-01  8.50000000E-01
  8.50000000E-01  8.00000000E-01  8.50000000E-01  8.50000000E-01  8.50000000E-01
  8.00000000E-01  8.50000000E-01  8.50000000E-01  8.50000000E-01  8.00000000E-01
  8.50000000E-01  8.50000000E-01  8.50000000E-01  8.00000000E-01  8.50000000E-01
  8.50000000E-01  8.50000000E-01  8.00000000E-01  8.50000000E-01  8.50000000E-01
  8.50000000E-01  8.00000000E-01  8.50000000E-01  8.50000000E-01  8.50000000E-01
  8.00000000E-01  8.50000000E-01  8.50000000E-01  8.50000000E-01  8.00000000E-01
  8.50000000E-01  8.50000000E-01  8.50000000E-01  8.00000000E-01  8.50000000E-01
  8.50000000E-01  8.50000000E-01  8.00000000E-01  8.50000000E-01  8.50000000E-01
  8.50000000E-01  8.00000000E-01  8.50000000E-01  8.50000000E-01  8.50000000E-01
  8.00000000E-01  8.50000000E-01  8.50000000E-01  8.50000000E-01  8.00000000E-01
  8.50000000E-01  8.50000000E-01  8.50000000E-01  8.00000000E-01  8.50000000E-01
  8.50000000E-01  8.50000000E-01  8.00000000E-01  8.50000000E-01  8.50000000E-01
  8.50000000E-01  8.00000000E-01  8.50000000E-01  8.50000000E-01  8.50000000E-01
  8.00000000E-01  8.50000000E-01  8.50000000E-01  8.50000000E-01  8.00000000E-01
  8.50000000E-01  8.50000000E-01  8.50000000E-01  8.00000000E-01  8.50000000E-01
  8.50000000E-01  8.50000000E-01  8.00000000E-01  8.50000000E-01  8.50000000E-01
  8.50000000E-01  8.00000000E-01  8.50000000E-01  8.50000000E-01  8.50000000E-01
  8.00000000E-01  8.50000000E-01  8.50000000E-01  8.50000000E-01  8.00000000E-01
  8.50000000E-01  8.50000000E-01  8.50000000E-01  8.00000000E-01  8.50000000E-01
  8.50000000E-01  8.50000000E-01  8.00000000E-01  8.50000000E-01  8.50000000E-01
  8.50000000E-01  8.00000000E-01  8.50000000E-01  8.50000000E-01  8.50000000E-01
  8.00000000E-01  8.50000000E-01  8.50000000E-01  8.50000000E-01  8.00000000E-01
  8.50000000E-01  8.50000000E-01  8.50000000E-01  8.00000000E-01  8.50000000E-01
  8.50000000E-01  8.50000000E-01  8.00000000E-01  8.50000000E-01  8.50000000E-01
  8.50000000E-01  8.00000000E-01  8.50000000E-01  8.50000000E-01  8.50000000E-01
  8.00000000E-01  8.50000000E-01  8.50000000E-01  8.50000000E-01  8.00000000E-01
  8.50000000E-01  8.50000000E-01  8.50000000E-01  8.00000000E-01  8.50000000E-01
  8.50000000E-01  8.50000000E-01  8.00000000E-01  8.50000000E-01  8.50000000E-01
  8.50000000E-01  8.00000000E-01  8.50000000E-01  8.50000000E-01  8.50000000E-01
  8.00000000E-01  8.50000000E-01  8.50000000E-01  8.50000000E-01  8.00000000E-01
  8.50000000E-01  8.50000000E-01  8.50000000E-01  8.00000000E-01  8.50000000E-01
  8.50000000E-01  8.50000000E-01  8.00000000E-01  8.50000000E-01  8.50000000E-01
  8.50000000E-01  8.00000000E-01  8.50000000E-01  8.50000000E-01  8.50000000E-01
  8.00000000E-01  8.50000000E-01  8.50000000E-01  8.50000000E-01  8.00000000E-01
  8.50000000E-01  8.50000000E-01  8.50000000E-01  8.00000000E-01  8.50000000E-01
  8.50000000E-01  8.50000000E-01  8.00000000E-01  8.50000000E-01  8.50000000E-01
  8.50000000E-01  8.00000000E-01  8.50000000E-01  8.50000000E-01  8.50000000E-01
  8.00000000E-01  8.50000000E-01  8.50000000E-01  8.50000000E-01  8.00000000E-01
  8.50000000E-01  8.50000000E-01  8.50000000E-01  8.00000000E-01  8.50000000E-01
  8.50000000E-01  8.50000000E-01  8.00000000E-01  8.50000000E-01  8.50000000E-01
  8.50000000E-01  8.00000000E-01  8.50000000E-01  8.50000000E-01  8.50000000E-01
  8.00000000E-01  8.50000000E-01  8.50000000E-01  8.50000000E-01  8.00000000E-01
  8.50000000E-01  8.50000000E-01  8.50000000E-01  8.00000000E-01  8.50000000E-01
  8.50000000E-01  8.50000000E-01  8.00000000E-01  8.50000000E-01  8.50000000E-01
  8.50000000E-01  8.00000000E-01  8.50000000E-01  8.50000000E-01  8.50000000E-01
  8.00000000E-01  8.50000000E-01  8.50000000E-01  8.50000000E-01  8.00000000E-01
  8.50000000E-01  8.50000000E-01  8.50000000E-01  8.00000000E-01  8.50000000E-01
  8.50000000E-01  8.50000000E-01  8.00000000E-01  8.50000000E-01  8.50000000E-01
  8.50000000E-01  8.00000000E-01  8.50000000E-01  8.50000000E-01  8.50000000E-01
  8.00000000E-01  8.50000000E-01  8.50000000E-01  8.50000000E-01  8.00000000E-01
  8.50000000E-01  8.50000000E-01  8.50000000E-01  8.00000000E-01  8.50000000E-01
  8.50000000E-01  8.50000000E-01  8.00000000E-01  8.50000000E-01  8.50000000E-01
  8.50000000E-01  8.00000000E-01  8.50000000E-01  8.50000000E-01  8.50000000E-01
  8.00000000E-01  8.50000000E-01  8.50000000E-01  8.50000000E-01  8.00000000E-01
  8.50000000E-01  8.50000000E-01  8.50000000E-01  8.00000000E-01  8.50000000E-01
  8.50000000E-01  8.50000000E-01  8.00000000E-01  8.50000000E-01  8.50000000E-01
  8.50000000E-01  8.00000000E-01  8.50000000E-01  8.50000000E-01  8.50000000E-01
  8.00000000E-01  8.50000000E-01  8.50000000E-01  8.50000000E-01  8.00000000E-01
  8.50000000E-01  8.50000000E-01  8.50000000E-01  8.00000000E-01  8.50000000E-01
  8.50000000E-01  8.50000000E-01  8.00000000E-01  8.50000000E-01  8.50000000E-01
  8.50000000E-01  8.00000000E-01  8.50000000E-01  8.50000000E-01  8.50000000E-01
  8.00000000E-01  8.50000000E-01  8.50000000E-01  8.50000000E-01  8.00000000E-01
  8.50000000E-01  8.50000000E-01  8.50000000E-01  8.00000000E-01  8.50000000E-01
  8.50000000E-01  8.50000000E-01  8.00000000E-01  8.50000000E-01  8.50000000E-01
  8.50000000E-01  8.00000000E-01  8.50000000E-01  8.50000000E-01  8.50000000E-01
  8.00000000E-01  8.50000000E-01  8.50000000E-01  8.50000000E-01  8.00000000E-01
  8.50000000E-01  8.50000000E-01  8.50000000E-01  8.00000000E-01  8.50000000E-01
  8.50000000E-01  8.50000000E-01  8.00000000E-01  8.50000000E-01  8.50000000E-01
  8.50000000E-01  8.00000000E-01  8.50000000E-01  8.50000000E-01  8.50000000E-01
  8.00000000E-01  8.50000000E-01  8.50000000E-01  8.50000000E-01  8.00000000E-01
  8.50000000E-01  8.50000000E-01  8.50000000E-01  8.00000000E-01  8.50000000E-01
  8.50000000E-01  8.50000000E-01  8.00000000E-01  8.50000000E-01  8.50000000E-01
  8.50000000E-01  8.00000000E-01  8.50000000E-01  8.50000000E-01  8.50000000E-01
  8.00000000E-01  8.50000000E-01  8.50000000E-01  8.50000000E-01  8.00000000E-01
  8.50000000E-01  8.50000000E-01  8.50000000E-01  8.00000000E-01  8.50000000E-01
  8.50000000E-01  8.50000000E-01  8.00000000E-01  8.50000000E-01  8.50000000E-01
  8.50000000E-01  8.00000000E-01  8.50000000E-01  8.50000000E-01  8.50000000E-01
  8.00000000E-01  8.50000000E-01  8.50000000E-01  8.50000000E-01  8.00000000E-01
  8.50000000E-01  8.50000000E-01  8.50000000E-01  8.00000000E-01  8.50000000E-01
  8.50000000E-01  8.50000000E-01  8.00000000E-01  8.50000000E-01  8.50000000E-01
  8.50000000E-01  8.00000000E-01  8.50000000E-01  8.50000000E-01  8.50000000E-01
  8.00000000E-01  8.50000000E-01  8.50000000E-01  8.50000000E-01  8.00000000E-01
  8.50000000E-01  8.50000000E-01  8.50000000E-01  8.00000000E-01  8.50000000E-01
  8.50000000E-01  8.50000000E-01  8.00000000E-01  8.50000000E-01  8.50000000E-01
  8.50000000E-01  8.00000000E-01  8.50000000E-01  8.50000000E-01  8.50000000E-01
  8.00000000E-01  8.50000000E-01  8.50000000E-01  8.50000000E-01  8.00000000E-01
  8.50000000E-01  8.50000000E-01  8.50000000E-01  8.00000000E-01  8.50000000E-01
  8.50000000E-01  8.50000000E-01  8.00000000E-01  8.50000000E-01  8.50000000E-01
  8.50000000E-01  8.00000000E-01  8.50000000E-01  8.50000000E-01  8.50000000E-01
  8.00000000E-01  8.50000000E-01  8.50000000E-01  8.50000000E-01  8.00000000E-01
  8.50000000E-01  8.50000000E-01  8.50000000E-01  8.00000000E-01  8.50000000E-01
  8.50000000E-01  8.50000000E-01  8.00000000E-01  8.50000000E-01  8.50000000E-01
  8.50000000E-01  8.00000000E-01  8.50000000E-01  8.50000000E-01  8.50000000E-01
  8.00000000E-01  8.50000000E-01  8.50000000E-01  8.50000000E-01  8.00000000E-01
  8.50000000E-01  8.50000000E-01  8.50000000E-01  8.00000000E-01  8.50000000E-01
  8.50000000E-01  8.50000000E-01  8.00000000E-01  8.50000000E-01  8.50000000E-01
  8.50000000E-01  8.00000000E-01  8.50000000E-01  8.50000000E-01  8.50000000E-01
  8.00000000E-01  8.50000000E-01  8.50000000E-01  8.50000000E-01  8.00000000E-01
  8.50000000E-01  8.50000000E-01  8.50000000E-01  8.00000000E-01  8.50000000E-01
  8.50000000E-01  8.50000000E-01  8.00000000E-01  8.50000000E-01  8.50000000E-01
  8.50000000E-01  8.00000000E-01  8.50000000E-01  8.50000000E-01  8.50000000E-01
  8.00000000E-01  8.50000000E-01  8.50000000E-01  8.50000000E-01  8.00000000E-01
  8.50000000E-01  8.50000000E-01  8.50000000E-01  8.00000000E-01  8.50000000E-01
  8.50000000E-01  8.50000000E-01  8.00000000E-01  8.50000000E-01  8.50000000E-01
  8.50000000E-01  8.00000000E-01  8.50000000E-01  8.50000000E-01  8.50000000E-01
  8.00000000E-01  8.50000000E-01  8.50000000E-01  8.50000000E-01  8.00000000E-01
  8.50000000E-01  8.50000000E-01  8.50000000E-01  8.00000000E-01  8.50000000E-01
  8.50000000E-01  8.50000000E-01  8.00000000E-01  8.50000000E-01  8.50000000E-01
  8.50000000E-01  8.00000000E-01  8.50000000E-01  8.50000000E-01  8.50000000E-01
  8.00000000E-01  8.50000000E-01  8.50000000E-01  8.50000000E-01  8.00000000E-01
  8.50000000E-01  8.50000000E-01  8.50000000E-01  8.00000000E-01  8.50000000E-01
  8.50000000E-01  8.50000000E-01  8.00000000E-01  8.50000000E-01  8.50000000E-01
  8.50000000E-01  8.00000000E-01  8.50000000E-01  8.50000000E-01  8.50000000E-01
  8.00000000E-01  8.50000000E-01  8.50000000E-01  8.50000000E-01  8.00000000E-01
  8.50000000E-01  8.50000000E-01  8.50000000E-01  8.00000000E-01  8.50000000E-01
  8.50000000E-01  8.50000000E-01  8.00000000E-01  8.50000000E-01  8.50000000E-01
  8.50000000E-01  8.00000000E-01  8.50000000E-01  8.50000000E-01  8.50000000E-01
  8.00000000E-01  8.50000000E-01  8.50000000E-01  8.50000000E-01  8.00000000E-01
  8.50000000E-01  8.50000000E-01  8.50000000E-01  8.00000000E-01  8.50000000E-01
  8.50000000E-01  8.50000000E-01  8.00000000E-01  8.50000000E-01  8.50000000E-01
  8.50000000E-01  8.00000000E-01  8.50000000E-01  8.50000000E-01  8.50000000E-01
  8.00000000E-01  8.50000000E-01  8.50000000E-01  8.50000000E-01  8.00000000E-01
  8.50000000E-01  8.50000000E-01  8.50000000E-01  8.00000000E-01  8.50000000E-01
  8.50000000E-01  8.50000000E-01  8.00000000E-01  8.50000000E-01  8.50000000E-01
  8.50000000E-01  8.00000000E-01  8.50000000E-01  8.50000000E-01  8.50000000E-01
  8.00000000E-01  8.50000000E-01  8.50000000E-01  8.50000000E-01  8.00000000E-01
  8.50000000E-01  8.50000000E-01  8.50000000E-01  8.00000000E-01  8.50000000E-01
  8.50000000E-01  8.50000000E-01  8.00000000E-01  8.50000000E-01  8.50000000E-01
  8.50000000E-01  8.00000000E-01  8.50000000E-01  8.50000000E-01  8.50000000E-01
  8.00000000E-01  8.50000000E-01  8.50000000E-01  8.50000000E-01  8.00000000E-01
  8.50000000E-01  8.50000000E-01  8.50000000E-01  8.00000000E-01  8.50000000E-01
  8.50000000E-01  8.50000000E-01  8.00000000E-01  8.50000000E-01  8.50000000E-01
  8.50000000E-01  8.00000000E-01  8.50000000E-01  8.50000000E-01  8.50000000E-01
  8.00000000E-01  8.50000000E-01  8.50000000E-01  8.50000000E-01  8.00000000E-01
  8.50000000E-01  8.50000000E-01  8.50000000E-01  8.00000000E-01  8.50000000E-01
  8.50000000E-01  8.50000000E-01  8.00000000E-01  8.50000000E-01  8.50000000E-01
  8.50000000E-01  8.00000000E-01  8.50000000E-01  8.50000000E-01  8.50000000E-01
  8.00000000E-01  8.50000000E-01  8.50000000E-01  8.50000000E-01  8.00000000E-01
  8.50000000E-01  8.50000000E-01  8.50000000E-01  8.00000000E-01  8.50000000E-01
  8.50000000E-01  8.50000000E-01  8.00000000E-01  8.50000000E-01  8.50000000E-01
  8.50000000E-01  8.00000000E-01  8.50000000E-01  8.50000000E-01  8.50000000E-01
  8.00000000E-01  8.50000000E-01  8.50000000E-01  8.50000000E-01  8.00000000E-01
  8.50000000E-01  8.50000000E-01  8.50000000E-01  8.00000000E-01  8.50000000E-01
  8.50000000E-01  8.50000000E-01  8.00000000E-01  8.50000000E-01  8.50000000E-01
  8.50000000E-01  8.00000000E-01  8.50000000E-01  8.50000000E-01  8.50000000E-01
  8.00000000E-01  8.50000000E-01  8.50000000E-01  8.50000000E-01  8.00000000E-01
  8.50000000E-01  8.50000000E-01  8.50000000E-01  8.00000000E-01  8.50000000E-01
  8.50000000E-01  8.50000000E-01  8.00000000E-01  8.50000000E-01  8.50000000E-01
  8.50000000E-01  8.00000000E-01  8.50000000E-01  8.50000000E-01  8.50000000E-01
  8.00000000E-01  8.50000000E-01  8.50000000E-01  8.50000000E-01  8.00000000E-01
  8.50000000E-01  8.50000000E-01  8.50000000E-01  8.00000000E-01  8.50000000E-01
  8.50000000E-01  8.50000000E-01  8.00000000E-01  8.50000000E-01  8.50000000E-01
  8.50000000E-01  8.00000000E-01  8.50000000E-01  8.50000000E-01  8.50000000E-01
  8.00000000E-01  8.50000000E-01  8.50000000E-01  8.50000000E-01  8.00000000E-01
  8.50000000E-01  8.50000000E-01  8.50000000E-01  8.00000000E-01  8.50000000E-01
  8.50000000E-01  8.50000000E-01  8.00000000E-01  8.50000000E-01  8.50000000E-01
  8.50000000E-01  8.00000000E-01  8.50000000E-01  8.50000000E-01  8.50000000E-01
  8.00000000E-01  8.50000000E-01  8.50000000E-01  8.50000000E-01  8.00000000E-01
  8.50000000E-01  8.50000000E-01  8.50000000E-01  8.00000000E-01  8.50000000E-01
  8.50000000E-01  8.50000000E-01  8.00000000E-01  8.50000000E-01  8.50000000E-01
  8.50000000E-01  8.00000000E-01  8.50000000E-01  8.50000000E-01  8.50000000E-01
  8.00000000E-01  8.50000000E-01  8.50000000E-01  8.50000000E-01  8.00000000E-01
  8.50000000E-01  8.50000000E-01  8.50000000E-01  8.00000000E-01  8.50000000E-01
  8.50000000E-01  8.50000000E-01  8.00000000E-01  8.50000000E-01  8.50000000E-01
  8.50000000E-01  8.00000000E-01  8.50000000E-01  8.50000000E-01  8.50000000E-01
  8.00000000E-01  8.50000000E-01  8.50000000E-01  8.50000000E-01  8.00000000E-01
  8.50000000E-01  8.50000000E-01  8.50000000E-01  8.00000000E-01  8.50000000E-01
  8.50000000E-01  8.50000000E-01  8.00000000E-01  8.50000000E-01  8.50000000E-01
  8.50000000E-01  8.00000000E-01  8.50000000E-01  8.50000000E-01  8.50000000E-01
  8.00000000E-01  8.50000000E-01  8.50000000E-01  8.50000000E-01  8.00000000E-01
  8.50000000E-01  8.50000000E-01  8.50000000E-01  8.00000000E-01  8.50000000E-01
  8.50000000E-01  8.50000000E-01  8.00000000E-01  8.50000000E-01  8.50000000E-01
  8.50000000E-01  8.00000000E-01  8.50000000E-01  8.50000000E-01  8.50000000E-01
  8.00000000E-01  8.50000000E-01  8.50000000E-01  8.50000000E-01  8.00000000E-01
  8.50000000E-01  8.50000000E-01  8.50000000E-01  8.00000000E-01  8.50000000E-01
  8.50000000E-01  8.50000000E-01  8.00000000E-01  8.50000000E-01  8.50000000E-01
  8.50000000E-01  8.00000000E-01  8.50000000E-01  8.50000000E-01  8.50000000E-01
  8.00000000E-01  8.50000000E-01  8.50000000E-01  8.50000000E-01  8.00000000E-01
  8.50000000E-01  8.50000000E-01  8.50000000E-01  8.00000000E-01  8.50000000E-01
  8.50000000E-01  8.50000000E-01  8.00000000E-01  8.50000000E-01  8.50000000E-01
  8.50000000E-01  8.00000000E-01  8.50000000E-01  8.50000000E-01  8.50000000E-01
  8.00000000E-01  8.50000000E-01  8.50000000E-01  8.50000000E-01  8.00000000E-01
  8.50000000E-01  8.50000000E-01  8.50000000E-01  8.00000000E-01  8.50000000E-01
  8.50000000E-01  8.50000000E-01  8.00000000E-01  8.50000000E-01  8.50000000E-01
  8.50000000E-01  8.00000000E-01  8.50000000E-01  8.50000000E-01  8.50000000E-01
  8.00000000E-01  8.50000000E-01  8.50000000E-01  8.50000000E-01  8.00000000E-01
  8.50000000E-01  8.50000000E-01  8.50000000E-01  8.00000000E-01  8.50000000E-01
  8.50000000E-01  8.50000000E-01  8.00000000E-01  8.50000000E-01  8.50000000E-01
  8.50000000E-01  8.00000000E-01  8.50000000E-01  8.50000000E-01  8.50000000E-01
  8.00000000E-01  8.50000000E-01  8.50000000E-01  8.50000000E-01  8.00000000E-01
  8.50000000E-01  8.50000000E-01  8.50000000E-01  8.00000000E-01  8.50000000E-01
  8.50000000E-01  8.50000000E-01  8.00000000E-01  8.50000000E-01  8.50000000E-01
  8.50000000E-01  8.00000000E-01  8.50000000E-01  8.50000000E-01  8.50000000E-01
  8.00000000E-01  8.50000000E-01  8.50000000E-01  8.50000000E-01  8.00000000E-01
  8.50000000E-01  8.50000000E-01  8.50000000E-01  8.00000000E-01  8.50000000E-01
  8.50000000E-01  8.50000000E-01  8.00000000E-01  8.50000000E-01  8.50000000E-01
  8.50000000E-01  8.00000000E-01  8.50000000E-01  8.50000000E-01  8.50000000E-01
  8.00000000E-01  8.50000000E-01  8.50000000E-01  8.50000000E-01  8.00000000E-01
  8.50000000E-01  8.50000000E-01  8.50000000E-01  8.00000000E-01  8.50000000E-01
  8.50000000E-01  8.50000000E-01  8.00000000E-01  8.50000000E-01  8.50000000E-01
  8.50000000E-01  8.00000000E-01  8.50000000E-01  8.50000000E-01  8.50000000E-01
  8.00000000E-01  8.50000000E-01  8.50000000E-01  8.50000000E-01  8.00000000E-01
  8.50000000E-01  8.50000000E-01  8.50000000E-01  8.00000000E-01  8.50000000E-01
  8.50000000E-01  8.50000000E-01  8.00000000E-01  8.50000000E-01  8.50000000E-01
  8.50000000E-01  8.00000000E-01  8.50000000E-01  8.50000000E-01  8.50000000E-01
  8.00000000E-01  8.50000000E-01  8.50000000E-01  8.50000000E-01  8.00000000E-01
  8.50000000E-01  8.50000000E-01  8.50000000E-01  8.00000000E-01  8.50000000E-01
  8.50000000E-01  8.50000000E-01  8.00000000E-01  8.50000000E-01  8.50000000E-01
  8.50000000E-01  8.00000000E-01  8.50000000E-01  8.50000000E-01  8.50000000E-01
  8.00000000E-01  8.50000000E-01  8.50000000E-01  8.50000000E-01  8.00000000E-01
  8.50000000E-01  8.50000000E-01  8.50000000E-01  8.00000000E-01  8.50000000E-01
  8.50000000E-01  8.50000000E-01  8.00000000E-01  8.50000000E-01  8.50000000E-01
  8.50000000E-01  8.00000000E-01  8.50000000E-01  8.50000000E-01  8.50000000E-01
  8.00000000E-01  8.50000000E-01  8.50000000E-01  8.50000000E-01  8.00000000E-01
  8.50000000E-01  8.50000000E-01  8.50000000E-01  8.00000000E-01  8.50000000E-01
  8.50000000E-01  8.50000000E-01  8.00000000E-01  8.50000000E-01  8.50000000E-01
  8.50000000E-01  8.00000000E-01  8.50000000E-01  8.50000000E-01  8.50000000E-01
  8.00000000E-01  8.50000000E-01  8.50000000E-01  8.50000000E-01  8.00000000E-01
  8.50000000E-01  8.50000000E-01  8.50000000E-01  8.00000000E-01  8.50000000E-01
  8.50000000E-01  8.50000000E-01  8.00000000E-01  8.50000000E-01  8.50000000E-01
  8.50000000E-01  8.00000000E-01  8.50000000E-01  8.50000000E-01  8.50000000E-01
  8.00000000E-01  8.50000000E-01  8.50000000E-01  8.50000000E-01  8.00000000E-01
  8.50000000E-01  8.50000000E-01  8.50000000E-01  8.00000000E-01  8.50000000E-01
  8.50000000E-01  8.50000000E-01  8.00000000E-01  8.50000000E-01  8.50000000E-01
  8.50000000E-01  8.00000000E-01  8.50000000E-01  8.50000000E-01  8.50000000E-01
  8.00000000E-01  8.50000000E-01  8.50000000E-01  8.50000000E-01  8.00000000E-01
  8.50000000E-01  8.50000000E-01  8.50000000E-01  8.00000000E-01  8.50000000E-01
  8.50000000E-01  8.50000000E-01  8.00000000E-01  8.50000000E-01  8.50000000E-01
  8.50000000E-01  8.00000000E-01  8.50000000E-01  8.50000000E-01  8.50000000E-01
  8.00000000E-01  8.50000000E-01  8.50000000E-01  8.50000000E-01  8.00000000E-01
  8.50000000E-01  8.50000000E-01  8.50000000E-01  8.00000000E-01  8.50000000E-01
  8.50000000E-01  8.50000000E-01  8.00000000E-01  8.50000000E-01  8.50000000E-01
  8.50000000E-01  8.00000000E-01  8.50000000E-01  8.50000000E-01  8.50000000E-01
  8.00000000E-01  8.50000000E-01  8.50000000E-01  8.50000000E-01  8.00000000E-01
  8.50000000E-01  8.50000000E-01  8.50000000E-01  8.00000000E-01  8.50000000E-01
  8.50000000E-01  8.50000000E-01  8.00000000E-01  8.50000000E-01  8.50000000E-01
  8.50000000E-01  8.00000000E-01  8.50000000E-01  8.50000000E-01  8.50000000E-01
  8.00000000E-01  8.50000000E-01  8.50000000E-01  8.50000000E-01  8.00000000E-01
  8.50000000E-01  8.50000000E-01  8.50000000E-01  8.00000000E-01  8.50000000E-01
  8.50000000E-01  8.50000000E-01  8.00000000E-01  8.50000000E-01  8.50000000E-01
  8.50000000E-01  8.00000000E-01  8.50000000E-01  8.50000000E-01  8.50000000E-01
  8.00000000E-01  8.50000000E-01  8.50000000E-01  8.50000000E-01  8.00000000E-01
  8.50000000E-01  8.50000000E-01  8.50000000E-01  8.00000000E-01  8.50000000E-01
  8.50000000E-01  8.50000000E-01  8.00000000E-01  8.50000000E-01  8.50000000E-01
  8.50000000E-01  8.00000000E-01  8.50000000E-01  8.50000000E-01  8.50000000E-01
  8.00000000E-01  8.50000000E-01  8.50000000E-01  8.50000000E-01  8.00000000E-01
  8.50000000E-01  8.50000000E-01  8.50000000E-01  8.00000000E-01  8.50000000E-01
  8.50000000E-01  8.50000000E-01  8.00000000E-01  8.50000000E-01  8.50000000E-01
  8.50000000E-01  8.00000000E-01  8.50000000E-01  8.50000000E-01  8.50000000E-01
  8.00000000E-01  8.50000000E-01  8.50000000E-01  8.50000000E-01  8.00000000E-01
  8.50000000E-01  8.50000000E-01  8.50000000E-01  8.00000000E-01  8.50000000E-01
  8.50000000E-01  8.50000000E-01  8.00000000E-01  8.50000000E-01  8.50000000E-01
  8.50000000E-01  8.00000000E-01  8.50000000E-01  8.50000000E-01  8.50000000E-01
  8.00000000E-01  8.50000000E-01  8.50000000E-01  8.50000000E-01  8.00000000E-01
  8.50000000E-01  8.50000000E-01  8.50000000E-01  8.00000000E-01  8.50000000E-01
  8.50000000E-01  8.50000000E-01  8.00000000E-01  8.50000000E-01  8.50000000E-01
  8.50000000E-01  8.00000000E-01  8.50000000E-01  8.50000000E-01  8.50000000E-01
  8.00000000E-01  8.50000000E-01  8.50000000E-01  8.50000000E-01  8.00000000E-01
  8.50000000E-01  8.50000000E-01  8.50000000E-01  8.00000000E-01  8.50000000E-01
  8.50000000E-01  8.50000000E-01  8.00000000E-01  8.50000000E-01  8.50000000E-01
  8.50000000E-01  8.00000000E-01  8.50000000E-01  8.50000000E-01  8.50000000E-01
  8.00000000E-01  8.50000000E-01  8.50000000E-01  8.50000000E-01  8.00000000E-01
  8.50000000E-01  8.50000000E-01  8.50000000E-01  8.00000000E-01  8.50000000E-01
  8.50000000E-01  8.50000000E-01  8.00000000E-01  8.50000000E-01  8.50000000E-01
  8.50000000E-01  8.00000000E-01  8.50000000E-01  8.50000000E-01  8.50000000E-01
  8.00000000E-01  8.50000000E-01  8.50000000E-01  8.50000000E-01  8.00000000E-01
  8.50000000E-01  8.50000000E-01  8.50000000E-01  8.00000000E-01  8.50000000E-01
  8.50000000E-01  8.50000000E-01  8.00000000E-01  8.50000000E-01  8.50000000E-01
  8.50000000E-01  8.00000000E-01  8.50000000E-01  8.50000000E-01  8.50000000E-01
  8.00000000E-01  8.50000000E-01  8.50000000E-01  8.50000000E-01  8.00000000E-01
  8.50000000E-01  8.50000000E-01  8.50000000E-01  8.00000000E-01  8.50000000E-01
  8.50000000E-01  8.50000000E-01  8.00000000E-01  8.50000000E-01  8.50000000E-01
  8.50000000E-01  8.00000000E-01  8.50000000E-01  8.50000000E-01  8.50000000E-01
  8.00000000E-01  8.50000000E-01  8.50000000E-01  8.50000000E-01  8.00000000E-01
  8.50000000E-01  8.50000000E-01  8.50000000E-01  8.00000000E-01  8.50000000E-01
  8.50000000E-01  8.50000000E-01  8.00000000E-01  8.50000000E-01  8.50000000E-01
  8.50000000E-01  8.00000000E-01  8.50000000E-01  8.50000000E-01  8.50000000E-01
  8.00000000E-01  8.50000000E-01  8.50000000E-01  8.50000000E-01  8.00000000E-01
  8.50000000E-01  8.50000000E-01  8.50000000E-01  8.00000000E-01  8.50000000E-01
  8.50000000E-01  8.50000000E-01  8.00000000E-01  8.50000000E-01  8.50000000E-01
  8.50000000E-01  8.00000000E-01  8.50000000E-01  8.50000000E-01  8.50000000E-01
  8.00000000E-01  8.50000000E-01  8.50000000E-01  8.50000000E-01  8.00000000E-01
  8.50000000E-01  8.50000000E-01  8.50000000E-01  8.00000000E-01  8.50000000E-01
  8.50000000E-01  8.50000000E-01  8.00000000E-01  8.50000000E-01  8.50000000E-01
  8.50000000E-01  8.00000000E-01  8.50000000E-01  8.50000000E-01  8.50000000E-01
  8.00000000E-01  8.50000000E-01  8.50000000E-01  8.50000000E-01  8.00000000E-01
  8.50000000E-01  8.50000000E-01  8.50000000E-01  8.00000000E-01  8.50000000E-01
  8.50000000E-01  8.50000000E-01  8.00000000E-01  8.50000000E-01  8.50000000E-01
  8.50000000E-01  8.00000000E-01  8.50000000E-01  8.50000000E-01  8.50000000E-01
  8.00000000E-01  8.50000000E-01  8.50000000E-01  8.50000000E-01  8.00000000E-01
  8.50000000E-01  8.50000000E-01  8.50000000E-01  8.00000000E-01  8.50000000E-01
  8.50000000E-01  8.50000000E-01  8.00000000E-01  8.50000000E-01  8.50000000E-01
  8.50000000E-01  8.00000000E-01  8.50000000E-01  8.50000000E-01  8.50000000E-01
  8.00000000E-01  8.50000000E-01  8.50000000E-01  8.50000000E-01  8.00000000E-01
  8.50000000E-01  8.50000000E-01  8.50000000E-01  8.00000000E-01  8.50000000E-01
  8.50000000E-01  8.50000000E-01  8.00000000E-01  8.50000000E-01  8.50000000E-01
  8.50000000E-01  8.00000000E-01  8.50000000E-01  8.50000000E-01  8.50000000E-01
  8.00000000E-01  8.50000000E-01  8.50000000E-01  8.50000000E-01  8.00000000E-01
  8.50000000E-01  8.50000000E-01  8.50000000E-01  8.00000000E-01  8.50000000E-01
  8.50000000E-01  8.50000000E-01  8.00000000E-01  8.50000000E-01  8.50000000E-01
  8.50000000E-01  8.00000000E-01  8.50000000E-01  8.50000000E-01  8.50000000E-01
  8.00000000E-01  8.50000000E-01  8.50000000E-01  8.50000000E-01  8.00000000E-01
  8.50000000E-01  8.50000000E-01  8.50000000E-01  8.00000000E-01  8.50000000E-01
  8.50000000E-01  8.50000000E-01  8.00000000E-01  8.50000000E-01  8.50000000E-01
  8.50000000E-01  8.00000000E-01  8.50000000E-01  8.50000000E-01  8.50000000E-01
  8.00000000E-01  8.50000000E-01  8.50000000E-01  8.50000000E-01  8.00000000E-01
  8.50000000E-01  8.50000000E-01  8.50000000E-01  8.00000000E-01  8.50000000E-01
  8.50000000E-01  8.50000000E-01  8.00000000E-01  8.50000000E-01  8.50000000E-01
  8.50000000E-01  8.00000000E-01  8.50000000E-01  8.50000000E-01  8.50000000E-01
  8.00000000E-01  8.50000000E-01  8.50000000E-01  8.50000000E-01  8.00000000E-01
  8.50000000E-01  8.50000000E-01  8.50000000E-01  8.00000000E-01  8.50000000E-01
  8.50000000E-01  8.50000000E-01  8.00000000E-01  8.50000000E-01  8.50000000E-01
  8.50000000E-01  8.00000000E-01  8.50000000E-01  8.50000000E-01  8.50000000E-01
  8.00000000E-01  8.50000000E-01  8.50000000E-01  8.50000000E-01  8.00000000E-01
  8.50000000E-01  8.50000000E-01  8.50000000E-01  8.00000000E-01  8.50000000E-01
  8.50000000E-01  8.50000000E-01  8.00000000E-01  8.50000000E-01  8.50000000E-01
  8.50000000E-01  8.00000000E-01  8.50000000E-01  8.50000000E-01  8.50000000E-01
  8.00000000E-01  8.50000000E-01  8.50000000E-01  8.50000000E-01  8.00000000E-01
  8.50000000E-01  8.50000000E-01  8.50000000E-01  8.00000000E-01  8.50000000E-01
  8.50000000E-01  8.50000000E-01  8.00000000E-01  8.50000000E-01  8.50000000E-01
  8.50000000E-01  8.00000000E-01  8.50000000E-01  8.50000000E-01  8.50000000E-01
  8.00000000E-01  8.50000000E-01  8.50000000E-01  8.50000000E-01  8.00000000E-01
  8.50000000E-01  8.50000000E-01  8.50000000E-01  8.00000000E-01  8.50000000E-01
  8.50000000E-01  8.50000000E-01  8.00000000E-01  8.50000000E-01  8.50000000E-01
  8.50000000E-01  8.00000000E-01  8.50000000E-01  8.50000000E-01  8.50000000E-01
  8.00000000E-01  8.50000000E-01  8.50000000E-01  8.50000000E-01  8.00000000E-01
  8.50000000E-01  8.50000000E-01  8.50000000E-01  8.00000000E-01  8.50000000E-01
  8.50000000E-01  8.50000000E-01  8.00000000E-01  8.50000000E-01  8.50000000E-01
  8.50000000E-01  8.00000000E-01  8.50000000E-01  8.50000000E-01  8.50000000E-01
  8.00000000E-01  8.50000000E-01  8.50000000E-01  8.50000000E-01  8.00000000E-01
  8.50000000E-01  8.50000000E-01  8.50000000E-01  8.00000000E-01  8.50000000E-01
  8.50000000E-01  8.50000000E-01  8.00000000E-01  8.50000000E-01  8.50000000E-01
  8.50000000E-01  8.00000000E-01  8.50000000E-01  8.50000000E-01  8.50000000E-01
  8.00000000E-01  8.50000000E-01  8.50000000E-01  8.50000000E-01  8.00000000E-01
  8.50000000E-01  8.50000000E-01  8.50000000E-01  8.00000000E-01  8.50000000E-01
  8.50000000E-01  8.50000000E-01  8.00000000E-01  8.50000000E-01  8.50000000E-01
  8.50000000E-01  8.00000000E-01  8.50000000E-01  8.50000000E-01  8.50000000E-01
  8.00000000E-01  8.50000000E-01  8.50000000E-01  8.50000000E-01  8.00000000E-01
  8.50000000E-01  8.50000000E-01  8.50000000E-01  8.00000000E-01  8.50000000E-01
  8.50000000E-01  8.50000000E-01  8.00000000E-01  8.50000000E-01  8.50000000E-01
  8.50000000E-01  8.00000000E-01  8.50000000E-01  8.50000000E-01  8.50000000E-01
  8.00000000E-01  8.50000000E-01  8.50000000E-01  8.50000000E-01  8.00000000E-01
  8.50000000E-01  8.50000000E-01  8.50000000E-01  8.00000000E-01  8.50000000E-01
  8.50000000E-01  8.50000000E-01  8.00000000E-01  8.50000000E-01  8.50000000E-01
  8.50000000E-01  8.00000000E-01  8.50000000E-01  8.50000000E-01  8.50000000E-01
  8.00000000E-01  8.50000000E-01  8.50000000E-01  8.50000000E-01  8.00000000E-01
  8.50000000E-01  8.50000000E-01  8.50000000E-01  8.00000000E-01  8.50000000E-01
  8.50000000E-01  8.50000000E-01  8.00000000E-01  8.50000000E-01  8.50000000E-01
  8.50000000E-01  8.00000000E-01  8.50000000E-01  8.50000000E-01  8.50000000E-01
  8.00000000E-01  8.50000000E-01  8.50000000E-01  8.50000000E-01  8.00000000E-01
  8.50000000E-01  8.50000000E-01  8.50000000E-01  8.00000000E-01  8.50000000E-01
  8.50000000E-01  8.50000000E-01  8.00000000E-01  8.50000000E-01  8.50000000E-01
  8.50000000E-01  8.00000000E-01  8.50000000E-01  8.50000000E-01  8.50000000E-01
  8.00000000E-01  8.50000000E-01  8.50000000E-01  8.50000000E-01  8.00000000E-01
  8.50000000E-01  8.50000000E-01  8.50000000E-01  8.00000000E-01  8.50000000E-01
  8.50000000E-01  8.50000000E-01  8.00000000E-01  8.50000000E-01  8.50000000E-01
  8.50000000E-01  8.00000000E-01  8.50000000E-01  8.50000000E-01  8.50000000E-01
  8.00000000E-01  8.50000000E-01  8.50000000E-01  8.50000000E-01  8.00000000E-01
  8.50000000E-01  8.50000000E-01  8.50000000E-01  8.00000000E-01  8.50000000E-01
  8.50000000E-01  8.50000000E-01  8.00000000E-01  8.50000000E-01  8.50000000E-01
  8.50000000E-01  8.00000000E-01  8.50000000E-01  8.50000000E-01  8.50000000E-01
  8.00000000E-01  8.50000000E-01  8.50000000E-01  8.50000000E-01  8.00000000E-01
  8.50000000E-01  8.50000000E-01  8.50000000E-01  8.00000000E-01  8.50000000E-01
  8.50000000E-01  8.50000000E-01  8.00000000E-01  8.50000000E-01  8.50000000E-01
  8.50000000E-01  8.00000000E-01  8.50000000E-01  8.50000000E-01  8.50000000E-01
  8.00000000E-01  8.50000000E-01  8.50000000E-01  8.50000000E-01  8.00000000E-01
  8.50000000E-01  8.50000000E-01  8.50000000E-01  8.00000000E-01  8.50000000E-01
  8.50000000E-01  8.50000000E-01  8.00000000E-01  8.50000000E-01  8.50000000E-01
  8.50000000E-01  8.00000000E-01  8.50000000E-01  8.50000000E-01  8.50000000E-01
  8.00000000E-01  8.50000000E-01  8.50000000E-01  8.50000000E-01  8.00000000E-01
  8.50000000E-01  8.50000000E-01  8.50000000E-01  8.00000000E-01  8.50000000E-01
  8.50000000E-01  8.50000000E-01  8.00000000E-01  8.50000000E-01  8.50000000E-01
  8.50000000E-01  8.00000000E-01  8.50000000E-01  8.50000000E-01  8.50000000E-01
  8.00000000E-01  8.50000000E-01  8.50000000E-01  8.50000000E-01  8.00000000E-01
  8.50000000E-01  8.50000000E-01  8.50000000E-01  8.00000000E-01  8.50000000E-01
  8.50000000E-01  8.50000000E-01  8.00000000E-01  8.50000000E-01  8.50000000E-01
  8.50000000E-01  8.00000000E-01  8.50000000E-01  8.50000000E-01  8.50000000E-01
  8.00000000E-01  8.50000000E-01  8.50000000E-01  8.50000000E-01  8.00000000E-01
  8.50000000E-01  8.50000000E-01  8.50000000E-01  8.00000000E-01  8.50000000E-01
  8.50000000E-01  8.50000000E-01  8.00000000E-01  8.50000000E-01  8.50000000E-01
  8.50000000E-01  8.00000000E-01  8.50000000E-01  8.50000000E-01  8.50000000E-01
  8.00000000E-01  8.50000000E-01  8.50000000E-01  8.50000000E-01  8.00000000E-01
  8.50000000E-01  8.50000000E-01  8.50000000E-01  8.00000000E-01  8.50000000E-01
  8.50000000E-01  8.50000000E-01  8.00000000E-01  8.50000000E-01  8.50000000E-01
  8.50000000E-01  8.00000000E-01  8.50000000E-01  8.50000000E-01  8.50000000E-01
  8.00000000E-01  8.50000000E-01  8.50000000E-01  8.50000000E-01  8.00000000E-01
  8.50000000E-01  8.50000000E-01  8.50000000E-01  8.00000000E-01  8.50000000E-01
  8.50000000E-01  8.50000000E-01  8.00000000E-01  8.50000000E-01  8.50000000E-01
  8.50000000E-01  8.00000000E-01  8.50000000E-01  8.50000000E-01  8.50000000E-01
  8.00000000E-01  8.50000000E-01  8.50000000E-01  8.50000000E-01  8.00000000E-01
  8.50000000E-01  8.50000000E-01  8.50000000E-01  8.00000000E-01  8.50000000E-01
  8.50000000E-01  8.50000000E-01  8.00000000E-01  8.50000000E-01  8.50000000E-01
  8.50000000E-01  8.00000000E-01  8.50000000E-01  8.50000000E-01  8.50000000E-01
  8.00000000E-01  8.50000000E-01  8.50000000E-01  8.50000000E-01  8.00000000E-01
  8.50000000E-01  8.50000000E-01  8.50000000E-01  8.00000000E-01  8.50000000E-01
  8.50000000E-01  8.50000000E-01  8.00000000E-01  8.50000000E-01  8.50000000E-01
  8.50000000E-01  8.00000000E-01  8.50000000E-01  8.50000000E-01  8.50000000E-01
  8.00000000E-01  8.50000000E-01  8.50000000E-01  8.50000000E-01  8.00000000E-01
  8.50000000E-01  8.50000000E-01  8.50000000E-01  8.00000000E-01  8.50000000E-01
  8.50000000E-01  8.50000000E-01  8.00000000E-01  8.50000000E-01  8.50000000E-01
  8.50000000E-01  8.00000000E-01  8.50000000E-01  8.50000000E-01  8.50000000E-01
  8.00000000E-01  8.50000000E-01  8.50000000E-01  8.50000000E-01  8.00000000E-01
  8.50000000E-01  8.50000000E-01  8.50000000E-01  8.00000000E-01  8.50000000E-01
  8.50000000E-01  8.50000000E-01  8.00000000E-01  8.50000000E-01  8.50000000E-01
  8.50000000E-01  8.00000000E-01  8.50000000E-01  8.50000000E-01  8.50000000E-01
  8.00000000E-01  8.50000000E-01  8.50000000E-01  8.50000000E-01  8.00000000E-01
  8.50000000E-01  8.50000000E-01  8.50000000E-01  8.00000000E-01  8.50000000E-01
  8.50000000E-01  8.50000000E-01  8.00000000E-01  8.50000000E-01  8.50000000E-01
  8.50000000E-01  8.00000000E-01  8.50000000E-01  8.50000000E-01  8.50000000E-01
  8.00000000E-01  8.50000000E-01  8.50000000E-01  8.50000000E-01  8.00000000E-01
  8.50000000E-01  8.50000000E-01  8.50000000E-01  8.00000000E-01  8.50000000E-01
  8.50000000E-01  8.50000000E-01  8.00000000E-01  8.50000000E-01  8.50000000E-01
  8.50000000E-01  8.00000000E-01  8.50000000E-01  8.50000000E-01  8.50000000E-01
  8.00000000E-01  8.50000000E-01  8.50000000E-01  8.50000000E-01  8.00000000E-01
  8.50000000E-01  8.50000000E-01  8.50000000E-01  8.00000000E-01  8.50000000E-01
  8.50000000E-01  8.50000000E-01  8.00000000E-01  8.50000000E-01  8.50000000E-01
  8.50000000E-01  8.00000000E-01  8.50000000E-01  8.50000000E-01  8.50000000E-01
  8.00000000E-01  8.50000000E-01  8.50000000E-01  8.50000000E-01  8.00000000E-01
  8.50000000E-01  8.50000000E-01  8.50000000E-01  8.00000000E-01  8.50000000E-01
  8.50000000E-01  8.50000000E-01  8.00000000E-01  8.50000000E-01  8.50000000E-01
  8.50000000E-01  8.00000000E-01  8.50000000E-01  8.50000000E-01  8.50000000E-01
  8.00000000E-01  8.50000000E-01  8.50000000E-01  8.50000000E-01  8.00000000E-01
  8.50000000E-01  8.50000000E-01  8.50000000E-01  8.00000000E-01  8.50000000E-01
  8.50000000E-01  8.50000000E-01  8.00000000E-01  8.50000000E-01  8.50000000E-01
  8.50000000E-01  8.00000000E-01  8.50000000E-01  8.50000000E-01  8.50000000E-01
  8.00000000E-01  8.50000000E-01  8.50000000E-01  8.50000000E-01  8.00000000E-01
  8.50000000E-01  8.50000000E-01  8.50000000E-01  8.00000000E-01  8.50000000E-01
  8.50000000E-01  8.50000000E-01  8.00000000E-01  8.50000000E-01  8.50000000E-01
  8.50000000E-01  8.00000000E-01  8.50000000E-01  8.50000000E-01  8.50000000E-01
  8.00000000E-01  8.50000000E-01  8.50000000E-01  8.50000000E-01  8.00000000E-01
  8.50000000E-01  8.50000000E-01  8.50000000E-01  8.00000000E-01  8.50000000E-01
  8.50000000E-01  8.50000000E-01  8.00000000E-01  8.50000000E-01  8.50000000E-01
  8.50000000E-01  8.00000000E-01  8.50000000E-01  8.50000000E-01  8.50000000E-01
  8.00000000E-01  8.50000000E-01  8.50000000E-01  8.50000000E-01  8.00000000E-01
  8.50000000E-01  8.50000000E-01  8.50000000E-01  8.00000000E-01  8.50000000E-01
  8.50000000E-01  8.50000000E-01  8.00000000E-01  8.50000000E-01  8.50000000E-01
  8.50000000E-01  8.00000000E-01  8.50000000E-01  8.50000000E-01  8.50000000E-01
  8.00000000E-01  8.50000000E-01  8.50000000E-01  8.50000000E-01  8.00000000E-01
  8.50000000E-01  8.50000000E-01  8.50000000E-01  8.00000000E-01  8.50000000E-01
  8.50000000E-01  8.50000000E-01  8.00000000E-01  8.50000000E-01  8.50000000E-01
  8.50000000E-01  8.00000000E-01  8.50000000E-01  8.50000000E-01  8.50000000E-01
  8.00000000E-01  8.50000000E-01  8.50000000E-01  8.50000000E-01  8.00000000E-01
  8.50000000E-01  8.50000000E-01  8.50000000E-01  8.00000000E-01  8.50000000E-01
  8.50000000E-01  8.50000000E-01  8.00000000E-01  8.50000000E-01  8.50000000E-01
  8.50000000E-01  8.00000000E-01  8.50000000E-01  8.50000000E-01  8.50000000E-01
  8.00000000E-01  8.50000000E-01  8.50000000E-01  8.50000000E-01  8.00000000E-01
  8.50000000E-01  8.50000000E-01  8.50000000E-01  8.00000000E-01  8.50000000E-01
  8.50000000E-01  8.50000000E-01  8.00000000E-01  8.50000000E-01  8.50000000E-01
  8.50000000E-01  8.00000000E-01  8.50000000E-01  8.50000000E-01  8.50000000E-01
  8.00000000E-01  8.50000000E-01  8.50000000E-01  8.50000000E-01  8.00000000E-01
  8.50000000E-01  8.50000000E-01  8.50000000E-01  8.00000000E-01  8.50000000E-01
  8.50000000E-01  8.50000000E-01  8.00000000E-01  8.50000000E-01  8.50000000E-01
  8.50000000E-01  8.00000000E-01  8.50000000E-01  8.50000000E-01  8.50000000E-01
  8.00000000E-01  8.50000000E-01  8.50000000E-01  8.50000000E-01  8.00000000E-01
  8.50000000E-01  8.50000000E-01  8.50000000E-01  8.00000000E-01  8.50000000E-01
  8.50000000E-01  8.50000000E-01  8.00000000E-01  8.50000000E-01  8.50000000E-01
  8.50000000E-01  8.00000000E-01  8.50000000E-01  8.50000000E-01  8.50000000E-01
  8.00000000E-01  8.50000000E-01  8.50000000E-01  8.50000000E-01  8.00000000E-01
  8.50000000E-01  8.50000000E-01  8.50000000E-01  8.00000000E-01  8.50000000E-01
  8.50000000E-01  8.50000000E-01  8.00000000E-01  8.50000000E-01  8.50000000E-01
  8.50000000E-01  8.00000000E-01  8.50000000E-01  8.50000000E-01  8.50000000E-01
  8.00000000E-01  8.50000000E-01  8.50000000E-01  8.50000000E-01  8.00000000E-01
  8.50000000E-01  8.50000000E-01  8.50000000E-01  8.00000000E-01  8.50000000E-01
  8.50000000E-01  8.50000000E-01  8.00000000E-01  8.50000000E-01  8.50000000E-01
  8.50000000E-01  8.00000000E-01  8.50000000E-01  8.50000000E-01  8.50000000E-01
  8.00000000E-01  8.50000000E-01  8.50000000E-01  8.50000000E-01  8.00000000E-01
  8.50000000E-01  8.50000000E-01  8.50000000E-01  8.00000000E-01  8.50000000E-01
  8.50000000E-01  8.50000000E-01  8.00000000E-01  8.50000000E-01  8.50000000E-01
  8.50000000E-01  8.00000000E-01  8.50000000E-01  8.50000000E-01  8.50000000E-01
  8.00000000E-01  8.50000000E-01  8.50000000E-01  8.50000000E-01  8.00000000E-01
  8.50000000E-01  8.50000000E-01  8.50000000E-01  8.00000000E-01  8.50000000E-01
  8.50000000E-01  8.50000000E-01  8.00000000E-01  8.50000000E-01  8.50000000E-01
  8.50000000E-01  8.00000000E-01  8.50000000E-01  8.50000000E-01  8.50000000E-01
  8.00000000E-01  8.50000000E-01  8.50000000E-01  8.50000000E-01  8.00000000E-01
  8.50000000E-01  8.50000000E-01  8.50000000E-01  8.00000000E-01  8.50000000E-01
  8.50000000E-01  8.50000000E-01  8.00000000E-01  8.50000000E-01  8.50000000E-01
  8.50000000E-01  8.00000000E-01  8.50000000E-01  8.50000000E-01  8.50000000E-01
  8.00000000E-01  8.50000000E-01  8.50000000E-01  8.50000000E-01  8.00000000E-01
  8.50000000E-01  8.50000000E-01  8.50000000E-01  8.00000000E-01  8.50000000E-01
  8.50000000E-01  8.50000000E-01  8.00000000E-01  8.50000000E-01  8.50000000E-01
  8.50000000E-01  8.00000000E-01  8.50000000E-01  8.50000000E-01  8.50000000E-01
  8.00000000E-01  8.50000000E-01  8.50000000E-01  8.50000000E-01  8.00000000E-01
  8.50000000E-01  8.50000000E-01  8.50000000E-01  8.00000000E-01  8.50000000E-01
  8.50000000E-01  8.50000000E-01  8.00000000E-01  8.50000000E-01  8.50000000E-01
  8.50000000E-01  8.00000000E-01  8.50000000E-01  8.50000000E-01  8.50000000E-01
  8.00000000E-01  8.50000000E-01  8.50000000E-01  8.50000000E-01  8.00000000E-01
  8.50000000E-01  8.50000000E-01  8.50000000E-01  8.00000000E-01  8.50000000E-01
  8.50000000E-01  8.50000000E-01  8.00000000E-01  8.50000000E-01  8.50000000E-01
  8.50000000E-01  8.00000000E-01  8.50000000E-01  8.50000000E-01  8.50000000E-01
  8.00000000E-01  8.50000000E-01  8.50000000E-01  8.50000000E-01  8.00000000E-01
  8.50000000E-01  8.50000000E-01  8.50000000E-01  8.00000000E-01  8.50000000E-01
  8.50000000E-01  8.50000000E-01  8.00000000E-01  8.50000000E-01  8.50000000E-01
  8.50000000E-01  8.00000000E-01  8.50000000E-01  8.50000000E-01  8.50000000E-01
  8.00000000E-01  8.50000000E-01  8.50000000E-01  8.50000000E-01  8.00000000E-01
  8.50000000E-01  8.50000000E-01  8.50000000E-01  8.00000000E-01  8.50000000E-01
  8.50000000E-01  8.50000000E-01  8.00000000E-01  8.50000000E-01  8.50000000E-01
  8.50000000E-01  8.00000000E-01  8.50000000E-01  8.50000000E-01  8.50000000E-01
  8.00000000E-01  8.50000000E-01  8.50000000E-01  8.50000000E-01  8.00000000E-01
  8.50000000E-01  8.50000000E-01  8.50000000E-01  8.00000000E-01  8.50000000E-01
  8.50000000E-01  8.50000000E-01  8.00000000E-01  8.50000000E-01  8.50000000E-01
  8.50000000E-01  8.00000000E-01  8.50000000E-01  8.50000000E-01  8.50000000E-01
  8.00000000E-01  8.50000000E-01  8.50000000E-01  8.50000000E-01  8.00000000E-01
  8.50000000E-01  8.50000000E-01  8.50000000E-01  8.00000000E-01  8.50000000E-01
  8.50000000E-01  8.50000000E-01  8.00000000E-01  8.50000000E-01  8.50000000E-01
  8.50000000E-01  8.00000000E-01  8.50000000E-01  8.50000000E-01  8.50000000E-01
  8.00000000E-01  8.50000000E-01  8.50000000E-01  8.50000000E-01  8.00000000E-01
  8.50000000E-01  8.50000000E-01  8.50000000E-01  8.00000000E-01  8.50000000E-01
  8.50000000E-01  8.50000000E-01  8.00000000E-01  8.50000000E-01  8.50000000E-01
  8.50000000E-01  8.00000000E-01  8.50000000E-01  8.50000000E-01  8.50000000E-01
  8.00000000E-01  8.50000000E-01  8.50000000E-01  8.50000000E-01  8.00000000E-01
  8.50000000E-01  8.50000000E-01  8.50000000E-01  8.00000000E-01  8.50000000E-01
  8.50000000E-01  8.50000000E-01  8.00000000E-01  8.50000000E-01  8.50000000E-01
  8.50000000E-01  8.00000000E-01  8.50000000E-01  8.50000000E-01  8.50000000E-01
  8.00000000E-01  8.50000000E-01  8.50000000E-01  8.50000000E-01  8.00000000E-01
  8.50000000E-01  8.50000000E-01  8.50000000E-01  8.00000000E-01  8.50000000E-01
  8.50000000E-01  8.50000000E-01  8.00000000E-01  8.50000000E-01  8.50000000E-01
  8.50000000E-01  8.00000000E-01  8.50000000E-01  8.50000000E-01  8.50000000E-01
  8.00000000E-01  8.50000000E-01  8.50000000E-01  8.50000000E-01  8.00000000E-01
  8.50000000E-01  8.50000000E-01  8.50000000E-01  8.00000000E-01  8.50000000E-01
  8.50000000E-01  8.50000000E-01  8.00000000E-01  8.50000000E-01  8.50000000E-01
  8.50000000E-01  8.00000000E-01  8.50000000E-01  8.50000000E-01  8.50000000E-01
  8.00000000E-01  8.50000000E-01  8.50000000E-01  8.50000000E-01  8.00000000E-01
  8.50000000E-01  8.50000000E-01  8.50000000E-01  8.00000000E-01  8.50000000E-01
  8.50000000E-01  8.50000000E-01  8.00000000E-01  8.50000000E-01  8.50000000E-01
  8.50000000E-01  8.00000000E-01  8.50000000E-01  8.50000000E-01  8.50000000E-01
  8.00000000E-01  8.50000000E-01  8.50000000E-01  8.50000000E-01  8.00000000E-01
  8.50000000E-01  8.50000000E-01  8.50000000E-01  8.00000000E-01  8.50000000E-01
  8.50000000E-01  8.50000000E-01  8.00000000E-01  8.50000000E-01  8.50000000E-01
  8.50000000E-01  8.00000000E-01  8.50000000E-01  8.50000000E-01  8.50000000E-01
  8.00000000E-01  8.50000000E-01  8.50000000E-01  8.50000000E-01  8.00000000E-01
  8.50000000E-01  8.50000000E-01  8.50000000E-01  8.00000000E-01  8.50000000E-01
  8.50000000E-01  8.50000000E-01  8.00000000E-01  8.50000000E-01  8.50000000E-01
  8.50000000E-01  8.00000000E-01  8.50000000E-01  8.50000000E-01  8.50000000E-01
  8.00000000E-01  8.50000000E-01  8.50000000E-01  8.50000000E-01  8.00000000E-01
  8.50000000E-01  8.50000000E-01  8.50000000E-01  8.00000000E-01  8.50000000E-01
  8.50000000E-01  8.50000000E-01  8.00000000E-01  8.50000000E-01  8.50000000E-01
  8.50000000E-01  8.00000000E-01  8.50000000E-01  8.50000000E-01  8.50000000E-01
  8.00000000E-01  8.50000000E-01  8.50000000E-01  8.50000000E-01  8.00000000E-01
  8.50000000E-01  8.50000000E-01  8.50000000E-01  8.00000000E-01  8.50000000E-01
  8.50000000E-01  8.50000000E-01  8.00000000E-01  8.50000000E-01  8.50000000E-01
  8.50000000E-01  8.00000000E-01  8.50000000E-01  8.50000000E-01  8.50000000E-01
  8.00000000E-01  8.50000000E-01  8.50000000E-01  8.50000000E-01  8.00000000E-01
  8.50000000E-01  8.50000000E-01  8.50000000E-01  8.00000000E-01  8.50000000E-01
  8.50000000E-01  8.50000000E-01  8.00000000E-01  8.50000000E-01  8.50000000E-01
  8.50000000E-01  8.00000000E-01  8.50000000E-01  8.50000000E-01  8.50000000E-01
  8.00000000E-01  8.50000000E-01  8.50000000E-01  8.50000000E-01  8.00000000E-01
  8.50000000E-01  8.50000000E-01  8.50000000E-01  8.00000000E-01  8.50000000E-01
  8.50000000E-01  8.50000000E-01  8.00000000E-01  8.50000000E-01  8.50000000E-01
  8.50000000E-01  8.00000000E-01  8.50000000E-01  8.50000000E-01  8.50000000E-01
  8.00000000E-01  8.50000000E-01  8.50000000E-01  8.50000000E-01  8.00000000E-01
  8.50000000E-01  8.50000000E-01  8.50000000E-01  8.00000000E-01  8.50000000E-01
  8.50000000E-01  8.50000000E-01  8.00000000E-01  8.50000000E-01  8.50000000E-01
  8.50000000E-01  8.00000000E-01  8.50000000E-01  8.50000000E-01  8.50000000E-01
  8.00000000E-01  8.50000000E-01  8.50000000E-01  8.50000000E-01  8.00000000E-01
  8.50000000E-01  8.50000000E-01  8.50000000E-01  8.00000000E-01  8.50000000E-01
  8.50000000E-01  8.50000000E-01  8.00000000E-01  8.50000000E-01  8.50000000E-01
  8.50000000E-01  8.00000000E-01  8.50000000E-01  8.50000000E-01  8.50000000E-01
  8.00000000E-01  8.50000000E-01  8.50000000E-01  8.50000000E-01  8.00000000E-01
  8.50000000E-01  8.50000000E-01  8.50000000E-01  8.00000000E-01  8.50000000E-01
  8.50000000E-01  8.50000000E-01  8.00000000E-01  8.50000000E-01  8.50000000E-01
  8.50000000E-01  8.00000000E-01  8.50000000E-01  8.50000000E-01  8.50000000E-01
  8.00000000E-01  8.50000000E-01  8.50000000E-01  8.50000000E-01  8.00000000E-01
  8.50000000E-01  8.50000000E-01  8.50000000E-01  8.00000000E-01  8.50000000E-01
  8.50000000E-01  8.50000000E-01  8.00000000E-01  8.50000000E-01  8.50000000E-01
  8.50000000E-01  8.00000000E-01  8.50000000E-01  8.50000000E-01  8.50000000E-01
  8.00000000E-01  8.50000000E-01  8.50000000E-01  8.50000000E-01  8.00000000E-01
  8.50000000E-01  8.50000000E-01  8.50000000E-01  8.00000000E-01  8.50000000E-01
  8.50000000E-01  8.50000000E-01  8.00000000E-01  8.50000000E-01  8.50000000E-01
  8.50000000E-01  8.00000000E-01  8.50000000E-01  8.50000000E-01  8.50000000E-01
  8.00000000E-01  8.50000000E-01  8.50000000E-01  8.50000000E-01  8.00000000E-01
  8.50000000E-01  8.50000000E-01  8.50000000E-01  8.00000000E-01  8.50000000E-01
  8.50000000E-01  8.50000000E-01  8.00000000E-01  8.50000000E-01  8.50000000E-01
  8.50000000E-01  8.00000000E-01  8.50000000E-01  8.50000000E-01  8.50000000E-01
  8.00000000E-01  8.50000000E-01  8.50000000E-01  8.50000000E-01  8.00000000E-01
  8.50000000E-01  8.50000000E-01  8.50000000E-01  8.00000000E-01  8.50000000E-01
  8.50000000E-01  8.50000000E-01  8.00000000E-01  8.50000000E-01  8.50000000E-01
  8.50000000E-01  8.00000000E-01  8.50000000E-01  8.50000000E-01  8.50000000E-01
  8.00000000E-01  8.50000000E-01  8.50000000E-01  8.50000000E-01  8.00000000E-01
  8.50000000E-01  8.50000000E-01  8.50000000E-01  8.00000000E-01  8.50000000E-01
  8.50000000E-01  8.50000000E-01  8.00000000E-01  8.50000000E-01  8.50000000E-01
  8.50000000E-01  8.00000000E-01  8.50000000E-01  8.50000000E-01  8.50000000E-01
  8.00000000E-01  8.50000000E-01  8.50000000E-01  8.50000000E-01  8.00000000E-01
  8.50000000E-01  8.50000000E-01  8.50000000E-01  8.00000000E-01  8.50000000E-01
  8.50000000E-01  8.50000000E-01  8.00000000E-01  8.50000000E-01  8.50000000E-01
  8.50000000E-01  8.00000000E-01  8.50000000E-01  8.50000000E-01  8.50000000E-01
  8.00000000E-01  8.50000000E-01  8.50000000E-01  8.50000000E-01  8.00000000E-01
  8.50000000E-01  8.50000000E-01  8.50000000E-01  8.00000000E-01  8.50000000E-01
  8.50000000E-01  8.50000000E-01  8.00000000E-01  8.50000000E-01  8.50000000E-01
  8.50000000E-01  8.00000000E-01  8.50000000E-01  8.50000000E-01  8.50000000E-01
  8.00000000E-01  8.50000000E-01  8.50000000E-01  8.50000000E-01  8.00000000E-01
  8.50000000E-01  8.50000000E-01  8.50000000E-01  8.00000000E-01  8.50000000E-01
  8.50000000E-01  8.50000000E-01  8.00000000E-01  8.50000000E-01  8.50000000E-01
  8.50000000E-01  8.00000000E-01  8.50000000E-01  8.50000000E-01  8.50000000E-01
  8.00000000E-01  8.50000000E-01  8.50000000E-01  8.50000000E-01  8.00000000E-01
  8.50000000E-01  8.50000000E-01  8.50000000E-01  8.00000000E-01  8.50000000E-01
  8.50000000E-01  8.50000000E-01  8.00000000E-01  8.50000000E-01  8.50000000E-01
  8.50000000E-01  8.00000000E-01  8.50000000E-01  8.50000000E-01  8.50000000E-01
  8.00000000E-01  8.50000000E-01  8.50000000E-01  8.50000000E-01  8.00000000E-01
  8.50000000E-01  8.50000000E-01  8.50000000E-01  8.00000000E-01  8.50000000E-01
  8.50000000E-01  8.50000000E-01  8.00000000E-01  8.50000000E-01  8.50000000E-01
  8.50000000E-01  8.00000000E-01  8.50000000E-01  8.50000000E-01  8.50000000E-01
  8.00000000E-01  8.50000000E-01  8.50000000E-01  8.50000000E-01  8.00000000E-01
  8.50000000E-01  8.50000000E-01  8.50000000E-01  8.00000000E-01  8.50000000E-01
  8.50000000E-01  8.50000000E-01  8.00000000E-01  8.50000000E-01  8.50000000E-01
  8.50000000E-01  8.00000000E-01  8.50000000E-01  8.50000000E-01  8.50000000E-01
  8.00000000E-01  8.50000000E-01  8.50000000E-01  8.50000000E-01  8.00000000E-01
  8.50000000E-01  8.50000000E-01  8.50000000E-01  8.00000000E-01  8.50000000E-01
  8.50000000E-01  8.50000000E-01  8.00000000E-01  8.50000000E-01  8.50000000E-01
  8.50000000E-01  8.00000000E-01  8.50000000E-01  8.50000000E-01  8.50000000E-01
  8.00000000E-01  8.50000000E-01  8.50000000E-01  8.50000000E-01  8.00000000E-01
  8.50000000E-01  8.50000000E-01  8.50000000E-01  8.00000000E-01  8.50000000E-01
  8.50000000E-01  8.50000000E-01  8.00000000E-01  8.50000000E-01  8.50000000E-01
  8.50000000E-01  8.00000000E-01  8.50000000E-01  8.50000000E-01  8.50000000E-01
  8.00000000E-01  8.50000000E-01  8.50000000E-01  8.50000000E-01  8.00000000E-01
  8.50000000E-01  8.50000000E-01  8.50000000E-01  8.00000000E-01  8.50000000E-01
  8.50000000E-01  8.50000000E-01  8.00000000E-01  8.50000000E-01  8.50000000E-01
  8.50000000E-01  8.00000000E-01  8.50000000E-01  8.50000000E-01  8.50000000E-01
  8.00000000E-01  8.50000000E-01  8.50000000E-01  8.50000000E-01  8.00000000E-01
  8.50000000E-01  8.50000000E-01  8.50000000E-01  8.00000000E-01  8.50000000E-01
  8.50000000E-01  8.50000000E-01  8.00000000E-01  8.50000000E-01  8.50000000E-01
  8.50000000E-01  8.00000000E-01  8.50000000E-01  8.50000000E-01  8.50000000E-01
  8.00000000E-01  8.50000000E-01  8.50000000E-01  8.50000000E-01  8.00000000E-01
  8.50000000E-01  8.50000000E-01  8.50000000E-01  8.00000000E-01  8.50000000E-01
  8.50000000E-01  8.50000000E-01  8.00000000E-01  8.50000000E-01  8.50000000E-01
  8.50000000E-01  8.00000000E-01  8.50000000E-01  8.50000000E-01  8.50000000E-01
  8.00000000E-01  8.50000000E-01  8.50000000E-01  8.50000000E-01  8.00000000E-01
  8.50000000E-01  8.50000000E-01  8.50000000E-01  8.00000000E-01  8.50000000E-01
  8.50000000E-01  8.50000000E-01  8.00000000E-01  8.50000000E-01  8.50000000E-01
  8.50000000E-01  8.00000000E-01  8.50000000E-01  8.50000000E-01  8.50000000E-01
  8.00000000E-01  8.50000000E-01  8.50000000E-01  8.50000000E-01  8.00000000E-01
  8.50000000E-01  8.50000000E-01  8.50000000E-01  8.00000000E-01  8.50000000E-01
  8.50000000E-01  8.50000000E-01  8.00000000E-01  8.50000000E-01  8.50000000E-01
  8.50000000E-01  8.00000000E-01  8.50000000E-01  8.50000000E-01  8.50000000E-01
  8.00000000E-01  8.50000000E-01  8.50000000E-01  8.50000000E-01  8.00000000E-01
  8.50000000E-01  8.50000000E-01  8.50000000E-01  8.00000000E-01  8.50000000E-01
  8.50000000E-01  8.50000000E-01  8.00000000E-01  8.50000000E-01  8.50000000E-01
  8.50000000E-01  8.00000000E-01  8.50000000E-01  8.50000000E-01  8.50000000E-01
  8.00000000E-01  8.50000000E-01  8.50000000E-01  8.50000000E-01  8.00000000E-01
  8.50000000E-01  8.50000000E-01  8.50000000E-01  8.00000000E-01  8.50000000E-01
  8.50000000E-01  8.50000000E-01  8.00000000E-01  8.50000000E-01  8.50000000E-01
  8.50000000E-01  8.00000000E-01  8.50000000E-01  8.50000000E-01  8.50000000E-01
  8.00000000E-01  8.50000000E-01  8.50000000E-01  8.50000000E-01  8.00000000E-01
  8.50000000E-01  8.50000000E-01  8.50000000E-01  8.00000000E-01  8.50000000E-01
  8.50000000E-01  8.50000000E-01  8.00000000E-01  8.50000000E-01  8.50000000E-01
  8.50000000E-01  8.00000000E-01  8.50000000E-01  8.50000000E-01  8.50000000E-01
  8.00000000E-01  8.50000000E-01  8.50000000E-01  8.50000000E-01  8.00000000E-01
  8.50000000E-01  8.50000000E-01  8.50000000E-01  8.00000000E-01  8.50000000E-01
  8.50000000E-01  8.50000000E-01  8.00000000E-01  8.50000000E-01  8.50000000E-01
  8.50000000E-01  8.00000000E-01  8.50000000E-01  8.50000000E-01  8.50000000E-01
  8.00000000E-01  8.50000000E-01  8.50000000E-01  8.50000000E-01  8.00000000E-01
  8.50000000E-01  8.50000000E-01  8.50000000E-01  8.00000000E-01  8.50000000E-01
  8.50000000E-01  8.50000000E-01  8.00000000E-01  8.50000000E-01  8.50000000E-01
  8.50000000E-01  8.00000000E-01  8.50000000E-01  8.50000000E-01  8.50000000E-01
  8.00000000E-01  8.50000000E-01  8.50000000E-01  8.50000000E-01  8.00000000E-01
  8.50000000E-01  8.50000000E-01  8.50000000E-01  8.00000000E-01  8.50000000E-01
  8.50000000E-01  8.50000000E-01  8.00000000E-01  8.50000000E-01  8.50000000E-01
  8.50000000E-01  8.00000000E-01  8.50000000E-01  8.50000000E-01  8.50000000E-01
  8.00000000E-01  8.50000000E-01  8.50000000E-01  8.50000000E-01  8.00000000E-01
  8.50000000E-01  8.50000000E-01  8.50000000E-01  8.00000000E-01  8.50000000E-01
  8.50000000E-01  8.50000000E-01  8.00000000E-01  8.50000000E-01  8.50000000E-01
  8.50000000E-01  8.00000000E-01  8.50000000E-01  8.50000000E-01  8.50000000E-01
  8.00000000E-01  8.50000000E-01  8.50000000E-01  8.50000000E-01  8.00000000E-01
  8.50000000E-01  8.50000000E-01  8.50000000E-01  8.00000000E-01  8.50000000E-01
  8.50000000E-01  8.50000000E-01  8.00000000E-01  8.50000000E-01  8.50000000E-01
  8.50000000E-01  8.00000000E-01  8.50000000E-01  8.50000000E-01  8.50000000E-01
  8.00000000E-01  8.50000000E-01  8.50000000E-01  8.50000000E-01  8.00000000E-01
  8.50000000E-01  8.50000000E-01  8.50000000E-01  8.00000000E-01  8.50000000E-01
  8.50000000E-01  8.50000000E-01  8.00000000E-01  8.50000000E-01  8.50000000E-01
  8.50000000E-01  8.00000000E-01  8.50000000E-01  8.50000000E-01  8.50000000E-01
  8.00000000E-01  8.50000000E-01  8.50000000E-01  8.50000000E-01  8.00000000E-01
  8.50000000E-01  8.50000000E-01  8.50000000E-01  8.00000000E-01  8.50000000E-01
  8.50000000E-01  8.50000000E-01  8.00000000E-01  8.50000000E-01  8.50000000E-01
  8.50000000E-01  8.00000000E-01  8.50000000E-01  8.50000000E-01  8.50000000E-01
  8.00000000E-01  8.50000000E-01  8.50000000E-01  8.50000000E-01  8.00000000E-01
  8.50000000E-01  8.50000000E-01  8.50000000E-01  8.00000000E-01  8.50000000E-01
  8.50000000E-01  8.50000000E-01  8.00000000E-01  8.50000000E-01  8.50000000E-01
  8.50000000E-01  8.00000000E-01  8.50000000E-01  8.50000000E-01  8.50000000E-01
  8.00000000E-01  8.50000000E-01  8.50000000E-01  8.50000000E-01  8.00000000E-01
  8.50000000E-01  8.50000000E-01  8.50000000E-01  8.00000000E-01  8.50000000E-01
  8.50000000E-01  8.50000000E-01  8.00000000E-01  8.50000000E-01  8.50000000E-01
  8.50000000E-01  8.00000000E-01  8.50000000E-01  8.50000000E-01  8.50000000E-01
  8.00000000E-01  8.50000000E-01  8.50000000E-01  8.50000000E-01  8.00000000E-01
  8.50000000E-01  8.50000000E-01  8.50000000E-01  8.00000000E-01  8.50000000E-01
  8.50000000E-01  8.50000000E-01  8.00000000E-01  8.50000000E-01  8.50000000E-01
  8.50000000E-01  8.00000000E-01  8.50000000E-01  8.50000000E-01  8.50000000E-01
  8.00000000E-01  8.50000000E-01  8.50000000E-01  8.50000000E-01  8.00000000E-01
  8.50000000E-01  8.50000000E-01  8.50000000E-01  8.00000000E-01  8.50000000E-01
  8.50000000E-01  8.50000000E-01  8.00000000E-01  8.50000000E-01  8.50000000E-01
  8.50000000E-01  8.00000000E-01  8.50000000E-01  8.50000000E-01  8.50000000E-01
  8.00000000E-01  8.50000000E-01  8.50000000E-01  8.50000000E-01  8.00000000E-01
  8.50000000E-01  8.50000000E-01  8.50000000E-01  8.00000000E-01  8.50000000E-01
  8.50000000E-01  8.50000000E-01  8.00000000E-01  8.50000000E-01  8.50000000E-01
  8.50000000E-01  8.00000000E-01  8.50000000E-01  8.50000000E-01  8.50000000E-01
  8.00000000E-01  8.50000000E-01  8.50000000E-01  8.50000000E-01  8.00000000E-01
  8.50000000E-01  8.50000000E-01  8.50000000E-01  8.00000000E-01  8.50000000E-01
  8.50000000E-01  8.50000000E-01  8.00000000E-01  8.50000000E-01  8.50000000E-01
  8.50000000E-01  8.00000000E-01  8.50000000E-01  8.50000000E-01  8.50000000E-01
  8.00000000E-01  8.50000000E-01  8.50000000E-01  8.50000000E-01  8.00000000E-01
  8.50000000E-01  8.50000000E-01  8.50000000E-01  8.00000000E-01  8.50000000E-01
  8.50000000E-01  8.50000000E-01  8.00000000E-01  8.50000000E-01  8.50000000E-01
  8.50000000E-01  8.00000000E-01  8.50000000E-01  8.50000000E-01  8.50000000E-01
  8.00000000E-01  8.50000000E-01  8.50000000E-01  8.50000000E-01  8.00000000E-01
  8.50000000E-01  8.50000000E-01  8.50000000E-01  8.00000000E-01  8.50000000E-01
  8.50000000E-01  8.50000000E-01  8.00000000E-01  8.50000000E-01  8.50000000E-01
  8.50000000E-01  8.00000000E-01  8.50000000E-01  8.50000000E-01  8.50000000E-01
  8.00000000E-01  8.50000000E-01  8.50000000E-01  8.50000000E-01  8.00000000E-01
  8.50000000E-01  8.50000000E-01  8.50000000E-01  8.00000000E-01  8.50000000E-01
  8.50000000E-01  8.50000000E-01  8.00000000E-01  8.50000000E-01  8.50000000E-01
  8.50000000E-01  8.00000000E-01  8.50000000E-01  8.50000000E-01  8.50000000E-01
  8.00000000E-01  8.50000000E-01  8.50000000E-01  8.50000000E-01  8.00000000E-01
  8.50000000E-01  8.50000000E-01  8.50000000E-01  8.00000000E-01  8.50000000E-01
  8.50000000E-01  8.50000000E-01  8.00000000E-01  8.50000000E-01  8.50000000E-01
  8.50000000E-01  8.00000000E-01  8.50000000E-01  8.50000000E-01  8.50000000E-01
  8.00000000E-01  8.50000000E-01  8.50000000E-01  8.50000000E-01  8.00000000E-01
  8.50000000E-01  8.50000000E-01  8.50000000E-01  8.00000000E-01  8.50000000E-01
  8.50000000E-01  8.50000000E-01  8.00000000E-01  8.50000000E-01  8.50000000E-01
  8.50000000E-01  8.00000000E-01  8.50000000E-01  8.50000000E-01  8.50000000E-01
  8.00000000E-01  8.50000000E-01  8.50000000E-01  8.50000000E-01  8.00000000E-01
  8.50000000E-01  8.50000000E-01  8.50000000E-01  8.00000000E-01  8.50000000E-01
  8.50000000E-01  8.50000000E-01  8.00000000E-01  8.50000000E-01  8.50000000E-01
  8.50000000E-01  8.00000000E-01  8.50000000E-01  8.50000000E-01  8.50000000E-01
  8.00000000E-01  8.50000000E-01  8.50000000E-01  8.50000000E-01  8.00000000E-01
  8.50000000E-01  8.50000000E-01  8.50000000E-01  8.00000000E-01  8.50000000E-01
  8.50000000E-01  8.50000000E-01  8.00000000E-01  8.50000000E-01  8.50000000E-01
  8.50000000E-01  8.00000000E-01  8.50000000E-01  8.50000000E-01  8.50000000E-01
  8.00000000E-01  8.50000000E-01  8.50000000E-01  8.50000000E-01  8.00000000E-01
  8.50000000E-01  8.50000000E-01  8.50000000E-01  8.00000000E-01  8.50000000E-01
  8.50000000E-01  8.50000000E-01  8.00000000E-01  8.50000000E-01  8.50000000E-01
  8.50000000E-01  8.00000000E-01  8.50000000E-01  8.50000000E-01  8.50000000E-01
  8.00000000E-01  8.50000000E-01  8.50000000E-01  8.50000000E-01  8.00000000E-01
  8.50000000E-01  8.50000000E-01  8.50000000E-01  8.00000000E-01  8.50000000E-01
  8.50000000E-01  8.50000000E-01  8.00000000E-01  8.50000000E-01  8.50000000E-01
  8.50000000E-01  8.00000000E-01  8.50000000E-01  8.50000000E-01  8.50000000E-01
  8.00000000E-01  8.50000000E-01  8.50000000E-01  8.50000000E-01  8.00000000E-01
  8.50000000E-01  8.50000000E-01  8.50000000E-01  8.00000000E-01  8.50000000E-01
  8.50000000E-01  8.50000000E-01  8.00000000E-01  8.50000000E-01  8.50000000E-01
  8.50000000E-01  8.00000000E-01  8.50000000E-01  8.50000000E-01  8.50000000E-01
  8.00000000E-01  8.50000000E-01  8.50000000E-01  8.50000000E-01  8.00000000E-01
  8.50000000E-01  8.50000000E-01  8.50000000E-01  8.00000000E-01  8.50000000E-01
  8.50000000E-01  8.50000000E-01  8.00000000E-01  8.50000000E-01  8.50000000E-01
  8.50000000E-01  8.00000000E-01  8.50000000E-01  8.50000000E-01  8.50000000E-01
  8.00000000E-01  8.50000000E-01  8.50000000E-01  8.50000000E-01  8.00000000E-01
  8.50000000E-01  8.50000000E-01  8.50000000E-01  8.00000000E-01  8.50000000E-01
  8.50000000E-01  8.50000000E-01  8.00000000E-01  8.50000000E-01  8.50000000E-01
  8.50000000E-01  8.00000000E-01  8.50000000E-01  8.50000000E-01  8.50000000E-01
  8.00000000E-01  8.50000000E-01  8.50000000E-01  8.50000000E-01  8.00000000E-01
  8.50000000E-01  8.50000000E-01  8.50000000E-01  8.00000000E-01  8.50000000E-01
  8.50000000E-01  8.50000000E-01  8.00000000E-01  8.50000000E-01  8.50000000E-01
  8.50000000E-01  8.00000000E-01  8.50000000E-01  8.50000000E-01  8.50000000E-01
  8.00000000E-01  8.50000000E-01  8.50000000E-01  8.50000000E-01  8.00000000E-01
  8.50000000E-01  8.50000000E-01  8.50000000E-01  8.00000000E-01  8.50000000E-01
  8.50000000E-01  8.50000000E-01  8.00000000E-01  8.50000000E-01  8.50000000E-01
  8.50000000E-01  8.00000000E-01  8.50000000E-01  8.50000000E-01  8.50000000E-01
  8.00000000E-01  8.50000000E-01  8.50000000E-01  8.50000000E-01  8.00000000E-01
  8.50000000E-01  8.50000000E-01  8.50000000E-01  8.00000000E-01  8.50000000E-01
  8.50000000E-01  8.50000000E-01  8.00000000E-01  8.50000000E-01  8.50000000E-01
  8.50000000E-01  8.00000000E-01  8.50000000E-01  8.50000000E-01  8.50000000E-01
  8.00000000E-01  8.50000000E-01  8.50000000E-01  8.50000000E-01  8.00000000E-01
  8.50000000E-01  8.50000000E-01  8.50000000E-01  8.00000000E-01  8.50000000E-01
  8.50000000E-01  8.50000000E-01  8.00000000E-01  8.50000000E-01  8.50000000E-01
  8.50000000E-01  8.00000000E-01  8.50000000E-01  8.50000000E-01  8.50000000E-01
  8.00000000E-01  8.50000000E-01  8.50000000E-01  8.50000000E-01  8.00000000E-01
  8.50000000E-01  8.50000000E-01  8.50000000E-01  8.00000000E-01  8.50000000E-01
  8.50000000E-01  8.50000000E-01  8.00000000E-01  8.50000000E-01  8.50000000E-01
  8.50000000E-01  8.00000000E-01  8.50000000E-01  8.50000000E-01  8.50000000E-01
  8.00000000E-01  8.50000000E-01  8.50000000E-01  8.50000000E-01  8.00000000E-01
  8.50000000E-01  8.50000000E-01  8.50000000E-01  8.00000000E-01  8.50000000E-01
  8.50000000E-01  8.50000000E-01  8.00000000E-01  8.50000000E-01  8.50000000E-01
  8.50000000E-01  8.00000000E-01  8.50000000E-01  8.50000000E-01  8.50000000E-01
  8.00000000E-01  8.50000000E-01  8.50000000E-01  8.50000000E-01  8.00000000E-01
  8.50000000E-01  8.50000000E-01  8.50000000E-01  8.00000000E-01  8.50000000E-01
  8.50000000E-01  8.50000000E-01  8.00000000E-01  8.50000000E-01  8.50000000E-01
  8.50000000E-01  8.00000000E-01  8.50000000E-01  8.50000000E-01  8.50000000E-01
  8.00000000E-01  8.50000000E-01  8.50000000E-01  8.50000000E-01  8.00000000E-01
  8.50000000E-01  8.50000000E-01  8.50000000E-01  8.00000000E-01  8.50000000E-01
  8.50000000E-01  8.50000000E-01  8.00000000E-01  8.50000000E-01  8.50000000E-01
  8.50000000E-01  8.00000000E-01  8.50000000E-01  8.50000000E-01  8.50000000E-01
  8.00000000E-01  8.50000000E-01  8.50000000E-01  8.50000000E-01  8.00000000E-01
  8.50000000E-01  8.50000000E-01  8.50000000E-01  8.00000000E-01  8.50000000E-01
  8.50000000E-01  8.50000000E-01  8.00000000E-01  8.50000000E-01  8.50000000E-01
  8.50000000E-01  8.00000000E-01  8.50000000E-01  8.50000000E-01  8.50000000E-01
  8.00000000E-01  8.50000000E-01  8.50000000E-01  8.50000000E-01  8.00000000E-01
  8.50000000E-01  8.50000000E-01  8.50000000E-01  8.00000000E-01  8.50000000E-01
  8.50000000E-01  8.50000000E-01  8.00000000E-01  8.50000000E-01  8.50000000E-01
  8.50000000E-01  8.00000000E-01  8.50000000E-01  8.50000000E-01  8.50000000E-01
  8.00000000E-01  8.50000000E-01  8.50000000E-01  8.50000000E-01  8.00000000E-01
  8.50000000E-01  8.50000000E-01  8.50000000E-01  8.00000000E-01  8.50000000E-01
  8.50000000E-01  8.50000000E-01  8.00000000E-01  8.50000000E-01  8.50000000E-01
  8.50000000E-01  8.00000000E-01  8.50000000E-01  8.50000000E-01  8.50000000E-01
  8.00000000E-01  8.50000000E-01  8.50000000E-01  8.50000000E-01  8.00000000E-01
  8.50000000E-01  8.50000000E-01  8.50000000E-01  8.00000000E-01  8.50000000E-01
  8.50000000E-01  8.50000000E-01  8.00000000E-01  8.50000000E-01  8.50000000E-01
  8.50000000E-01  8.00000000E-01  8.50000000E-01  8.50000000E-01  8.50000000E-01
  8.00000000E-01  8.50000000E-01  8.50000000E-01  8.50000000E-01  8.00000000E-01
  8.50000000E-01  8.50000000E-01  8.50000000E-01  8.00000000E-01  8.50000000E-01
  8.50000000E-01  8.50000000E-01  8.00000000E-01  8.50000000E-01  8.50000000E-01
  8.50000000E-01  8.00000000E-01  8.50000000E-01  8.50000000E-01  8.50000000E-01
  8.00000000E-01  8.50000000E-01  8.50000000E-01  8.50000000E-01  8.00000000E-01
  8.50000000E-01  8.50000000E-01  8.50000000E-01  8.00000000E-01  8.50000000E-01
  8.50000000E-01  8.50000000E-01  8.00000000E-01  8.50000000E-01  8.50000000E-01
  8.50000000E-01  8.00000000E-01  8.50000000E-01  8.50000000E-01  8.50000000E-01
  8.00000000E-01  8.50000000E-01  8.50000000E-01  8.50000000E-01  8.00000000E-01
  8.50000000E-01  8.50000000E-01  8.50000000E-01  8.00000000E-01  8.50000000E-01
  8.50000000E-01  8.50000000E-01  8.00000000E-01  8.50000000E-01  8.50000000E-01
  8.50000000E-01  8.00000000E-01  8.50000000E-01  8.50000000E-01  8.50000000E-01
  8.00000000E-01  8.50000000E-01  8.50000000E-01  8.50000000E-01  8.00000000E-01
  8.50000000E-01  8.50000000E-01  8.50000000E-01  8.00000000E-01  8.50000000E-01
  8.50000000E-01  8.50000000E-01  8.00000000E-01  8.50000000E-01  8.50000000E-01
  8.50000000E-01  8.00000000E-01  8.50000000E-01  8.50000000E-01  8.50000000E-01
  8.00000000E-01  8.50000000E-01  8.50000000E-01  8.50000000E-01  8.00000000E-01
  8.50000000E-01  8.50000000E-01  8.50000000E-01  8.00000000E-01  8.50000000E-01
  8.50000000E-01  8.50000000E-01  8.00000000E-01  8.50000000E-01  8.50000000E-01
  8.50000000E-01  8.00000000E-01  8.50000000E-01  8.50000000E-01  8.50000000E-01
  8.00000000E-01  8.50000000E-01  8.50000000E-01  8.50000000E-01  8.00000000E-01
  8.50000000E-01  8.50000000E-01  8.50000000E-01  8.00000000E-01  8.50000000E-01
  8.50000000E-01  8.50000000E-01  8.00000000E-01  8.50000000E-01  8.50000000E-01
  8.50000000E-01  8.00000000E-01  8.50000000E-01  8.50000000E-01  8.50000000E-01
  8.00000000E-01  8.50000000E-01  8.50000000E-01  8.50000000E-01  8.00000000E-01
  8.50000000E-01  8.50000000E-01  8.50000000E-01  8.00000000E-01  8.50000000E-01
  8.50000000E-01  8.50000000E-01  8.00000000E-01  8.50000000E-01  8.50000000E-01
  8.50000000E-01  8.00000000E-01  8.50000000E-01  8.50000000E-01  8.50000000E-01
  8.00000000E-01  8.50000000E-01  8.50000000E-01  8.50000000E-01  8.00000000E-01
  8.50000000E-01  8.50000000E-01  8.50000000E-01  8.00000000E-01  8.50000000E-01
  8.50000000E-01  8.50000000E-01  8.00000000E-01  8.50000000E-01  8.50000000E-01
  8.50000000E-01  8.00000000E-01  8.50000000E-01  8.50000000E-01  8.50000000E-01
  8.00000000E-01  8.50000000E-01  8.50000000E-01  8.50000000E-01  8.00000000E-01
  8.50000000E-01  8.50000000E-01  8.50000000E-01  8.00000000E-01  8.50000000E-01
  8.50000000E-01  8.50000000E-01  8.00000000E-01  8.50000000E-01  8.50000000E-01
  8.50000000E-01  8.00000000E-01  8.50000000E-01  8.50000000E-01  8.50000000E-01
  8.00000000E-01  8.50000000E-01  8.50000000E-01  8.50000000E-01  8.00000000E-01
  8.50000000E-01  8.50000000E-01  8.50000000E-01  8.00000000E-01  8.50000000E-01
  8.50000000E-01  8.50000000E-01  8.00000000E-01  8.50000000E-01  8.50000000E-01
  8.50000000E-01  8.00000000E-01  8.50000000E-01  8.50000000E-01  8.50000000E-01
  8.00000000E-01  8.50000000E-01  8.50000000E-01  8.50000000E-01  8.00000000E-01
  8.50000000E-01  8.50000000E-01  8.50000000E-01  8.00000000E-01  8.50000000E-01
  8.50000000E-01  8.50000000E-01  8.00000000E-01  8.50000000E-01  8.50000000E-01
  8.50000000E-01  8.00000000E-01  8.50000000E-01  8.50000000E-01  8.50000000E-01
  8.00000000E-01  8.50000000E-01  8.50000000E-01  8.50000000E-01  8.00000000E-01
  8.50000000E-01  8.50000000E-01  8.50000000E-01  8.00000000E-01  8.50000000E-01
  8.50000000E-01  8.50000000E-01  8.00000000E-01  8.50000000E-01  8.50000000E-01
  8.50000000E-01  8.00000000E-01  8.50000000E-01  8.50000000E-01  8.50000000E-01
  8.00000000E-01  8.50000000E-01  8.50000000E-01  8.50000000E-01  8.00000000E-01
  8.50000000E-01  8.50000000E-01  8.50000000E-01  8.00000000E-01  8.50000000E-01
  8.50000000E-01  8.50000000E-01  8.00000000E-01  8.50000000E-01  8.50000000E-01
  8.50000000E-01  8.00000000E-01  8.50000000E-01  8.50000000E-01  8.50000000E-01
  8.00000000E-01  8.50000000E-01  8.50000000E-01  8.50000000E-01  8.00000000E-01
  8.50000000E-01  8.50000000E-01  8.50000000E-01  8.00000000E-01  8.50000000E-01
  8.50000000E-01  8.50000000E-01  8.00000000E-01  8.50000000E-01  8.50000000E-01
  8.50000000E-01  8.00000000E-01  8.50000000E-01  8.50000000E-01  8.50000000E-01
  8.00000000E-01  8.50000000E-01  8.50000000E-01  8.50000000E-01  8.00000000E-01
  8.50000000E-01  8.50000000E-01  8.50000000E-01  8.00000000E-01  8.50000000E-01
  8.50000000E-01  8.50000000E-01  8.00000000E-01  8.50000000E-01  8.50000000E-01
  8.50000000E-01  8.00000000E-01  8.50000000E-01  8.50000000E-01  8.50000000E-01
  8.00000000E-01  8.50000000E-01  8.50000000E-01  8.50000000E-01  8.00000000E-01
  8.50000000E-01  8.50000000E-01  8.50000000E-01  8.00000000E-01  8.50000000E-01
  8.50000000E-01  8.50000000E-01  8.00000000E-01  8.50000000E-01  8.50000000E-01
  8.50000000E-01  8.00000000E-01  8.50000000E-01  8.50000000E-01  8.50000000E-01
  8.00000000E-01  8.50000000E-01  8.50000000E-01  8.50000000E-01  8.00000000E-01
  8.50000000E-01  8.50000000E-01  8.50000000E-01  8.00000000E-01  8.50000000E-01
  8.50000000E-01  8.50000000E-01  8.00000000E-01  8.50000000E-01  8.50000000E-01
  8.50000000E-01  8.00000000E-01  8.50000000E-01  8.50000000E-01  8.50000000E-01
  8.00000000E-01  8.50000000E-01  8.50000000E-01  8.50000000E-01  8.00000000E-01
  8.50000000E-01  8.50000000E-01  8.50000000E-01  8.00000000E-01  8.50000000E-01
  8.50000000E-01  8.50000000E-01  8.00000000E-01  8.50000000E-01  8.50000000E-01
  8.50000000E-01  8.00000000E-01  8.50000000E-01  8.50000000E-01  8.50000000E-01
  8.00000000E-01  8.50000000E-01  8.50000000E-01  8.50000000E-01  8.00000000E-01
  8.50000000E-01  8.50000000E-01  8.50000000E-01  8.00000000E-01  8.50000000E-01
  8.50000000E-01  8.50000000E-01  8.00000000E-01  8.50000000E-01  8.50000000E-01
  8.50000000E-01  8.00000000E-01  8.50000000E-01  8.50000000E-01  8.50000000E-01
  8.00000000E-01  8.50000000E-01  8.50000000E-01  8.50000000E-01  8.00000000E-01
  8.50000000E-01  8.50000000E-01  8.50000000E-01  8.00000000E-01  8.50000000E-01
  8.50000000E-01  8.50000000E-01  8.00000000E-01  8.50000000E-01  8.50000000E-01
  8.50000000E-01  8.00000000E-01  8.50000000E-01  8.50000000E-01  8.50000000E-01
  8.00000000E-01  8.50000000E-01  8.50000000E-01  8.50000000E-01  8.00000000E-01
  8.50000000E-01  8.50000000E-01  8.50000000E-01  8.00000000E-01  8.50000000E-01
  8.50000000E-01  8.50000000E-01  8.00000000E-01  8.50000000E-01  8.50000000E-01
  8.50000000E-01  8.00000000E-01  8.50000000E-01  8.50000000E-01  8.50000000E-01
  8.00000000E-01  8.50000000E-01  8.50000000E-01  8.50000000E-01  8.00000000E-01
  8.50000000E-01  8.50000000E-01  8.50000000E-01  8.00000000E-01  8.50000000E-01
  8.50000000E-01  8.50000000E-01  8.00000000E-01  8.50000000E-01  8.50000000E-01
  8.50000000E-01  8.00000000E-01  8.50000000E-01  8.50000000E-01  8.50000000E-01
  8.00000000E-01  8.50000000E-01  8.50000000E-01  8.50000000E-01  8.00000000E-01
  8.50000000E-01  8.50000000E-01  8.50000000E-01  8.00000000E-01  8.50000000E-01
  8.50000000E-01  8.50000000E-01  8.00000000E-01  8.50000000E-01  8.50000000E-01
  8.50000000E-01  8.00000000E-01  8.50000000E-01  8.50000000E-01  8.50000000E-01
  8.00000000E-01  8.50000000E-01  8.50000000E-01  8.50000000E-01  8.00000000E-01
  8.50000000E-01  8.50000000E-01  8.50000000E-01  8.00000000E-01  8.50000000E-01
  8.50000000E-01  8.50000000E-01  8.00000000E-01  8.50000000E-01  8.50000000E-01
  8.50000000E-01  8.00000000E-01  8.50000000E-01  8.50000000E-01  8.50000000E-01
  8.00000000E-01  8.50000000E-01  8.50000000E-01  8.50000000E-01  8.00000000E-01
  8.50000000E-01  8.50000000E-01  8.50000000E-01  8.00000000E-01  8.50000000E-01
  8.50000000E-01  8.50000000E-01  8.00000000E-01  8.50000000E-01  8.50000000E-01
  8.50000000E-01  8.00000000E-01  8.50000000E-01  8.50000000E-01  8.50000000E-01
  8.00000000E-01  8.50000000E-01  8.50000000E-01  8.50000000E-01  8.00000000E-01
  8.50000000E-01  8.50000000E-01  8.50000000E-01  8.00000000E-01  8.50000000E-01
  8.50000000E-01  8.50000000E-01  8.00000000E-01  8.50000000E-01  8.50000000E-01
  8.50000000E-01  8.00000000E-01  8.50000000E-01  8.50000000E-01  8.50000000E-01
  8.00000000E-01  8.50000000E-01  8.50000000E-01  8.50000000E-01  8.00000000E-01
  8.50000000E-01  8.50000000E-01  8.50000000E-01  8.00000000E-01  8.50000000E-01
  8.50000000E-01  8.50000000E-01  8.00000000E-01  8.50000000E-01  8.50000000E-01
  8.50000000E-01  8.00000000E-01  8.50000000E-01  8.50000000E-01  8.50000000E-01
  8.00000000E-01  8.50000000E-01  8.50000000E-01  8.50000000E-01  8.00000000E-01
  8.50000000E-01  8.50000000E-01  8.50000000E-01  8.00000000E-01  8.50000000E-01
  8.50000000E-01  8.50000000E-01  8.00000000E-01  8.50000000E-01  8.50000000E-01
  8.50000000E-01  8.00000000E-01  8.50000000E-01  8.50000000E-01  8.50000000E-01
  8.00000000E-01  8.50000000E-01  8.50000000E-01  8.50000000E-01  8.00000000E-01
  8.50000000E-01  8.50000000E-01  8.50000000E-01  8.00000000E-01  8.50000000E-01
  8.50000000E-01  8.50000000E-01  8.00000000E-01  8.50000000E-01  8.50000000E-01
  8.50000000E-01  8.00000000E-01  8.50000000E-01  8.50000000E-01  8.50000000E-01
  8.00000000E-01  8.50000000E-01  8.50000000E-01  8.50000000E-01  8.00000000E-01
  8.50000000E-01  8.50000000E-01  8.50000000E-01  8.00000000E-01  8.50000000E-01
  8.50000000E-01  8.50000000E-01  8.00000000E-01  8.50000000E-01  8.50000000E-01
  8.50000000E-01  8.00000000E-01  8.50000000E-01  8.50000000E-01  8.50000000E-01
  8.00000000E-01  8.50000000E-01  8.50000000E-01  8.50000000E-01  8.00000000E-01
  8.50000000E-01  8.50000000E-01  8.50000000E-01  8.00000000E-01  8.50000000E-01
  8.50000000E-01  8.50000000E-01  8.00000000E-01  8.50000000E-01  8.50000000E-01
  8.50000000E-01  8.00000000E-01  8.50000000E-01  8.50000000E-01  8.50000000E-01
  8.00000000E-01  8.50000000E-01  8.50000000E-01  8.50000000E-01  8.00000000E-01
  8.50000000E-01  8.50000000E-01  8.50000000E-01  8.00000000E-01  8.50000000E-01
  8.50000000E-01  8.50000000E-01  8.00000000E-01  8.50000000E-01  8.50000000E-01
  8.50000000E-01  8.00000000E-01  8.50000000E-01  8.50000000E-01  8.50000000E-01
  8.00000000E-01  8.50000000E-01  8.50000000E-01  8.50000000E-01  8.00000000E-01
  8.50000000E-01  8.50000000E-01  8.50000000E-01  8.00000000E-01  8.50000000E-01
  8.50000000E-01  8.50000000E-01  8.00000000E-01  8.50000000E-01  8.50000000E-01
  8.50000000E-01  8.00000000E-01  8.50000000E-01  8.50000000E-01  8.50000000E-01
  8.00000000E-01  8.50000000E-01  8.50000000E-01  8.50000000E-01  8.00000000E-01
  8.50000000E-01  8.50000000E-01  8.50000000E-01  8.00000000E-01  8.50000000E-01
  8.50000000E-01  8.50000000E-01  8.00000000E-01  8.50000000E-01  8.50000000E-01
  8.50000000E-01  8.00000000E-01  8.50000000E-01  8.50000000E-01  8.50000000E-01
  8.00000000E-01  8.50000000E-01  8.50000000E-01  8.50000000E-01  8.00000000E-01
  8.50000000E-01  8.50000000E-01  8.50000000E-01  8.00000000E-01  8.50000000E-01
  8.50000000E-01  8.50000000E-01  8.00000000E-01  8.50000000E-01  8.50000000E-01
  8.50000000E-01  8.00000000E-01  8.50000000E-01  8.50000000E-01  8.50000000E-01
  8.00000000E-01  8.50000000E-01  8.50000000E-01  8.50000000E-01  8.00000000E-01
  8.50000000E-01  8.50000000E-01  8.50000000E-01  8.00000000E-01  8.50000000E-01
  8.50000000E-01  8.50000000E-01  8.00000000E-01  8.50000000E-01  8.50000000E-01
  8.50000000E-01  8.00000000E-01  8.50000000E-01  8.50000000E-01  8.50000000E-01
  8.00000000E-01  8.50000000E-01  8.50000000E-01  8.50000000E-01  8.00000000E-01
  8.50000000E-01  8.50000000E-01  8.50000000E-01  8.00000000E-01  8.50000000E-01
  8.50000000E-01  8.50000000E-01  8.00000000E-01  8.50000000E-01  8.50000000E-01
  8.50000000E-01  8.00000000E-01  8.50000000E-01  8.50000000E-01  8.50000000E-01
  8.00000000E-01  8.50000000E-01  8.50000000E-01  8.50000000E-01  8.00000000E-01
  8.50000000E-01  8.50000000E-01  8.50000000E-01  8.00000000E-01  8.50000000E-01
  8.50000000E-01  8.50000000E-01  8.00000000E-01  8.50000000E-01  8.50000000E-01
  8.50000000E-01  8.00000000E-01  8.50000000E-01  8.50000000E-01  8.50000000E-01
  8.00000000E-01  8.50000000E-01  8.50000000E-01  8.50000000E-01  8.00000000E-01
  8.50000000E-01  8.50000000E-01  8.50000000E-01  8.00000000E-01  8.50000000E-01
  8.50000000E-01  8.50000000E-01  8.00000000E-01  8.50000000E-01  8.50000000E-01
  8.50000000E-01  8.00000000E-01  8.50000000E-01  8.50000000E-01  8.50000000E-01
  8.00000000E-01  8.50000000E-01  8.50000000E-01  8.50000000E-01  8.00000000E-01
  8.50000000E-01  8.50000000E-01  8.50000000E-01  8.00000000E-01  8.50000000E-01
  8.50000000E-01  8.50000000E-01  8.00000000E-01  8.50000000E-01  8.50000000E-01
  8.50000000E-01  8.00000000E-01  8.50000000E-01  8.50000000E-01  8.50000000E-01
  8.00000000E-01  8.50000000E-01  8.50000000E-01  8.50000000E-01  8.00000000E-01
  8.50000000E-01  8.50000000E-01  8.50000000E-01  8.00000000E-01  8.50000000E-01
  8.50000000E-01  8.50000000E-01  8.00000000E-01  8.50000000E-01  8.50000000E-01
  8.50000000E-01  8.00000000E-01  8.50000000E-01  8.50000000E-01  8.50000000E-01
  8.00000000E-01  8.50000000E-01  8.50000000E-01  8.50000000E-01  8.00000000E-01
  8.50000000E-01  8.50000000E-01  8.50000000E-01  8.00000000E-01  8.50000000E-01
  8.50000000E-01  8.50000000E-01  8.00000000E-01  8.50000000E-01  8.50000000E-01
  8.50000000E-01  8.00000000E-01  8.50000000E-01  8.50000000E-01  8.50000000E-01
  8.00000000E-01  8.50000000E-01  8.50000000E-01  8.50000000E-01  8.00000000E-01
  8.50000000E-01  8.50000000E-01  8.50000000E-01  8.00000000E-01  8.50000000E-01
  8.50000000E-01  8.50000000E-01  8.00000000E-01  8.50000000E-01  8.50000000E-01
  8.50000000E-01  8.00000000E-01  8.50000000E-01  8.50000000E-01  8.50000000E-01
  8.00000000E-01  8.50000000E-01  8.50000000E-01  8.50000000E-01  8.00000000E-01
  8.50000000E-01  8.50000000E-01  8.50000000E-01  8.00000000E-01  8.50000000E-01
  8.50000000E-01  8.50000000E-01  8.00000000E-01  8.50000000E-01  8.50000000E-01
  8.50000000E-01  8.00000000E-01  8.50000000E-01  8.50000000E-01  8.50000000E-01
  8.00000000E-01  8.50000000E-01  8.50000000E-01  8.50000000E-01  8.00000000E-01
  8.50000000E-01  8.50000000E-01  8.50000000E-01  8.00000000E-01  8.50000000E-01
  8.50000000E-01  8.50000000E-01  8.00000000E-01  8.50000000E-01  8.50000000E-01
  8.50000000E-01  8.00000000E-01  8.50000000E-01  8.50000000E-01  8.50000000E-01
  8.00000000E-01  8.50000000E-01  8.50000000E-01  8.50000000E-01  8.00000000E-01
  8.50000000E-01  8.50000000E-01  8.50000000E-01  8.00000000E-01  8.50000000E-01
  8.50000000E-01  8.50000000E-01  8.00000000E-01  8.50000000E-01  8.50000000E-01
  8.50000000E-01  8.00000000E-01  8.50000000E-01  8.50000000E-01  8.50000000E-01
  8.00000000E-01  8.50000000E-01  8.50000000E-01  8.50000000E-01  8.00000000E-01
  8.50000000E-01  8.50000000E-01  8.50000000E-01  8.00000000E-01  8.50000000E-01
  8.50000000E-01  8.50000000E-01  8.00000000E-01  8.50000000E-01  8.50000000E-01
  8.50000000E-01  8.00000000E-01  8.50000000E-01  8.50000000E-01  8.50000000E-01
  8.00000000E-01  8.50000000E-01  8.50000000E-01  8.50000000E-01  8.00000000E-01
  8.50000000E-01  8.50000000E-01  8.50000000E-01  8.00000000E-01  8.50000000E-01
  8.50000000E-01  8.50000000E-01  8.00000000E-01  8.50000000E-01  8.50000000E-01
  8.50000000E-01  8.00000000E-01  8.50000000E-01  8.50000000E-01  8.50000000E-01
  8.00000000E-01  8.50000000E-01  8.50000000E-01  8.50000000E-01  8.00000000E-01
  8.50000000E-01  8.50000000E-01  8.50000000E-01  8.00000000E-01  8.50000000E-01
  8.50000000E-01  8.50000000E-01  8.00000000E-01  8.50000000E-01  8.50000000E-01
  8.50000000E-01  8.00000000E-01  8.50000000E-01  8.50000000E-01  8.50000000E-01
  8.00000000E-01  8.50000000E-01  8.50000000E-01  8.50000000E-01  8.00000000E-01
  8.50000000E-01  8.50000000E-01  8.50000000E-01  8.00000000E-01  8.50000000E-01
  8.50000000E-01  8.50000000E-01  8.00000000E-01  8.50000000E-01  8.50000000E-01
  8.50000000E-01  8.00000000E-01  8.50000000E-01  8.50000000E-01  8.50000000E-01
  8.00000000E-01  8.50000000E-01  8.50000000E-01  8.50000000E-01  8.00000000E-01
  8.50000000E-01  8.50000000E-01  8.50000000E-01  8.00000000E-01  8.50000000E-01
  8.50000000E-01  8.50000000E-01  8.00000000E-01  8.50000000E-01  8.50000000E-01
  8.50000000E-01  8.00000000E-01  8.50000000E-01  8.50000000E-01  8.50000000E-01
  8.00000000E-01  8.50000000E-01  8.50000000E-01  8.50000000E-01  8.00000000E-01
  8.50000000E-01  8.50000000E-01  8.50000000E-01  8.00000000E-01  8.50000000E-01
  8.50000000E-01  8.50000000E-01  8.00000000E-01  8.50000000E-01  8.50000000E-01
  8.50000000E-01  8.00000000E-01  8.50000000E-01  8.50000000E-01  8.50000000E-01
  8.00000000E-01  8.50000000E-01  8.50000000E-01  8.50000000E-01  8.00000000E-01
  8.50000000E-01  8.50000000E-01  8.50000000E-01  8.00000000E-01  8.50000000E-01
  8.50000000E-01  8.50000000E-01  8.00000000E-01  8.50000000E-01  8.50000000E-01
  8.50000000E-01  8.00000000E-01  8.50000000E-01  8.50000000E-01  8.50000000E-01
  8.00000000E-01  8.50000000E-01  8.50000000E-01  8.50000000E-01  8.00000000E-01
  8.50000000E-01  8.50000000E-01  8.50000000E-01  8.00000000E-01  8.50000000E-01
  8.50000000E-01  8.50000000E-01  8.00000000E-01  8.50000000E-01  8.50000000E-01
  8.50000000E-01  8.00000000E-01  8.50000000E-01  8.50000000E-01  8.50000000E-01
  8.00000000E-01  8.50000000E-01  8.50000000E-01  8.50000000E-01  8.00000000E-01
  8.50000000E-01  8.50000000E-01  8.50000000E-01  8.00000000E-01  8.50000000E-01
  8.50000000E-01  8.50000000E-01  8.00000000E-01  8.50000000E-01  8.50000000E-01
  8.50000000E-01  8.00000000E-01  8.50000000E-01  8.50000000E-01  8.50000000E-01
  8.00000000E-01  8.50000000E-01  8.50000000E-01  8.50000000E-01  8.00000000E-01
  8.50000000E-01  8.50000000E-01  8.50000000E-01  8.00000000E-01  8.50000000E-01
  8.50000000E-01  8.50000000E-01  8.00000000E-01  8.50000000E-01  8.50000000E-01
  8.50000000E-01  8.00000000E-01  8.50000000E-01  8.50000000E-01  8.50000000E-01
  8.00000000E-01  8.50000000E-01  8.50000000E-01  8.50000000E-01  8.00000000E-01
  8.50000000E-01  8.50000000E-01  8.50000000E-01  8.00000000E-01  8.50000000E-01
  8.50000000E-01  8.50000000E-01  8.00000000E-01  8.50000000E-01  8.50000000E-01
  8.50000000E-01  8.00000000E-01  8.50000000E-01  8.50000000E-01  8.50000000E-01
  8.00000000E-01  8.50000000E-01  8.50000000E-01  8.50000000E-01  8.00000000E-01
  8.50000000E-01  8.50000000E-01  8.50000000E-01  8.00000000E-01  8.50000000E-01
  8.50000000E-01  8.50000000E-01  8.00000000E-01  8.50000000E-01  8.50000000E-01
  8.50000000E-01  8.00000000E-01  8.50000000E-01  8.50000000E-01  8.50000000E-01
  8.00000000E-01  8.50000000E-01  8.50000000E-01  8.50000000E-01  8.00000000E-01
  8.50000000E-01  8.50000000E-01  8.50000000E-01  8.00000000E-01  8.50000000E-01
  8.50000000E-01  8.50000000E-01  8.00000000E-01  8.50000000E-01  8.50000000E-01
  8.50000000E-01  8.00000000E-01  8.50000000E-01  8.50000000E-01  8.50000000E-01
  8.00000000E-01  8.50000000E-01  8.50000000E-01  8.50000000E-01  8.00000000E-01
  8.50000000E-01  8.50000000E-01  8.50000000E-01  8.00000000E-01  8.50000000E-01
  8.50000000E-01  8.50000000E-01  8.00000000E-01  8.50000000E-01  8.50000000E-01
  8.50000000E-01  8.00000000E-01  8.50000000E-01  8.50000000E-01  8.50000000E-01
  8.00000000E-01  8.50000000E-01  8.50000000E-01  8.50000000E-01  8.00000000E-01
  8.50000000E-01  8.50000000E-01  8.50000000E-01  8.00000000E-01  8.50000000E-01
  8.50000000E-01  8.50000000E-01  8.00000000E-01  8.50000000E-01  8.50000000E-01
  8.50000000E-01  8.00000000E-01  8.50000000E-01  8.50000000E-01  8.50000000E-01
  8.00000000E-01  8.50000000E-01  8.50000000E-01  8.50000000E-01  8.00000000E-01
  8.50000000E-01  8.50000000E-01  8.50000000E-01  8.00000000E-01  8.50000000E-01
  8.50000000E-01  8.50000000E-01  8.00000000E-01  8.50000000E-01  8.50000000E-01
  8.50000000E-01  8.00000000E-01  8.50000000E-01  8.50000000E-01  8.50000000E-01
  8.00000000E-01  8.50000000E-01  8.50000000E-01  8.50000000E-01  8.00000000E-01
  8.50000000E-01  8.50000000E-01  8.50000000E-01  8.00000000E-01  8.50000000E-01
  8.50000000E-01  8.50000000E-01  8.00000000E-01  8.50000000E-01  8.50000000E-01
  8.50000000E-01  8.00000000E-01  8.50000000E-01  8.50000000E-01  8.50000000E-01
  8.00000000E-01  8.50000000E-01  8.50000000E-01  8.50000000E-01  8.00000000E-01
  8.50000000E-01  8.50000000E-01  8.50000000E-01  8.00000000E-01  8.50000000E-01
  8.50000000E-01  8.50000000E-01  8.00000000E-01  8.50000000E-01  8.50000000E-01
  8.50000000E-01  8.00000000E-01  8.50000000E-01  8.50000000E-01  8.50000000E-01
  8.00000000E-01  8.50000000E-01  8.50000000E-01  8.50000000E-01  8.00000000E-01
  8.50000000E-01  8.50000000E-01  8.50000000E-01  8.00000000E-01  8.50000000E-01
  8.50000000E-01  8.50000000E-01  8.00000000E-01  8.50000000E-01  8.50000000E-01
  8.50000000E-01  8.00000000E-01  8.50000000E-01  8.50000000E-01  8.50000000E-01
  8.00000000E-01  8.50000000E-01  8.50000000E-01  8.50000000E-01  8.00000000E-01
  8.50000000E-01  8.50000000E-01  8.50000000E-01  8.00000000E-01  8.50000000E-01
  8.50000000E-01  8.50000000E-01  8.00000000E-01  8.50000000E-01  8.50000000E-01
  8.50000000E-01  8.00000000E-01  8.50000000E-01  8.50000000E-01  8.50000000E-01
  8.00000000E-01  8.50000000E-01  8.50000000E-01  8.50000000E-01  8.00000000E-01
  8.50000000E-01  8.50000000E-01  8.50000000E-01  8.00000000E-01  8.50000000E-01
  8.50000000E-01  8.50000000E-01  8.00000000E-01  8.50000000E-01  8.50000000E-01
  8.50000000E-01  8.00000000E-01  8.50000000E-01  8.50000000E-01  8.50000000E-01
  8.00000000E-01  8.50000000E-01  8.50000000E-01  8.50000000E-01  8.00000000E-01
  8.50000000E-01  8.50000000E-01  8.50000000E-01  8.00000000E-01  8.50000000E-01
  8.50000000E-01  8.50000000E-01  8.00000000E-01  8.50000000E-01  8.50000000E-01
  8.50000000E-01  8.00000000E-01  8.50000000E-01  8.50000000E-01  8.50000000E-01
  8.00000000E-01  8.50000000E-01  8.50000000E-01  8.50000000E-01  8.00000000E-01
  8.50000000E-01  8.50000000E-01  8.50000000E-01  8.00000000E-01  8.50000000E-01
  8.50000000E-01  8.50000000E-01  8.00000000E-01  8.50000000E-01  8.50000000E-01
  8.50000000E-01  8.00000000E-01  8.50000000E-01  8.50000000E-01  8.50000000E-01
  8.00000000E-01  8.50000000E-01  8.50000000E-01  8.50000000E-01  8.00000000E-01
  8.50000000E-01  8.50000000E-01  8.50000000E-01  8.00000000E-01  8.50000000E-01
  8.50000000E-01  8.50000000E-01  8.00000000E-01  8.50000000E-01  8.50000000E-01
  8.50000000E-01  8.00000000E-01  8.50000000E-01  8.50000000E-01  8.50000000E-01
  8.00000000E-01  8.50000000E-01  8.50000000E-01  8.50000000E-01  8.00000000E-01
  8.50000000E-01  8.50000000E-01  8.50000000E-01  8.00000000E-01  8.50000000E-01
  8.50000000E-01  8.50000000E-01  8.00000000E-01  8.50000000E-01  8.50000000E-01
  8.50000000E-01  8.00000000E-01  8.50000000E-01  8.50000000E-01  8.50000000E-01
  8.00000000E-01  8.50000000E-01  8.50000000E-01  8.50000000E-01  8.00000000E-01
  8.50000000E-01  8.50000000E-01  8.50000000E-01  8.00000000E-01  8.50000000E-01
  8.50000000E-01  8.50000000E-01  8.00000000E-01  8.50000000E-01  8.50000000E-01
  8.50000000E-01  8.00000000E-01  8.50000000E-01  8.50000000E-01  8.50000000E-01
  8.00000000E-01  8.50000000E-01  8.50000000E-01  8.50000000E-01  8.00000000E-01
  8.50000000E-01  8.50000000E-01  8.50000000E-01  8.00000000E-01  8.50000000E-01
  8.50000000E-01  8.50000000E-01  8.00000000E-01  8.50000000E-01  8.50000000E-01
  8.50000000E-01  8.00000000E-01  8.50000000E-01  8.50000000E-01  8.50000000E-01
  8.00000000E-01  8.50000000E-01  8.50000000E-01  8.50000000E-01  8.00000000E-01
  8.50000000E-01  8.50000000E-01  8.50000000E-01  8.00000000E-01  8.50000000E-01
  8.50000000E-01  8.50000000E-01  8.00000000E-01  8.50000000E-01  8.50000000E-01
  8.50000000E-01  8.00000000E-01  8.50000000E-01  8.50000000E-01  8.50000000E-01
  8.00000000E-01  8.50000000E-01  8.50000000E-01  8.50000000E-01  8.00000000E-01
  8.50000000E-01  8.50000000E-01  8.50000000E-01  8.00000000E-01  8.50000000E-01
  8.50000000E-01  8.50000000E-01  8.00000000E-01  8.50000000E-01  8.50000000E-01
  8.50000000E-01  8.00000000E-01  8.50000000E-01  8.50000000E-01  8.50000000E-01
  8.00000000E-01  8.50000000E-01  8.50000000E-01  8.50000000E-01  8.00000000E-01
  8.50000000E-01  8.50000000E-01  8.50000000E-01  8.00000000E-01  8.50000000E-01
  8.50000000E-01  8.50000000E-01  8.00000000E-01  8.50000000E-01  8.50000000E-01
  8.50000000E-01  8.00000000E-01  8.50000000E-01  8.50000000E-01  8.50000000E-01
  8.00000000E-01  8.50000000E-01  8.50000000E-01  8.50000000E-01  8.00000000E-01
  8.50000000E-01  8.50000000E-01  8.50000000E-01  8.00000000E-01  8.50000000E-01
  8.50000000E-01  8.50000000E-01  8.00000000E-01  8.50000000E-01  8.50000000E-01
  8.50000000E-01  8.00000000E-01  8.50000000E-01  8.50000000E-01  8.50000000E-01
  8.00000000E-01  8.50000000E-01  8.50000000E-01  8.50000000E-01  8.00000000E-01
  8.50000000E-01  8.50000000E-01  8.50000000E-01  8.00000000E-01  8.50000000E-01
  8.50000000E-01  8.50000000E-01  8.00000000E-01  8.50000000E-01  8.50000000E-01
  8.50000000E-01  8.00000000E-01  8.50000000E-01  8.50000000E-01  8.50000000E-01
  8.00000000E-01  8.50000000E-01  8.50000000E-01  8.50000000E-01  8.00000000E-01
  8.50000000E-01  8.50000000E-01  8.50000000E-01  8.00000000E-01  8.50000000E-01
  8.50000000E-01  8.50000000E-01  8.00000000E-01  8.50000000E-01  8.50000000E-01
  8.50000000E-01  8.00000000E-01  8.50000000E-01  8.50000000E-01  8.50000000E-01
  8.00000000E-01  8.50000000E-01  8.50000000E-01  8.50000000E-01  8.00000000E-01
  8.50000000E-01  8.50000000E-01  8.50000000E-01  8.00000000E-01  8.50000000E-01
  8.50000000E-01  8.50000000E-01  8.00000000E-01  8.50000000E-01  8.50000000E-01
  8.50000000E-01  8.00000000E-01  8.50000000E-01  8.50000000E-01  8.50000000E-01
  8.00000000E-01  8.50000000E-01  8.50000000E-01  8.50000000E-01  8.00000000E-01
  8.50000000E-01  8.50000000E-01  8.50000000E-01  8.00000000E-01  8.50000000E-01
  8.50000000E-01  8.50000000E-01  8.00000000E-01  8.50000000E-01  8.50000000E-01
  8.50000000E-01  8.00000000E-01  8.50000000E-01  8.50000000E-01  8.50000000E-01
  8.00000000E-01  8.50000000E-01  8.50000000E-01  8.50000000E-01  8.00000000E-01
  8.50000000E-01  8.50000000E-01  8.50000000E-01  8.00000000E-01  8.50000000E-01
  8.50000000E-01  8.50000000E-01  8.00000000E-01  8.50000000E-01  8.50000000E-01
  8.50000000E-01  8.00000000E-01  8.50000000E-01  8.50000000E-01  8.50000000E-01
  8.00000000E-01  8.50000000E-01  8.50000000E-01  8.50000000E-01  8.00000000E-01
  8.50000000E-01  8.50000000E-01  8.50000000E-01  8.00000000E-01  8.50000000E-01
  8.50000000E-01  8.50000000E-01  8.00000000E-01  8.50000000E-01  8.50000000E-01
  8.50000000E-01  8.00000000E-01  8.50000000E-01  8.50000000E-01  8.50000000E-01
  8.00000000E-01  8.50000000E-01  8.50000000E-01  8.50000000E-01  8.00000000E-01
  8.50000000E-01  8.50000000E-01  8.50000000E-01  8.00000000E-01  8.50000000E-01
  8.50000000E-01  8.50000000E-01  8.00000000E-01  8.50000000E-01  8.50000000E-01
  8.50000000E-01  8.00000000E-01  8.50000000E-01  8.50000000E-01  8.50000000E-01
  8.00000000E-01  8.50000000E-01  8.50000000E-01  8.50000000E-01  8.00000000E-01
  8.50000000E-01  8.50000000E-01  8.50000000E-01  8.00000000E-01  8.50000000E-01
  8.50000000E-01  8.50000000E-01  8.00000000E-01  8.50000000E-01  8.50000000E-01
  8.50000000E-01  8.00000000E-01  8.50000000E-01  8.50000000E-01  8.50000000E-01
  8.00000000E-01  8.50000000E-01  8.50000000E-01  8.50000000E-01  8.00000000E-01
  8.50000000E-01  8.50000000E-01  8.50000000E-01  8.00000000E-01  8.50000000E-01
  8.50000000E-01  8.50000000E-01  8.00000000E-01  8.50000000E-01  8.50000000E-01
  8.50000000E-01  8.00000000E-01  8.50000000E-01  8.50000000E-01  8.50000000E-01
  8.00000000E-01  8.50000000E-01  8.50000000E-01  8.50000000E-01  8.00000000E-01
  8.50000000E-01  8.50000000E-01  8.50000000E-01  8.00000000E-01  8.50000000E-01
  8.50000000E-01  8.50000000E-01  8.00000000E-01  8.50000000E-01  8.50000000E-01
  8.50000000E-01  8.00000000E-01  8.50000000E-01  8.50000000E-01  8.50000000E-01
  8.00000000E-01  8.50000000E-01  8.50000000E-01  8.50000000E-01  8.00000000E-01
  8.50000000E-01  8.50000000E-01  8.50000000E-01  8.00000000E-01  8.50000000E-01
  8.50000000E-01  8.50000000E-01  8.00000000E-01  8.50000000E-01  8.50000000E-01
  8.50000000E-01  8.00000000E-01  8.50000000E-01  8.50000000E-01  8.50000000E-01
  8.00000000E-01  8.50000000E-01  8.50000000E-01  8.50000000E-01  8.00000000E-01
  8.50000000E-01  8.50000000E-01  8.50000000E-01  8.00000000E-01  8.50000000E-01
  8.50000000E-01  8.50000000E-01  8.00000000E-01  8.50000000E-01  8.50000000E-01
  8.50000000E-01  8.00000000E-01  8.50000000E-01  8.50000000E-01  8.50000000E-01
  8.00000000E-01  8.50000000E-01  8.50000000E-01  8.50000000E-01  8.00000000E-01
  8.50000000E-01  8.50000000E-01  8.50000000E-01  8.00000000E-01  8.50000000E-01
  8.50000000E-01  8.50000000E-01  8.00000000E-01  8.50000000E-01  8.50000000E-01
  8.50000000E-01  8.00000000E-01  8.50000000E-01  8.50000000E-01  8.50000000E-01
  8.00000000E-01  8.50000000E-01  8.50000000E-01  8.50000000E-01  8.00000000E-01
  8.50000000E-01  8.50000000E-01  8.50000000E-01  8.00000000E-01  8.50000000E-01
  8.50000000E-01  8.50000000E-01  8.00000000E-01  8.50000000E-01  8.50000000E-01
  8.50000000E-01  8.00000000E-01  8.50000000E-01  8.50000000E-01  8.50000000E-01
  8.00000000E-01  8.50000000E-01  8.50000000E-01  8.50000000E-01  8.00000000E-01
  8.50000000E-01  8.50000000E-01  8.50000000E-01  8.00000000E-01  8.50000000E-01
  8.50000000E-01  8.50000000E-01  8.00000000E-01  8.50000000E-01  8.50000000E-01
  8.50000000E-01  8.00000000E-01  8.50000000E-01  8.50000000E-01  8.50000000E-01
  8.00000000E-01  8.50000000E-01  8.50000000E-01  8.50000000E-01  8.00000000E-01
  8.50000000E-01  8.50000000E-01  8.50000000E-01  8.00000000E-01  8.50000000E-01
  8.50000000E-01  8.50000000E-01  8.00000000E-01  8.50000000E-01  8.50000000E-01
  8.50000000E-01  8.00000000E-01  8.50000000E-01  8.50000000E-01  8.50000000E-01
  8.00000000E-01  8.50000000E-01  8.50000000E-01  8.50000000E-01  8.00000000E-01
  8.50000000E-01  8.50000000E-01  8.50000000E-01  8.00000000E-01  8.50000000E-01
  8.50000000E-01  8.50000000E-01  8.00000000E-01  8.50000000E-01  8.50000000E-01
  8.50000000E-01  8.00000000E-01  8.50000000E-01  8.50000000E-01  8.50000000E-01
  8.00000000E-01  8.50000000E-01  8.50000000E-01  8.50000000E-01  8.00000000E-01
  8.50000000E-01  8.50000000E-01  8.50000000E-01  8.00000000E-01  8.50000000E-01
  8.50000000E-01  8.50000000E-01  8.00000000E-01  8.50000000E-01  8.50000000E-01
  8.50000000E-01  8.00000000E-01  8.50000000E-01  8.50000000E-01  8.50000000E-01
  8.00000000E-01  8.50000000E-01  8.50000000E-01  8.50000000E-01  8.00000000E-01
  8.50000000E-01  8.50000000E-01  8.50000000E-01  8.00000000E-01  8.50000000E-01
  8.50000000E-01  8.50000000E-01  8.00000000E-01  8.50000000E-01  8.50000000E-01
  8.50000000E-01  8.00000000E-01  8.50000000E-01  8.50000000E-01  8.50000000E-01
  8.00000000E-01  8.50000000E-01  8.50000000E-01  8.50000000E-01  8.00000000E-01
  8.50000000E-01  8.50000000E-01  8.50000000E-01  8.00000000E-01  8.50000000E-01
  8.50000000E-01  8.50000000E-01  8.00000000E-01  8.50000000E-01  8.50000000E-01
  8.50000000E-01  8.00000000E-01  8.50000000E-01  8.50000000E-01  8.50000000E-01
  8.00000000E-01  8.50000000E-01  8.50000000E-01  8.50000000E-01  8.00000000E-01
  8.50000000E-01  8.50000000E-01  8.50000000E-01  8.00000000E-01  8.50000000E-01
  8.50000000E-01  8.50000000E-01  8.00000000E-01  8.50000000E-01  8.50000000E-01
  8.50000000E-01  8.00000000E-01  8.50000000E-01  8.50000000E-01  8.50000000E-01
  8.00000000E-01  8.50000000E-01  8.50000000E-01  8.50000000E-01  8.00000000E-01
  8.50000000E-01  8.50000000E-01  8.50000000E-01  8.00000000E-01  8.50000000E-01
  8.50000000E-01  8.50000000E-01  8.00000000E-01  8.50000000E-01  8.50000000E-01
  8.50000000E-01  8.00000000E-01  8.50000000E-01  8.50000000E-01  8.50000000E-01
  8.00000000E-01  8.50000000E-01  8.50000000E-01  8.50000000E-01  8.00000000E-01
  8.50000000E-01  8.50000000E-01  8.50000000E-01  8.00000000E-01  8.50000000E-01
  8.50000000E-01  8.50000000E-01  8.00000000E-01  8.50000000E-01  8.50000000E-01
  8.50000000E-01  8.00000000E-01  8.50000000E-01  8.50000000E-01  8.50000000E-01
  8.00000000E-01  8.50000000E-01  8.50000000E-01  8.50000000E-01  8.00000000E-01
  8.50000000E-01  8.50000000E-01  8.50000000E-01  8.00000000E-01  8.50000000E-01
  8.50000000E-01  8.50000000E-01  8.00000000E-01  8.50000000E-01  8.50000000E-01
  8.50000000E-01  8.00000000E-01  8.50000000E-01  8.50000000E-01  8.50000000E-01
  8.00000000E-01  8.50000000E-01  8.50000000E-01  8.50000000E-01  8.00000000E-01
  8.50000000E-01  8.50000000E-01  8.50000000E-01  8.00000000E-01  8.50000000E-01
  8.50000000E-01  8.50000000E-01  8.00000000E-01  8.50000000E-01  8.50000000E-01
  8.50000000E-01  8.00000000E-01  8.50000000E-01  8.50000000E-01  8.50000000E-01
  8.00000000E-01  8.50000000E-01  8.50000000E-01  8.50000000E-01  8.00000000E-01
  8.50000000E-01  8.50000000E-01  8.50000000E-01  8.00000000E-01  8.50000000E-01
  8.50000000E-01  8.50000000E-01  8.00000000E-01  8.50000000E-01  8.50000000E-01
  8.50000000E-01  8.00000000E-01  8.50000000E-01  8.50000000E-01  8.50000000E-01
  8.00000000E-01  8.50000000E-01  8.50000000E-01  8.50000000E-01  8.00000000E-01
  8.50000000E-01  8.50000000E-01  8.50000000E-01  8.00000000E-01  8.50000000E-01
  8.50000000E-01  8.50000000E-01  8.00000000E-01  8.50000000E-01  8.50000000E-01
  8.50000000E-01  8.00000000E-01  8.50000000E-01  8.50000000E-01  8.50000000E-01
  8.00000000E-01  8.50000000E-01  8.50000000E-01  8.50000000E-01  8.00000000E-01
  8.50000000E-01  8.50000000E-01  8.50000000E-01  8.00000000E-01  8.50000000E-01
  8.50000000E-01  8.50000000E-01  8.00000000E-01  8.50000000E-01  8.50000000E-01
  8.50000000E-01  8.00000000E-01  8.50000000E-01  8.50000000E-01  8.50000000E-01
  8.00000000E-01  8.50000000E-01  8.50000000E-01  8.50000000E-01  8.00000000E-01
  8.50000000E-01  8.50000000E-01  8.50000000E-01  8.00000000E-01  8.50000000E-01
  8.50000000E-01  8.50000000E-01  8.00000000E-01  8.50000000E-01  8.50000000E-01
  8.50000000E-01  8.00000000E-01  8.50000000E-01  8.50000000E-01  8.50000000E-01
  8.00000000E-01  8.50000000E-01  8.50000000E-01  8.50000000E-01  8.00000000E-01
  8.50000000E-01  8.50000000E-01  8.50000000E-01  8.00000000E-01  8.50000000E-01
  8.50000000E-01  8.50000000E-01  8.00000000E-01  8.50000000E-01  8.50000000E-01
  8.50000000E-01  8.00000000E-01  8.50000000E-01  8.50000000E-01  8.50000000E-01
  8.00000000E-01  8.50000000E-01  8.50000000E-01  8.50000000E-01  8.00000000E-01
  8.50000000E-01  8.50000000E-01  8.50000000E-01  8.00000000E-01  8.50000000E-01
  8.50000000E-01  8.50000000E-01  8.00000000E-01  8.50000000E-01  8.50000000E-01
  8.50000000E-01  8.00000000E-01  8.50000000E-01  8.50000000E-01  8.50000000E-01
  8.00000000E-01  8.50000000E-01  8.50000000E-01  8.50000000E-01  8.00000000E-01
  8.50000000E-01  8.50000000E-01  8.50000000E-01  8.00000000E-01  8.50000000E-01
  8.50000000E-01  8.50000000E-01  8.00000000E-01  8.50000000E-01  8.50000000E-01
  8.50000000E-01  8.00000000E-01  8.50000000E-01  8.50000000E-01  8.50000000E-01
  8.00000000E-01  8.50000000E-01  8.50000000E-01  8.50000000E-01  8.00000000E-01
  8.50000000E-01  8.50000000E-01  8.50000000E-01  8.00000000E-01  8.50000000E-01
  8.50000000E-01  8.50000000E-01  8.00000000E-01  8.50000000E-01  8.50000000E-01
  8.50000000E-01  8.00000000E-01  8.50000000E-01  8.50000000E-01  8.50000000E-01
  8.00000000E-01  8.50000000E-01  8.50000000E-01  8.50000000E-01  8.00000000E-01
  8.50000000E-01  8.50000000E-01  8.50000000E-01  8.00000000E-01  8.50000000E-01
  8.50000000E-01  8.50000000E-01  8.00000000E-01  8.50000000E-01  8.50000000E-01
  8.50000000E-01  8.00000000E-01  8.50000000E-01  8.50000000E-01  8.50000000E-01
  8.00000000E-01  8.50000000E-01  8.50000000E-01  8.50000000E-01  8.00000000E-01
  8.50000000E-01  8.50000000E-01  8.50000000E-01  8.00000000E-01  8.50000000E-01
  8.50000000E-01  8.50000000E-01  8.00000000E-01  8.50000000E-01  8.50000000E-01
  8.50000000E-01  8.00000000E-01  8.50000000E-01  8.50000000E-01  8.50000000E-01
  8.00000000E-01  8.50000000E-01  8.50000000E-01  8.50000000E-01  8.00000000E-01
  8.50000000E-01  8.50000000E-01  8.50000000E-01  8.00000000E-01  8.50000000E-01
  8.50000000E-01  8.50000000E-01  8.00000000E-01  8.50000000E-01  8.50000000E-01
  8.50000000E-01  8.00000000E-01  8.50000000E-01  8.50000000E-01  8.50000000E-01
  8.00000000E-01  8.50000000E-01  8.50000000E-01  8.50000000E-01  8.00000000E-01
  8.50000000E-01  8.50000000E-01  8.50000000E-01  8.00000000E-01  8.50000000E-01
  8.50000000E-01  8.50000000E-01  8.00000000E-01  8.50000000E-01  8.50000000E-01
  8.50000000E-01  8.00000000E-01  8.50000000E-01  8.50000000E-01  8.50000000E-01
  8.00000000E-01  8.50000000E-01  8.50000000E-01  8.50000000E-01  8.00000000E-01
  8.50000000E-01  8.50000000E-01  8.50000000E-01  8.00000000E-01  8.50000000E-01
  8.50000000E-01  8.50000000E-01  8.00000000E-01  8.50000000E-01  8.50000000E-01
  8.50000000E-01  8.00000000E-01  8.50000000E-01  8.50000000E-01  8.50000000E-01
  8.00000000E-01  8.50000000E-01  8.50000000E-01  8.50000000E-01  8.00000000E-01
  8.50000000E-01  8.50000000E-01  8.50000000E-01  8.00000000E-01  8.50000000E-01
  8.50000000E-01  8.50000000E-01  8.00000000E-01  8.50000000E-01  8.50000000E-01
  8.50000000E-01  8.00000000E-01  8.50000000E-01  8.50000000E-01  8.50000000E-01
  8.00000000E-01  8.50000000E-01  8.50000000E-01  8.50000000E-01  8.00000000E-01
  8.50000000E-01  8.50000000E-01  8.50000000E-01  8.00000000E-01  8.50000000E-01
  8.50000000E-01  8.50000000E-01  8.00000000E-01  8.50000000E-01  8.50000000E-01
  8.50000000E-01  8.00000000E-01  8.50000000E-01  8.50000000E-01  8.50000000E-01
  8.00000000E-01  8.50000000E-01  8.50000000E-01  8.50000000E-01  8.00000000E-01
  8.50000000E-01  8.50000000E-01  8.50000000E-01  8.00000000E-01  8.50000000E-01
  8.50000000E-01  8.50000000E-01  8.00000000E-01  8.50000000E-01  8.50000000E-01
  8.50000000E-01  8.00000000E-01  8.50000000E-01  8.50000000E-01  8.50000000E-01
  8.00000000E-01  8.50000000E-01  8.50000000E-01  8.50000000E-01  8.00000000E-01
  8.50000000E-01  8.50000000E-01  8.50000000E-01  8.00000000E-01  8.50000000E-01
  8.50000000E-01  8.50000000E-01  8.00000000E-01  8.50000000E-01  8.50000000E-01
  8.50000000E-01  8.00000000E-01  8.50000000E-01  8.50000000E-01  8.50000000E-01
  8.00000000E-01  8.50000000E-01  8.50000000E-01  8.50000000E-01  8.00000000E-01
  8.50000000E-01  8.50000000E-01  8.50000000E-01  8.00000000E-01  8.50000000E-01
  8.50000000E-01  8.50000000E-01  8.00000000E-01  8.50000000E-01  8.50000000E-01
  8.50000000E-01  8.00000000E-01  8.50000000E-01  8.50000000E-01  8.50000000E-01
  8.00000000E-01  8.50000000E-01  8.50000000E-01  8.50000000E-01  8.00000000E-01
  8.50000000E-01  8.50000000E-01  8.50000000E-01  8.00000000E-01  8.50000000E-01
  8.50000000E-01  8.50000000E-01  8.00000000E-01  8.50000000E-01  8.50000000E-01
  8.50000000E-01  8.00000000E-01  8.50000000E-01  8.50000000E-01  8.50000000E-01
  8.00000000E-01  8.50000000E-01  8.50000000E-01  8.50000000E-01  8.00000000E-01
  8.50000000E-01  8.50000000E-01  8.50000000E-01  8.00000000E-01  8.50000000E-01
  8.50000000E-01  8.50000000E-01  8.00000000E-01  8.50000000E-01  8.50000000E-01
  8.50000000E-01  8.00000000E-01  8.50000000E-01  8.50000000E-01  8.50000000E-01
  8.00000000E-01  8.50000000E-01  8.50000000E-01  8.50000000E-01  8.00000000E-01
  8.50000000E-01  8.50000000E-01  8.50000000E-01  8.00000000E-01  8.50000000E-01
  8.50000000E-01  8.50000000E-01  8.00000000E-01  8.50000000E-01  8.50000000E-01
  8.50000000E-01  8.00000000E-01  8.50000000E-01  8.50000000E-01  8.50000000E-01
  8.00000000E-01  8.50000000E-01  8.50000000E-01  8.50000000E-01  8.00000000E-01
  8.50000000E-01  8.50000000E-01  8.50000000E-01  8.00000000E-01  8.50000000E-01
  8.50000000E-01  8.50000000E-01  8.00000000E-01  8.50000000E-01  8.50000000E-01
  8.50000000E-01  8.00000000E-01  8.50000000E-01  8.50000000E-01  8.50000000E-01
  8.00000000E-01  8.50000000E-01  8.50000000E-01  8.50000000E-01  8.00000000E-01
  8.50000000E-01  8.50000000E-01  8.50000000E-01  8.00000000E-01  8.50000000E-01
  8.50000000E-01  8.50000000E-01  8.00000000E-01  8.50000000E-01  8.50000000E-01
  8.50000000E-01  8.00000000E-01  8.50000000E-01  8.50000000E-01  8.50000000E-01
  8.00000000E-01  8.50000000E-01  8.50000000E-01  8.50000000E-01  8.00000000E-01
  8.50000000E-01  8.50000000E-01  8.50000000E-01  8.00000000E-01  8.50000000E-01
  8.50000000E-01  8.50000000E-01  8.00000000E-01  8.50000000E-01  8.50000000E-01
  8.50000000E-01  8.00000000E-01  8.50000000E-01  8.50000000E-01  8.50000000E-01
  8.00000000E-01  8.50000000E-01  8.50000000E-01  8.50000000E-01  8.00000000E-01
  8.50000000E-01  8.50000000E-01  8.50000000E-01  8.00000000E-01  8.50000000E-01
  8.50000000E-01  8.50000000E-01  8.00000000E-01  8.50000000E-01  8.50000000E-01
  8.50000000E-01  8.00000000E-01  8.50000000E-01  8.50000000E-01  8.50000000E-01
  8.00000000E-01  8.50000000E-01  8.50000000E-01  8.50000000E-01  8.00000000E-01
  8.50000000E-01  8.50000000E-01  8.50000000E-01  8.00000000E-01  8.50000000E-01
  8.50000000E-01  8.50000000E-01  8.00000000E-01  8.50000000E-01  8.50000000E-01
  8.50000000E-01  8.00000000E-01  8.50000000E-01  8.50000000E-01  8.50000000E-01
  8.00000000E-01  8.50000000E-01  8.50000000E-01  8.50000000E-01  8.00000000E-01
  8.50000000E-01  8.50000000E-01  8.50000000E-01  8.00000000E-01  8.50000000E-01
  8.50000000E-01  8.50000000E-01  8.00000000E-01  8.50000000E-01  8.50000000E-01
  8.50000000E-01  8.00000000E-01  8.50000000E-01  8.50000000E-01  8.50000000E-01
  8.00000000E-01  8.50000000E-01  8.50000000E-01  8.50000000E-01  8.00000000E-01
  8.50000000E-01  8.50000000E-01  8.50000000E-01  8.00000000E-01  8.50000000E-01
  8.50000000E-01  8.50000000E-01  8.00000000E-01  8.50000000E-01  8.50000000E-01
  8.50000000E-01  8.00000000E-01  8.50000000E-01  8.50000000E-01  8.50000000E-01
  8.00000000E-01  8.50000000E-01  8.50000000E-01  8.50000000E-01  8.00000000E-01
  8.50000000E-01  8.50000000E-01  8.50000000E-01  8.00000000E-01  8.50000000E-01
  8.50000000E-01  8.50000000E-01  8.00000000E-01  8.50000000E-01  8.50000000E-01
  8.50000000E-01  8.00000000E-01  8.50000000E-01  8.50000000E-01  8.50000000E-01
  8.00000000E-01  8.50000000E-01  8.50000000E-01  8.50000000E-01  8.00000000E-01
  8.50000000E-01  8.50000000E-01  8.50000000E-01  8.00000000E-01  8.50000000E-01
  8.50000000E-01  8.50000000E-01  8.00000000E-01  8.50000000E-01  8.50000000E-01
  8.50000000E-01  8.00000000E-01  8.50000000E-01  8.50000000E-01  8.50000000E-01
  8.00000000E-01  8.50000000E-01  8.50000000E-01  8.50000000E-01  8.00000000E-01
  8.50000000E-01  8.50000000E-01  8.50000000E-01  8.00000000E-01  8.50000000E-01
  8.50000000E-01  8.50000000E-01  8.00000000E-01  8.50000000E-01  8.50000000E-01
  8.50000000E-01  8.00000000E-01  8.50000000E-01  8.50000000E-01  8.50000000E-01
  8.00000000E-01  8.50000000E-01  8.50000000E-01  8.50000000E-01  8.00000000E-01
  8.50000000E-01  8.50000000E-01  8.50000000E-01  8.00000000E-01  8.50000000E-01
  8.50000000E-01  8.50000000E-01  8.00000000E-01  8.50000000E-01  8.50000000E-01
  8.50000000E-01  8.00000000E-01  8.50000000E-01  8.50000000E-01  8.50000000E-01
  8.00000000E-01  8.50000000E-01  8.50000000E-01  8.50000000E-01  8.00000000E-01
  8.50000000E-01  8.50000000E-01  8.50000000E-01  8.00000000E-01  8.50000000E-01
  8.50000000E-01  8.50000000E-01  8.00000000E-01  8.50000000E-01  8.50000000E-01
  8.50000000E-01  8.00000000E-01  8.50000000E-01  8.50000000E-01  8.50000000E-01
  8.00000000E-01  8.50000000E-01  8.50000000E-01  8.50000000E-01  8.00000000E-01
  8.50000000E-01  8.50000000E-01  8.50000000E-01  8.00000000E-01  8.50000000E-01
  8.50000000E-01  8.50000000E-01  8.00000000E-01  8.50000000E-01  8.50000000E-01
  8.50000000E-01  8.00000000E-01  8.50000000E-01  8.50000000E-01  8.50000000E-01
  8.00000000E-01  8.50000000E-01  8.50000000E-01  8.50000000E-01  8.00000000E-01
  8.50000000E-01  8.50000000E-01  8.50000000E-01  8.00000000E-01  8.50000000E-01
  8.50000000E-01  8.50000000E-01  8.00000000E-01  8.50000000E-01  8.50000000E-01
  8.50000000E-01  8.00000000E-01  8.50000000E-01  8.50000000E-01  8.50000000E-01
  8.00000000E-01  8.50000000E-01  8.50000000E-01  8.50000000E-01  8.00000000E-01
  8.50000000E-01  8.50000000E-01  8.50000000E-01  8.00000000E-01  8.50000000E-01
  8.50000000E-01  8.50000000E-01  8.00000000E-01  8.50000000E-01  8.50000000E-01
  8.50000000E-01  8.00000000E-01  8.50000000E-01  8.50000000E-01  8.50000000E-01
  8.00000000E-01  8.50000000E-01  8.50000000E-01  8.50000000E-01  8.00000000E-01
  8.50000000E-01  8.50000000E-01  8.50000000E-01  8.00000000E-01  8.50000000E-01
  8.50000000E-01  8.50000000E-01  8.00000000E-01  8.50000000E-01  8.50000000E-01
  8.50000000E-01  8.00000000E-01  8.50000000E-01  8.50000000E-01  8.50000000E-01
  8.00000000E-01  8.50000000E-01  8.50000000E-01  8.50000000E-01  8.00000000E-01
  8.50000000E-01  8.50000000E-01  8.50000000E-01  8.00000000E-01  8.50000000E-01
  8.50000000E-01  8.50000000E-01  8.00000000E-01  8.50000000E-01  8.50000000E-01
  8.50000000E-01  8.00000000E-01  8.50000000E-01  8.50000000E-01  8.50000000E-01
  8.00000000E-01  8.50000000E-01  8.50000000E-01  8.50000000E-01  8.00000000E-01
  8.50000000E-01  8.50000000E-01  8.50000000E-01  8.00000000E-01  8.50000000E-01
  8.50000000E-01  8.50000000E-01  8.00000000E-01  8.50000000E-01  8.50000000E-01
  8.50000000E-01  8.00000000E-01  8.50000000E-01  8.50000000E-01  8.50000000E-01
  8.00000000E-01  8.50000000E-01  8.50000000E-01  8.50000000E-01  8.00000000E-01
  8.50000000E-01  8.50000000E-01  8.50000000E-01  8.00000000E-01  8.50000000E-01
  8.50000000E-01  8.50000000E-01  8.00000000E-01  8.50000000E-01  8.50000000E-01
  8.50000000E-01  8.00000000E-01  8.50000000E-01  8.50000000E-01  8.50000000E-01
  8.00000000E-01  8.50000000E-01  8.50000000E-01  8.50000000E-01  8.00000000E-01
  8.50000000E-01  8.50000000E-01  8.50000000E-01  8.00000000E-01  8.50000000E-01
  8.50000000E-01  8.50000000E-01  8.00000000E-01  8.50000000E-01  8.50000000E-01
  8.50000000E-01  8.00000000E-01  8.50000000E-01  8.50000000E-01  8.50000000E-01
  8.00000000E-01  8.50000000E-01  8.50000000E-01  8.50000000E-01  8.00000000E-01
  8.50000000E-01  8.50000000E-01  8.50000000E-01  8.00000000E-01  8.50000000E-01
  8.50000000E-01  8.50000000E-01  8.00000000E-01  8.50000000E-01  8.50000000E-01
  8.50000000E-01  8.00000000E-01  8.50000000E-01  8.50000000E-01  8.50000000E-01
  8.00000000E-01  8.50000000E-01  8.50000000E-01  8.50000000E-01  8.00000000E-01
  8.50000000E-01  8.50000000E-01  8.50000000E-01  8.00000000E-01  8.50000000E-01
  8.50000000E-01  8.50000000E-01  8.00000000E-01  8.50000000E-01  8.50000000E-01
  8.50000000E-01  8.00000000E-01  8.50000000E-01  8.50000000E-01  8.50000000E-01
  8.00000000E-01  8.50000000E-01  8.50000000E-01  8.50000000E-01  8.00000000E-01
  8.50000000E-01  8.50000000E-01  8.50000000E-01  8.00000000E-01  8.50000000E-01
  8.50000000E-01  8.50000000E-01  8.00000000E-01  8.50000000E-01  8.50000000E-01
  8.50000000E-01  8.00000000E-01  8.50000000E-01  8.50000000E-01  8.50000000E-01
  8.00000000E-01  8.50000000E-01  8.50000000E-01  8.50000000E-01  8.00000000E-01
  8.50000000E-01  8.50000000E-01  8.50000000E-01  8.00000000E-01  8.50000000E-01
  8.50000000E-01  8.50000000E-01  8.00000000E-01  8.50000000E-01  8.50000000E-01
  8.50000000E-01  8.00000000E-01  8.50000000E-01  8.50000000E-01  8.50000000E-01
  8.00000000E-01  8.50000000E-01  8.50000000E-01  8.50000000E-01  8.00000000E-01
  8.50000000E-01  8.50000000E-01  8.50000000E-01  8.00000000E-01  8.50000000E-01
  8.50000000E-01  8.50000000E-01  8.00000000E-01  8.50000000E-01  8.50000000E-01
  8.50000000E-01  8.00000000E-01  8.50000000E-01  8.50000000E-01  8.50000000E-01
  8.00000000E-01  8.50000000E-01  8.50000000E-01  8.50000000E-01  8.00000000E-01
  8.50000000E-01  8.50000000E-01  8.50000000E-01  8.00000000E-01  8.50000000E-01
  8.50000000E-01  8.50000000E-01  8.00000000E-01  8.50000000E-01  8.50000000E-01
  8.50000000E-01  8.00000000E-01  8.50000000E-01  8.50000000E-01  8.50000000E-01
  8.00000000E-01  8.50000000E-01  8.50000000E-01  8.50000000E-01  8.00000000E-01
  8.50000000E-01  8.50000000E-01  8.50000000E-01  8.00000000E-01  8.50000000E-01
  8.50000000E-01  8.50000000E-01  8.00000000E-01  8.50000000E-01  8.50000000E-01
  8.50000000E-01  8.00000000E-01  8.50000000E-01  8.50000000E-01  8.50000000E-01
  8.00000000E-01  8.50000000E-01  8.50000000E-01  8.50000000E-01  8.00000000E-01
  8.50000000E-01  8.50000000E-01  8.50000000E-01  8.00000000E-01  8.50000000E-01
  8.50000000E-01  8.50000000E-01  8.00000000E-01  8.50000000E-01  8.50000000E-01
  8.50000000E-01  8.00000000E-01  8.50000000E-01  8.50000000E-01  8.50000000E-01
  8.00000000E-01  8.50000000E-01  8.50000000E-01  8.50000000E-01  8.00000000E-01
  8.50000000E-01  8.50000000E-01  8.50000000E-01  8.00000000E-01  8.50000000E-01
  8.50000000E-01  8.50000000E-01  8.00000000E-01  8.50000000E-01  8.50000000E-01
  8.50000000E-01  8.00000000E-01  8.50000000E-01  8.50000000E-01  8.50000000E-01
  8.00000000E-01  8.50000000E-01  8.50000000E-01  8.50000000E-01  8.00000000E-01
  8.50000000E-01  8.50000000E-01  8.50000000E-01  8.00000000E-01  8.50000000E-01
  8.50000000E-01  8.50000000E-01  8.00000000E-01  8.50000000E-01  8.50000000E-01
  8.50000000E-01  8.00000000E-01  8.50000000E-01  8.50000000E-01  8.50000000E-01
  8.00000000E-01  8.50000000E-01  8.50000000E-01  8.50000000E-01  8.00000000E-01
  8.50000000E-01  8.50000000E-01  8.50000000E-01  8.00000000E-01  8.50000000E-01
  8.50000000E-01  8.50000000E-01  8.00000000E-01  8.50000000E-01  8.50000000E-01
  8.50000000E-01  8.00000000E-01  8.50000000E-01  8.50000000E-01  8.50000000E-01
  8.00000000E-01  8.50000000E-01  8.50000000E-01  8.50000000E-01  8.00000000E-01
  8.50000000E-01  8.50000000E-01  8.50000000E-01  8.00000000E-01  8.50000000E-01
  8.50000000E-01  8.50000000E-01  8.00000000E-01  8.50000000E-01  8.50000000E-01
  8.50000000E-01  8.00000000E-01  8.50000000E-01  8.50000000E-01  8.50000000E-01
  8.00000000E-01  8.50000000E-01  8.50000000E-01  8.50000000E-01  8.00000000E-01
  8.50000000E-01  8.50000000E-01  8.50000000E-01  8.00000000E-01  8.50000000E-01
  8.50000000E-01  8.50000000E-01  8.00000000E-01  8.50000000E-01  8.50000000E-01
  8.50000000E-01  8.00000000E-01  8.50000000E-01  8.50000000E-01  8.50000000E-01
  8.00000000E-01  8.50000000E-01  8.50000000E-01  8.50000000E-01  8.00000000E-01
  8.50000000E-01  8.50000000E-01  8.50000000E-01  8.00000000E-01  8.50000000E-01
  8.50000000E-01  8.50000000E-01  8.00000000E-01  8.50000000E-01  8.50000000E-01
  8.50000000E-01  8.00000000E-01  8.50000000E-01  8.50000000E-01  8.50000000E-01
  8.00000000E-01  8.50000000E-01  8.50000000E-01  8.50000000E-01  8.00000000E-01
  8.50000000E-01  8.50000000E-01  8.50000000E-01  8.00000000E-01  8.50000000E-01
  8.50000000E-01  8.50000000E-01  8.00000000E-01  8.50000000E-01  8.50000000E-01
  8.50000000E-01  8.00000000E-01  8.50000000E-01  8.50000000E-01  8.50000000E-01
  8.00000000E-01  8.50000000E-01  8.50000000E-01  8.50000000E-01  8.00000000E-01
  8.50000000E-01  8.50000000E-01  8.50000000E-01  8.00000000E-01  8.50000000E-01
  8.50000000E-01  8.50000000E-01  8.00000000E-01  8.50000000E-01  8.50000000E-01
  8.50000000E-01  8.00000000E-01  8.50000000E-01  8.50000000E-01  8.50000000E-01
  8.00000000E-01  8.50000000E-01  8.50000000E-01  8.50000000E-01  8.00000000E-01
  8.50000000E-01  8.50000000E-01  8.50000000E-01  8.00000000E-01  8.50000000E-01
  8.50000000E-01  8.50000000E-01  8.00000000E-01  8.50000000E-01  8.50000000E-01
  8.50000000E-01  8.00000000E-01  8.50000000E-01  8.50000000E-01  8.50000000E-01
  8.00000000E-01  8.50000000E-01  8.50000000E-01  8.50000000E-01  8.00000000E-01
  8.50000000E-01  8.50000000E-01  8.50000000E-01  8.00000000E-01  8.50000000E-01
  8.50000000E-01  8.50000000E-01  8.00000000E-01  8.50000000E-01  8.50000000E-01
  8.50000000E-01  8.00000000E-01  8.50000000E-01  8.50000000E-01  8.50000000E-01
  8.00000000E-01  8.50000000E-01  8.50000000E-01  8.50000000E-01  8.00000000E-01
  8.50000000E-01  8.50000000E-01  8.50000000E-01  8.00000000E-01  8.50000000E-01
  8.50000000E-01  8.50000000E-01  8.00000000E-01  8.50000000E-01  8.50000000E-01
  8.50000000E-01  8.00000000E-01  8.50000000E-01  8.50000000E-01  8.50000000E-01
  8.00000000E-01  8.50000000E-01  8.50000000E-01  8.50000000E-01  8.00000000E-01
  8.50000000E-01  8.50000000E-01  8.50000000E-01  8.00000000E-01  8.50000000E-01
  8.50000000E-01  8.50000000E-01  8.00000000E-01  8.50000000E-01  8.50000000E-01
  8.50000000E-01  8.00000000E-01  8.50000000E-01  8.50000000E-01  8.50000000E-01
  8.00000000E-01  8.50000000E-01  8.50000000E-01  8.50000000E-01  8.00000000E-01
  8.50000000E-01  8.50000000E-01  8.50000000E-01  8.00000000E-01  8.50000000E-01
  8.50000000E-01  8.50000000E-01  8.00000000E-01  8.50000000E-01  8.50000000E-01
  8.50000000E-01  8.00000000E-01  8.50000000E-01  8.50000000E-01  8.50000000E-01
  8.00000000E-01  8.50000000E-01  8.50000000E-01  8.50000000E-01  8.00000000E-01
  8.50000000E-01  8.50000000E-01  8.50000000E-01  8.00000000E-01  8.50000000E-01
  8.50000000E-01  8.50000000E-01  8.00000000E-01  8.50000000E-01  8.50000000E-01
  8.50000000E-01  8.00000000E-01  8.50000000E-01  8.50000000E-01  8.50000000E-01
  8.00000000E-01  8.50000000E-01  8.50000000E-01  8.50000000E-01  8.00000000E-01
  8.50000000E-01  8.50000000E-01  8.50000000E-01  8.00000000E-01  8.50000000E-01
  8.50000000E-01  8.50000000E-01  8.00000000E-01  8.50000000E-01  8.50000000E-01
  8.50000000E-01  8.00000000E-01  8.50000000E-01  8.50000000E-01  8.50000000E-01
  8.00000000E-01  8.50000000E-01  8.50000000E-01  8.50000000E-01  8.00000000E-01
  8.50000000E-01  8.50000000E-01  8.50000000E-01  8.00000000E-01  8.50000000E-01
  8.50000000E-01  8.50000000E-01  8.00000000E-01  8.50000000E-01  8.50000000E-01
  8.50000000E-01  8.00000000E-01  8.50000000E-01  8.50000000E-01  8.50000000E-01
  8.00000000E-01  8.50000000E-01  8.50000000E-01  8.50000000E-01  8.00000000E-01
  8.50000000E-01  8.50000000E-01  8.50000000E-01  8.00000000E-01  8.50000000E-01
  8.50000000E-01  8.50000000E-01  8.00000000E-01  8.50000000E-01  8.50000000E-01
  8.50000000E-01  8.00000000E-01  8.50000000E-01  8.50000000E-01  8.50000000E-01
  8.00000000E-01  8.50000000E-01  8.50000000E-01  8.50000000E-01  8.00000000E-01
  8.50000000E-01  8.50000000E-01  8.50000000E-01  8.00000000E-01  8.50000000E-01
  8.50000000E-01  8.50000000E-01  8.00000000E-01  8.50000000E-01  8.50000000E-01
  8.50000000E-01  8.00000000E-01  8.50000000E-01  8.50000000E-01  8.50000000E-01
  8.00000000E-01  8.50000000E-01  8.50000000E-01  8.50000000E-01  8.00000000E-01
  8.50000000E-01  8.50000000E-01  8.50000000E-01  8.00000000E-01  8.50000000E-01
  8.50000000E-01  8.50000000E-01  8.00000000E-01  8.50000000E-01  8.50000000E-01
  8.50000000E-01  8.00000000E-01  8.50000000E-01  8.50000000E-01  8.50000000E-01
  8.00000000E-01  8.50000000E-01  8.50000000E-01  8.50000000E-01  8.00000000E-01
  8.50000000E-01  8.50000000E-01  8.50000000E-01  8.00000000E-01  8.50000000E-01
  8.50000000E-01  8.50000000E-01  8.00000000E-01  8.50000000E-01  8.50000000E-01
  8.50000000E-01  8.00000000E-01  8.50000000E-01  8.50000000E-01  8.50000000E-01
  8.00000000E-01  8.50000000E-01  8.50000000E-01  8.50000000E-01  8.00000000E-01
  8.50000000E-01  8.50000000E-01  8.50000000E-01  8.00000000E-01  8.50000000E-01
  8.50000000E-01  8.50000000E-01  8.00000000E-01  8.50000000E-01  8.50000000E-01
  8.50000000E-01  8.00000000E-01  8.50000000E-01  8.50000000E-01  8.50000000E-01
  8.00000000E-01  8.50000000E-01  8.50000000E-01  8.50000000E-01  8.00000000E-01
  8.50000000E-01  8.50000000E-01  8.50000000E-01  8.00000000E-01  8.50000000E-01
  8.50000000E-01  8.50000000E-01  8.00000000E-01  8.50000000E-01  8.50000000E-01
  8.50000000E-01  8.00000000E-01  8.50000000E-01  8.50000000E-01  8.50000000E-01
  8.00000000E-01  8.50000000E-01  8.50000000E-01  8.50000000E-01  8.00000000E-01
  8.50000000E-01  8.50000000E-01  8.50000000E-01  8.00000000E-01  8.50000000E-01
  8.50000000E-01  8.50000000E-01  8.00000000E-01  8.50000000E-01  8.50000000E-01
  8.50000000E-01  8.00000000E-01  8.50000000E-01  8.50000000E-01  8.50000000E-01
  8.00000000E-01  8.50000000E-01  8.50000000E-01  8.50000000E-01  8.00000000E-01
  8.50000000E-01  8.50000000E-01  8.50000000E-01  8.00000000E-01  8.50000000E-01
  8.50000000E-01  8.50000000E-01  8.00000000E-01  8.50000000E-01  8.50000000E-01
  8.50000000E-01  8.00000000E-01  8.50000000E-01  8.50000000E-01  8.50000000E-01
  8.00000000E-01  8.50000000E-01  8.50000000E-01  8.50000000E-01  8.00000000E-01
  8.50000000E-01  8.50000000E-01  8.50000000E-01  8.00000000E-01  8.50000000E-01
  8.50000000E-01  8.50000000E-01  8.00000000E-01  8.50000000E-01  8.50000000E-01
  8.50000000E-01  8.00000000E-01  8.50000000E-01  8.50000000E-01  8.50000000E-01
  8.00000000E-01  8.50000000E-01  8.50000000E-01  8.50000000E-01  8.00000000E-01
  8.50000000E-01  8.50000000E-01  8.50000000E-01  8.00000000E-01  8.50000000E-01
  8.50000000E-01  8.50000000E-01  8.00000000E-01  8.50000000E-01  8.50000000E-01
  8.50000000E-01  8.00000000E-01  8.50000000E-01  8.50000000E-01  8.50000000E-01
  8.00000000E-01  8.50000000E-01  8.50000000E-01  8.50000000E-01  8.00000000E-01
  8.50000000E-01  8.50000000E-01  8.50000000E-01  8.00000000E-01  8.50000000E-01
  8.50000000E-01  8.50000000E-01  8.00000000E-01  8.50000000E-01  8.50000000E-01
  8.50000000E-01  8.00000000E-01  8.50000000E-01  8.50000000E-01  8.50000000E-01
  8.00000000E-01  8.50000000E-01  8.50000000E-01  8.50000000E-01  8.00000000E-01
  8.50000000E-01  8.50000000E-01  8.50000000E-01  8.00000000E-01  8.50000000E-01
  8.50000000E-01  8.50000000E-01  8.00000000E-01  8.50000000E-01  8.50000000E-01
  8.50000000E-01  8.00000000E-01  8.50000000E-01  8.50000000E-01  8.50000000E-01
  8.00000000E-01  8.50000000E-01  8.50000000E-01  8.50000000E-01  8.00000000E-01
  8.50000000E-01  8.50000000E-01  8.50000000E-01  8.00000000E-01  8.50000000E-01
  8.50000000E-01  8.50000000E-01  8.00000000E-01  8.50000000E-01  8.50000000E-01
  8.50000000E-01  8.00000000E-01  8.50000000E-01  8.50000000E-01  8.50000000E-01
  8.00000000E-01  8.50000000E-01  8.50000000E-01  8.50000000E-01  8.00000000E-01
  8.50000000E-01  8.50000000E-01  8.50000000E-01  8.00000000E-01  8.50000000E-01
  8.50000000E-01  8.50000000E-01  8.00000000E-01  8.50000000E-01  8.50000000E-01
  8.50000000E-01  8.00000000E-01  8.50000000E-01  8.50000000E-01  8.50000000E-01
  8.00000000E-01  8.50000000E-01  8.50000000E-01  8.50000000E-01  8.00000000E-01
  8.50000000E-01  8.50000000E-01  8.50000000E-01  8.00000000E-01  8.50000000E-01
  8.50000000E-01  8.50000000E-01  8.00000000E-01  8.50000000E-01  8.50000000E-01
  8.50000000E-01  8.00000000E-01  8.50000000E-01  8.50000000E-01  8.50000000E-01
  8.00000000E-01  8.50000000E-01  8.50000000E-01  8.50000000E-01  8.00000000E-01
  8.50000000E-01  8.50000000E-01  8.50000000E-01  8.00000000E-01  8.50000000E-01
  8.50000000E-01  8.50000000E-01  8.00000000E-01  8.50000000E-01  8.50000000E-01
  8.50000000E-01  8.00000000E-01  8.50000000E-01  8.50000000E-01  8.50000000E-01
  8.00000000E-01  8.50000000E-01  8.50000000E-01  8.50000000E-01  8.00000000E-01
  8.50000000E-01  8.50000000E-01  8.50000000E-01  8.00000000E-01  8.50000000E-01
  8.50000000E-01  8.50000000E-01  8.00000000E-01  8.50000000E-01  8.50000000E-01
  8.50000000E-01  8.00000000E-01  8.50000000E-01  8.50000000E-01  8.50000000E-01
  8.00000000E-01  8.50000000E-01  8.50000000E-01  8.50000000E-01  8.00000000E-01
  8.50000000E-01  8.50000000E-01  8.50000000E-01  8.00000000E-01  8.50000000E-01
  8.50000000E-01  8.50000000E-01  8.00000000E-01  8.50000000E-01  8.50000000E-01
  8.50000000E-01  8.00000000E-01  8.50000000E-01  8.50000000E-01  8.50000000E-01
  8.00000000E-01  8.50000000E-01  8.50000000E-01  8.50000000E-01  8.00000000E-01
  8.50000000E-01  8.50000000E-01  8.50000000E-01  8.00000000E-01  8.50000000E-01
  8.50000000E-01  8.50000000E-01  8.00000000E-01  8.50000000E-01  8.50000000E-01
  8.50000000E-01  8.00000000E-01  8.50000000E-01  8.50000000E-01  8.50000000E-01
  8.00000000E-01  8.50000000E-01  8.50000000E-01  8.50000000E-01  8.00000000E-01
  8.50000000E-01  8.50000000E-01  8.50000000E-01  8.00000000E-01  8.50000000E-01
  8.50000000E-01  8.50000000E-01  8.00000000E-01  8.50000000E-01  8.50000000E-01
  8.50000000E-01  8.00000000E-01  8.50000000E-01  8.50000000E-01  8.50000000E-01
  8.00000000E-01  8.50000000E-01  8.50000000E-01  8.50000000E-01  8.00000000E-01
  8.50000000E-01  8.50000000E-01  8.50000000E-01  8.00000000E-01  8.50000000E-01
  8.50000000E-01  8.50000000E-01  8.00000000E-01  8.50000000E-01  8.50000000E-01
  8.50000000E-01  8.00000000E-01  8.50000000E-01  8.50000000E-01  8.50000000E-01
  8.00000000E-01  8.50000000E-01  8.50000000E-01  8.50000000E-01  8.00000000E-01
  8.50000000E-01  8.50000000E-01  8.50000000E-01  8.00000000E-01  8.50000000E-01
  8.50000000E-01  8.50000000E-01  8.00000000E-01  8.50000000E-01  8.50000000E-01
  8.50000000E-01  8.00000000E-01  8.50000000E-01  8.50000000E-01  8.50000000E-01
  8.00000000E-01  8.50000000E-01  8.50000000E-01  8.50000000E-01  8.00000000E-01
  8.50000000E-01  8.50000000E-01  8.50000000E-01  8.00000000E-01  8.50000000E-01
  8.50000000E-01  8.50000000E-01  8.00000000E-01  8.50000000E-01  8.50000000E-01
  8.50000000E-01  8.00000000E-01  8.50000000E-01  8.50000000E-01  8.50000000E-01
  8.00000000E-01  8.50000000E-01  8.50000000E-01  8.50000000E-01  8.00000000E-01
  8.50000000E-01  8.50000000E-01  8.50000000E-01  8.00000000E-01  8.50000000E-01
  8.50000000E-01  8.50000000E-01  8.00000000E-01  8.50000000E-01  8.50000000E-01
  8.50000000E-01  8.00000000E-01  8.50000000E-01  8.50000000E-01  8.50000000E-01
  8.00000000E-01  8.50000000E-01  8.50000000E-01  8.50000000E-01  8.00000000E-01
  8.50000000E-01  8.50000000E-01  8.50000000E-01  8.00000000E-01  8.50000000E-01
  8.50000000E-01  8.50000000E-01  8.00000000E-01  8.50000000E-01  8.50000000E-01
  8.50000000E-01  8.00000000E-01  8.50000000E-01  8.50000000E-01  8.50000000E-01
  8.00000000E-01  8.50000000E-01  8.50000000E-01  8.50000000E-01  8.00000000E-01
  8.50000000E-01  8.50000000E-01  8.50000000E-01  8.00000000E-01  8.50000000E-01
  8.50000000E-01  8.50000000E-01  8.00000000E-01  8.50000000E-01  8.50000000E-01
  8.50000000E-01  8.00000000E-01  8.50000000E-01  8.50000000E-01  8.50000000E-01
  8.00000000E-01  8.50000000E-01  8.50000000E-01  8.50000000E-01  8.00000000E-01
  8.50000000E-01  8.50000000E-01  8.50000000E-01  8.00000000E-01  8.50000000E-01
  8.50000000E-01  8.50000000E-01  8.00000000E-01  8.50000000E-01  8.50000000E-01
  8.50000000E-01  8.00000000E-01  8.50000000E-01  8.50000000E-01  8.50000000E-01
  8.00000000E-01  8.50000000E-01  8.50000000E-01  8.50000000E-01  8.00000000E-01
  8.50000000E-01  8.50000000E-01  8.50000000E-01  8.00000000E-01  8.50000000E-01
  8.50000000E-01  8.50000000E-01  8.00000000E-01  8.50000000E-01  8.50000000E-01
  8.50000000E-01  8.00000000E-01  8.50000000E-01  8.50000000E-01  8.50000000E-01
  8.00000000E-01  8.50000000E-01  8.50000000E-01  8.50000000E-01  8.00000000E-01
  8.50000000E-01  8.50000000E-01  8.50000000E-01  8.00000000E-01  8.50000000E-01
  8.50000000E-01  8.50000000E-01  8.00000000E-01  8.50000000E-01  8.50000000E-01
  8.50000000E-01  8.00000000E-01  8.50000000E-01  8.50000000E-01  8.50000000E-01
  8.00000000E-01  8.50000000E-01  8.50000000E-01  8.50000000E-01  8.00000000E-01
  8.50000000E-01  8.50000000E-01  8.50000000E-01  8.00000000E-01  8.50000000E-01
  8.50000000E-01  8.50000000E-01  8.00000000E-01  8.50000000E-01  8.50000000E-01
  8.50000000E-01  8.00000000E-01  8.50000000E-01  8.50000000E-01  8.50000000E-01
  8.00000000E-01  8.50000000E-01  8.50000000E-01  8.50000000E-01  8.00000000E-01
  8.50000000E-01  8.50000000E-01  8.50000000E-01  8.00000000E-01  8.50000000E-01
  8.50000000E-01  8.50000000E-01  8.00000000E-01  8.50000000E-01  8.50000000E-01
  8.50000000E-01  8.00000000E-01  8.50000000E-01  8.50000000E-01  8.50000000E-01
  8.00000000E-01  8.50000000E-01  8.50000000E-01  8.50000000E-01  8.00000000E-01
  8.50000000E-01  8.50000000E-01  8.50000000E-01  8.00000000E-01  8.50000000E-01
  8.50000000E-01  8.50000000E-01  8.00000000E-01  8.50000000E-01  8.50000000E-01
  8.50000000E-01  8.00000000E-01  8.50000000E-01  8.50000000E-01  8.50000000E-01
  8.00000000E-01  8.50000000E-01  8.50000000E-01  8.50000000E-01  8.00000000E-01
  8.50000000E-01  8.50000000E-01  8.50000000E-01  8.00000000E-01  8.50000000E-01
  8.50000000E-01  8.50000000E-01  8.00000000E-01  8.50000000E-01  8.50000000E-01
  8.50000000E-01  8.00000000E-01  8.50000000E-01  8.50000000E-01  8.50000000E-01
  8.00000000E-01  8.50000000E-01  8.50000000E-01  8.50000000E-01  8.00000000E-01
  8.50000000E-01  8.50000000E-01  8.50000000E-01  8.00000000E-01  8.50000000E-01
  8.50000000E-01  8.50000000E-01  8.00000000E-01  8.50000000E-01  8.50000000E-01
  8.50000000E-01  8.00000000E-01  8.50000000E-01  8.50000000E-01  8.50000000E-01
  8.00000000E-01  8.50000000E-01  8.50000000E-01  8.50000000E-01  8.00000000E-01
  8.50000000E-01  8.50000000E-01  8.50000000E-01  8.00000000E-01  8.50000000E-01
  8.50000000E-01  8.50000000E-01  8.00000000E-01  8.50000000E-01  8.50000000E-01
  8.50000000E-01  8.00000000E-01  8.50000000E-01  8.50000000E-01  8.50000000E-01
  8.00000000E-01  8.50000000E-01  8.50000000E-01  8.50000000E-01  8.00000000E-01
  8.50000000E-01  8.50000000E-01  8.50000000E-01  8.00000000E-01  8.50000000E-01
  8.50000000E-01  8.50000000E-01  8.00000000E-01  8.50000000E-01  8.50000000E-01
  8.50000000E-01  8.00000000E-01  8.50000000E-01  8.50000000E-01  8.50000000E-01
  8.00000000E-01  8.50000000E-01  8.50000000E-01  8.50000000E-01  8.00000000E-01
  8.50000000E-01  8.50000000E-01  8.50000000E-01  8.00000000E-01  8.50000000E-01
  8.50000000E-01  8.50000000E-01  8.00000000E-01  8.50000000E-01  8.50000000E-01
  8.50000000E-01  8.00000000E-01  8.50000000E-01  8.50000000E-01  8.50000000E-01
  8.00000000E-01  8.50000000E-01  8.50000000E-01  8.50000000E-01  8.00000000E-01
  8.50000000E-01  8.50000000E-01  8.50000000E-01  8.00000000E-01  8.50000000E-01
  8.50000000E-01  8.50000000E-01  8.00000000E-01  8.50000000E-01  8.50000000E-01
  8.50000000E-01  8.00000000E-01  8.50000000E-01  8.50000000E-01  8.50000000E-01
  8.00000000E-01  8.50000000E-01  8.50000000E-01  8.50000000E-01  8.00000000E-01
  8.50000000E-01  8.50000000E-01  8.50000000E-01  8.00000000E-01  8.50000000E-01
  8.50000000E-01  8.50000000E-01  8.00000000E-01  8.50000000E-01  8.50000000E-01
  8.50000000E-01  8.00000000E-01  8.50000000E-01  8.50000000E-01  8.50000000E-01
  8.00000000E-01  8.50000000E-01  8.50000000E-01  8.50000000E-01  8.00000000E-01
  8.50000000E-01  8.50000000E-01  8.50000000E-01  8.00000000E-01  8.50000000E-01
  8.50000000E-01  8.50000000E-01  8.00000000E-01  8.50000000E-01  8.50000000E-01
  8.50000000E-01  8.00000000E-01  8.50000000E-01  8.50000000E-01  8.50000000E-01
  8.00000000E-01  8.50000000E-01  8.50000000E-01  8.50000000E-01  8.00000000E-01
  8.50000000E-01  8.50000000E-01  8.50000000E-01  8.00000000E-01  8.50000000E-01
  8.50000000E-01  8.50000000E-01  8.00000000E-01  8.50000000E-01  8.50000000E-01
  8.50000000E-01  8.00000000E-01  8.50000000E-01  8.50000000E-01  8.50000000E-01
  8.00000000E-01  8.50000000E-01  8.50000000E-01  8.50000000E-01  8.00000000E-01
  8.50000000E-01  8.50000000E-01  8.50000000E-01  8.00000000E-01  8.50000000E-01
  8.50000000E-01  8.50000000E-01  8.00000000E-01  8.50000000E-01  8.50000000E-01
  8.50000000E-01  8.00000000E-01  8.50000000E-01  8.50000000E-01  8.50000000E-01
  8.00000000E-01  8.50000000E-01  8.50000000E-01  8.50000000E-01  8.00000000E-01
  8.50000000E-01  8.50000000E-01  8.50000000E-01  8.00000000E-01  8.50000000E-01
  8.50000000E-01  8.50000000E-01  8.00000000E-01  8.50000000E-01  8.50000000E-01
  8.50000000E-01  8.00000000E-01  8.50000000E-01  8.50000000E-01  8.50000000E-01
  8.00000000E-01  8.50000000E-01  8.50000000E-01  8.50000000E-01  8.00000000E-01
  8.50000000E-01  8.50000000E-01  8.50000000E-01  8.00000000E-01  8.50000000E-01
  8.50000000E-01  8.50000000E-01  8.00000000E-01  8.50000000E-01  8.50000000E-01
  8.50000000E-01  8.00000000E-01  8.50000000E-01  8.50000000E-01  8.50000000E-01
  8.00000000E-01  8.50000000E-01  8.50000000E-01  8.50000000E-01  8.00000000E-01
  8.50000000E-01  8.50000000E-01  8.50000000E-01  8.00000000E-01  8.50000000E-01
  8.50000000E-01  8.50000000E-01  8.00000000E-01  8.50000000E-01  8.50000000E-01
  8.50000000E-01  8.00000000E-01  8.50000000E-01  8.50000000E-01  8.50000000E-01
  8.00000000E-01  8.50000000E-01  8.50000000E-01  8.50000000E-01  8.00000000E-01
  8.50000000E-01  8.50000000E-01  8.50000000E-01  8.00000000E-01  8.50000000E-01
  8.50000000E-01  8.50000000E-01  8.00000000E-01  8.50000000E-01  8.50000000E-01
  8.50000000E-01  8.00000000E-01  8.50000000E-01  8.50000000E-01  8.50000000E-01
  8.00000000E-01  8.50000000E-01  8.50000000E-01  8.50000000E-01  8.00000000E-01
  8.50000000E-01  8.50000000E-01  8.50000000E-01  8.00000000E-01  8.50000000E-01
  8.50000000E-01  8.50000000E-01  8.00000000E-01  8.50000000E-01  8.50000000E-01
  8.50000000E-01  8.00000000E-01  8.50000000E-01  8.50000000E-01  8.50000000E-01
  8.00000000E-01  8.50000000E-01  8.50000000E-01  8.50000000E-01  8.00000000E-01
  8.50000000E-01  8.50000000E-01  8.50000000E-01  8.00000000E-01  8.50000000E-01
  8.50000000E-01  8.50000000E-01  8.00000000E-01  8.50000000E-01  8.50000000E-01
  8.50000000E-01  8.00000000E-01  8.50000000E-01  8.50000000E-01  8.50000000E-01
  8.00000000E-01  8.50000000E-01  8.50000000E-01  8.50000000E-01  8.00000000E-01
  8.50000000E-01  8.50000000E-01  8.50000000E-01  8.00000000E-01  8.50000000E-01
  8.50000000E-01  8.50000000E-01  8.00000000E-01  8.50000000E-01  8.50000000E-01
  8.50000000E-01  8.00000000E-01  8.50000000E-01  8.50000000E-01  8.50000000E-01
  8.00000000E-01  8.50000000E-01  8.50000000E-01  8.50000000E-01  8.00000000E-01
  8.50000000E-01  8.50000000E-01  8.50000000E-01  8.00000000E-01  8.50000000E-01
  8.50000000E-01  8.50000000E-01  8.00000000E-01  8.50000000E-01  8.50000000E-01
  8.50000000E-01  8.00000000E-01  8.50000000E-01  8.50000000E-01  8.50000000E-01
  8.00000000E-01  8.50000000E-01  8.50000000E-01  8.50000000E-01  8.00000000E-01
  8.50000000E-01  8.50000000E-01  8.50000000E-01  8.00000000E-01  8.50000000E-01
  8.50000000E-01  8.50000000E-01  8.00000000E-01  8.50000000E-01  8.50000000E-01
  8.50000000E-01  8.00000000E-01  8.50000000E-01  8.50000000E-01  8.50000000E-01
  8.00000000E-01  8.50000000E-01  8.50000000E-01  8.50000000E-01  8.00000000E-01
  8.50000000E-01  8.50000000E-01  8.50000000E-01  8.00000000E-01  8.50000000E-01
  8.50000000E-01  8.50000000E-01  8.00000000E-01  8.50000000E-01  8.50000000E-01
  8.50000000E-01  8.00000000E-01  8.50000000E-01  8.50000000E-01  8.50000000E-01
  8.00000000E-01  8.50000000E-01  8.50000000E-01  8.50000000E-01  8.00000000E-01
  8.50000000E-01  8.50000000E-01  8.50000000E-01  8.00000000E-01  8.50000000E-01
  8.50000000E-01  8.50000000E-01  8.00000000E-01  8.50000000E-01  8.50000000E-01
  8.50000000E-01  8.00000000E-01  8.50000000E-01  8.50000000E-01  8.50000000E-01
  8.00000000E-01  8.50000000E-01  8.50000000E-01  8.50000000E-01  8.00000000E-01
  8.50000000E-01  8.50000000E-01  8.50000000E-01  8.00000000E-01  8.50000000E-01
  8.50000000E-01  8.50000000E-01  8.00000000E-01  8.50000000E-01  8.50000000E-01
  8.50000000E-01  8.00000000E-01  8.50000000E-01  8.50000000E-01  8.50000000E-01
  8.00000000E-01  8.50000000E-01  8.50000000E-01  8.50000000E-01  8.00000000E-01
  8.50000000E-01  8.50000000E-01  8.50000000E-01  8.00000000E-01  8.50000000E-01
  8.50000000E-01  8.50000000E-01  8.00000000E-01  8.50000000E-01  8.50000000E-01
  8.50000000E-01  8.00000000E-01  8.50000000E-01  8.50000000E-01  8.50000000E-01
  8.00000000E-01  8.50000000E-01  8.50000000E-01  8.50000000E-01  8.00000000E-01
  8.50000000E-01  8.50000000E-01  8.50000000E-01  8.00000000E-01  8.50000000E-01
  8.50000000E-01  8.50000000E-01  8.00000000E-01  8.50000000E-01  8.50000000E-01
  8.50000000E-01  8.00000000E-01  8.50000000E-01  8.50000000E-01  8.50000000E-01
  8.00000000E-01  8.50000000E-01  8.50000000E-01  8.50000000E-01  8.00000000E-01
  8.50000000E-01  8.50000000E-01  8.50000000E-01  8.00000000E-01  8.50000000E-01
  8.50000000E-01  8.50000000E-01  8.00000000E-01  8.50000000E-01  8.50000000E-01
  8.50000000E-01  8.00000000E-01  8.50000000E-01  8.50000000E-01  8.50000000E-01
  8.00000000E-01  8.50000000E-01  8.50000000E-01  8.50000000E-01  8.00000000E-01
  8.50000000E-01  8.50000000E-01  8.50000000E-01  8.00000000E-01  8.50000000E-01
  8.50000000E-01  8.50000000E-01  8.00000000E-01  8.50000000E-01  8.50000000E-01
  8.50000000E-01  8.00000000E-01  8.50000000E-01  8.50000000E-01  8.50000000E-01
  8.00000000E-01  8.50000000E-01  8.50000000E-01  8.50000000E-01  8.00000000E-01
  8.50000000E-01  8.50000000E-01  8.50000000E-01  8.00000000E-01  8.50000000E-01
  8.50000000E-01  8.50000000E-01  8.00000000E-01  8.50000000E-01  8.50000000E-01
  8.50000000E-01  8.00000000E-01  8.50000000E-01  8.50000000E-01  8.50000000E-01
  8.00000000E-01  8.50000000E-01  8.50000000E-01  8.50000000E-01  8.00000000E-01
  8.50000000E-01  8.50000000E-01  8.50000000E-01  8.00000000E-01  8.50000000E-01
  8.50000000E-01  8.50000000E-01  8.00000000E-01  8.50000000E-01  8.50000000E-01
  8.50000000E-01  8.00000000E-01  8.50000000E-01  8.50000000E-01  8.50000000E-01
  8.00000000E-01  8.50000000E-01  8.50000000E-01  8.50000000E-01  8.00000000E-01
  8.50000000E-01  8.50000000E-01  8.50000000E-01  8.00000000E-01  8.50000000E-01
  8.50000000E-01  8.50000000E-01  8.00000000E-01  8.50000000E-01  8.50000000E-01
  8.50000000E-01  8.00000000E-01  8.50000000E-01  8.50000000E-01  8.50000000E-01
  8.00000000E-01  8.50000000E-01  8.50000000E-01  8.50000000E-01  8.00000000E-01
  8.50000000E-01  8.50000000E-01  8.50000000E-01  8.00000000E-01  8.50000000E-01
  8.50000000E-01  8.50000000E-01  8.00000000E-01  8.50000000E-01  8.50000000E-01
  8.50000000E-01  8.00000000E-01  8.50000000E-01  8.50000000E-01  8.50000000E-01
  8.00000000E-01  8.50000000E-01  8.50000000E-01  8.50000000E-01  8.00000000E-01
  8.50000000E-01  8.50000000E-01  8.50000000E-01  8.00000000E-01  8.50000000E-01
  8.50000000E-01  8.50000000E-01  8.00000000E-01  8.50000000E-01  8.50000000E-01
  8.50000000E-01  8.00000000E-01  8.50000000E-01  8.50000000E-01  8.50000000E-01
  8.00000000E-01  8.50000000E-01  8.50000000E-01  8.50000000E-01  8.00000000E-01
  8.50000000E-01  8.50000000E-01  8.50000000E-01  8.00000000E-01  8.50000000E-01
  8.50000000E-01  8.50000000E-01  8.00000000E-01  8.50000000E-01  8.50000000E-01
  8.50000000E-01  8.00000000E-01  8.50000000E-01  8.50000000E-01  8.50000000E-01
  8.00000000E-01  8.50000000E-01  8.50000000E-01  8.50000000E-01  8.00000000E-01
  8.50000000E-01  8.50000000E-01  8.50000000E-01  8.00000000E-01  8.50000000E-01
  8.50000000E-01  8.50000000E-01  8.00000000E-01  8.50000000E-01  8.50000000E-01
  8.50000000E-01  8.00000000E-01  8.50000000E-01  8.50000000E-01  8.50000000E-01
  8.00000000E-01  8.50000000E-01  8.50000000E-01  8.50000000E-01  8.00000000E-01
  8.50000000E-01  8.50000000E-01  8.50000000E-01  8.00000000E-01  8.50000000E-01
  8.50000000E-01  8.50000000E-01  8.00000000E-01  8.50000000E-01  8.50000000E-01
  8.50000000E-01  8.00000000E-01  8.50000000E-01  8.50000000E-01  8.50000000E-01
  8.00000000E-01  8.50000000E-01  8.50000000E-01  8.50000000E-01  8.00000000E-01
  8.50000000E-01  8.50000000E-01  8.50000000E-01  8.00000000E-01  8.50000000E-01
  8.50000000E-01  8.50000000E-01  8.00000000E-01  8.50000000E-01  8.50000000E-01
  8.50000000E-01  8.00000000E-01  8.50000000E-01  8.50000000E-01  8.50000000E-01
  8.00000000E-01  8.50000000E-01  8.50000000E-01  8.50000000E-01  8.00000000E-01
  8.50000000E-01  8.50000000E-01  8.50000000E-01  8.00000000E-01  8.50000000E-01
  8.50000000E-01  8.50000000E-01  8.00000000E-01  8.50000000E-01  8.50000000E-01
  8.50000000E-01  8.00000000E-01  8.50000000E-01  8.50000000E-01  8.50000000E-01
  8.00000000E-01  8.50000000E-01  8.50000000E-01  8.50000000E-01  8.00000000E-01
  8.50000000E-01  8.50000000E-01  8.50000000E-01  8.00000000E-01  8.50000000E-01
  8.50000000E-01  8.50000000E-01  8.00000000E-01  8.50000000E-01  8.50000000E-01
  8.50000000E-01  8.00000000E-01  8.50000000E-01  8.50000000E-01  8.50000000E-01
  8.00000000E-01  8.50000000E-01  8.50000000E-01  8.50000000E-01  8.00000000E-01
  8.50000000E-01  8.50000000E-01  8.50000000E-01  8.00000000E-01  8.50000000E-01
  8.50000000E-01  8.50000000E-01  8.00000000E-01  8.50000000E-01  8.50000000E-01
  8.50000000E-01  8.00000000E-01  8.50000000E-01  8.50000000E-01  8.50000000E-01
  8.00000000E-01  8.50000000E-01  8.50000000E-01  8.50000000E-01  8.00000000E-01
  8.50000000E-01  8.50000000E-01  8.50000000E-01  8.00000000E-01  8.50000000E-01
  8.50000000E-01  8.50000000E-01  8.00000000E-01  8.50000000E-01  8.50000000E-01
  8.50000000E-01  8.00000000E-01  8.50000000E-01  8.50000000E-01  8.50000000E-01
  8.00000000E-01  8.50000000E-01  8.50000000E-01  8.50000000E-01  8.00000000E-01
  8.50000000E-01  8.50000000E-01  8.50000000E-01  8.00000000E-01  8.50000000E-01
  8.50000000E-01  8.50000000E-01  8.00000000E-01  8.50000000E-01  8.50000000E-01
  8.50000000E-01  8.00000000E-01  8.50000000E-01  8.50000000E-01  8.50000000E-01
  8.00000000E-01  8.50000000E-01  8.50000000E-01  8.50000000E-01  8.00000000E-01
  8.50000000E-01  8.50000000E-01  8.50000000E-01  8.00000000E-01  8.50000000E-01
  8.50000000E-01  8.50000000E-01  8.00000000E-01  8.50000000E-01  8.50000000E-01
  8.50000000E-01  8.00000000E-01  8.50000000E-01  8.50000000E-01  8.50000000E-01
  8.00000000E-01  8.50000000E-01  8.50000000E-01  8.50000000E-01  8.00000000E-01
  8.50000000E-01  8.50000000E-01  8.50000000E-01  8.00000000E-01  8.50000000E-01
  8.50000000E-01  8.50000000E-01  8.00000000E-01  8.50000000E-01  8.50000000E-01
  8.50000000E-01  8.00000000E-01  8.50000000E-01  8.50000000E-01  8.50000000E-01
  8.00000000E-01  8.50000000E-01  8.50000000E-01  8.50000000E-01  8.00000000E-01
  8.50000000E-01  8.50000000E-01  8.50000000E-01  8.00000000E-01  8.50000000E-01
  8.50000000E-01  8.50000000E-01  8.00000000E-01  8.50000000E-01  8.50000000E-01
  8.50000000E-01  8.00000000E-01  8.50000000E-01  8.50000000E-01  8.50000000E-01
  8.00000000E-01  8.50000000E-01  8.50000000E-01  8.50000000E-01  8.00000000E-01
  8.50000000E-01  8.50000000E-01  8.50000000E-01  8.00000000E-01  8.50000000E-01
  8.50000000E-01  8.50000000E-01  8.00000000E-01  8.50000000E-01  8.50000000E-01
  8.50000000E-01  8.00000000E-01  8.50000000E-01  8.50000000E-01  8.50000000E-01
  8.00000000E-01  8.50000000E-01  8.50000000E-01  8.50000000E-01  8.00000000E-01
  8.50000000E-01  8.50000000E-01  8.50000000E-01  8.00000000E-01  8.50000000E-01
  8.50000000E-01  8.50000000E-01  8.00000000E-01  8.50000000E-01  8.50000000E-01
  8.50000000E-01  8.00000000E-01  8.50000000E-01  8.50000000E-01  8.50000000E-01
  8.00000000E-01  8.50000000E-01  8.50000000E-01  8.50000000E-01  8.00000000E-01
  8.50000000E-01  8.50000000E-01  8.50000000E-01  8.00000000E-01  8.50000000E-01
  8.50000000E-01  8.50000000E-01  8.00000000E-01  8.50000000E-01  8.50000000E-01
  8.50000000E-01  8.00000000E-01  8.50000000E-01  8.50000000E-01  8.50000000E-01
  8.00000000E-01  8.50000000E-01  8.50000000E-01  8.50000000E-01  8.00000000E-01
  8.50000000E-01  8.50000000E-01  8.50000000E-01  8.00000000E-01  8.50000000E-01
  8.50000000E-01  8.50000000E-01  8.00000000E-01  8.50000000E-01  8.50000000E-01
  8.50000000E-01  8.00000000E-01  8.50000000E-01  8.50000000E-01  8.50000000E-01
  8.00000000E-01  8.50000000E-01  8.50000000E-01  8.50000000E-01  8.00000000E-01
  8.50000000E-01  8.50000000E-01  8.50000000E-01  8.00000000E-01  8.50000000E-01
  8.50000000E-01  8.50000000E-01  8.00000000E-01  8.50000000E-01  8.50000000E-01
  8.50000000E-01  8.00000000E-01  8.50000000E-01  8.50000000E-01  8.50000000E-01
  8.00000000E-01  8.50000000E-01  8.50000000E-01  8.50000000E-01  8.00000000E-01
  8.50000000E-01  8.50000000E-01  8.50000000E-01  8.00000000E-01  8.50000000E-01
  8.50000000E-01  8.50000000E-01  8.00000000E-01  8.50000000E-01  8.50000000E-01
  8.50000000E-01  8.00000000E-01  8.50000000E-01  8.50000000E-01  8.50000000E-01
  8.00000000E-01  8.50000000E-01  8.50000000E-01  8.50000000E-01  8.00000000E-01
  8.50000000E-01  8.50000000E-01  8.50000000E-01  8.00000000E-01  8.50000000E-01
  8.50000000E-01  8.50000000E-01  8.00000000E-01  8.50000000E-01  8.50000000E-01
  8.50000000E-01  8.00000000E-01  8.50000000E-01  8.50000000E-01  8.50000000E-01
  8.00000000E-01  8.50000000E-01  8.50000000E-01  8.50000000E-01  8.00000000E-01
  8.50000000E-01  8.50000000E-01  8.50000000E-01  8.00000000E-01  8.50000000E-01
  8.50000000E-01  8.50000000E-01  8.00000000E-01  8.50000000E-01  8.50000000E-01
  8.50000000E-01  8.00000000E-01  8.50000000E-01  8.50000000E-01  8.50000000E-01
  8.00000000E-01  8.50000000E-01  8.50000000E-01  8.50000000E-01  8.00000000E-01
  8.50000000E-01  8.50000000E-01  8.50000000E-01  8.00000000E-01  8.50000000E-01
  8.50000000E-01  8.50000000E-01  8.00000000E-01  8.50000000E-01  8.50000000E-01
  8.50000000E-01  8.00000000E-01  8.50000000E-01  8.50000000E-01  8.50000000E-01
  8.00000000E-01  8.50000000E-01  8.50000000E-01  8.50000000E-01  8.00000000E-01
  8.50000000E-01  8.50000000E-01  8.50000000E-01  8.00000000E-01  8.50000000E-01
  8.50000000E-01  8.50000000E-01  8.00000000E-01  8.50000000E-01  8.50000000E-01
  8.50000000E-01  8.00000000E-01  8.50000000E-01  8.50000000E-01  8.50000000E-01
  8.00000000E-01  8.50000000E-01  8.50000000E-01  8.50000000E-01  8.00000000E-01
  8.50000000E-01  8.50000000E-01  8.50000000E-01  8.00000000E-01  8.50000000E-01
  8.50000000E-01  8.50000000E-01  8.00000000E-01  8.50000000E-01  8.50000000E-01
  8.50000000E-01  8.00000000E-01  8.50000000E-01  8.50000000E-01  8.50000000E-01
  8.00000000E-01  8.50000000E-01  8.50000000E-01  8.50000000E-01  8.00000000E-01
  8.50000000E-01  8.50000000E-01  8.50000000E-01  8.00000000E-01  8.50000000E-01
  8.50000000E-01  8.50000000E-01  8.00000000E-01  8.50000000E-01  8.50000000E-01
  8.50000000E-01  8.00000000E-01  8.50000000E-01  8.50000000E-01  8.50000000E-01
  8.00000000E-01  8.50000000E-01  8.50000000E-01  8.50000000E-01  8.00000000E-01
  8.50000000E-01  8.50000000E-01  8.50000000E-01  8.00000000E-01  8.50000000E-01
  8.50000000E-01  8.50000000E-01  8.00000000E-01  8.50000000E-01  8.50000000E-01
  8.50000000E-01  8.00000000E-01  8.50000000E-01  8.50000000E-01  8.50000000E-01
  8.00000000E-01  8.50000000E-01  8.50000000E-01  8.50000000E-01  8.00000000E-01
  8.50000000E-01  8.50000000E-01  8.50000000E-01  8.00000000E-01  8.50000000E-01
  8.50000000E-01  8.50000000E-01  8.00000000E-01  8.50000000E-01  8.50000000E-01
  8.50000000E-01  8.00000000E-01  8.50000000E-01  8.50000000E-01  8.50000000E-01
  8.00000000E-01  8.50000000E-01  8.50000000E-01  8.50000000E-01  8.00000000E-01
  8.50000000E-01  8.50000000E-01  8.50000000E-01  8.00000000E-01  8.50000000E-01
  8.50000000E-01  8.50000000E-01  8.00000000E-01  8.50000000E-01  8.50000000E-01
  8.50000000E-01  8.00000000E-01  8.50000000E-01  8.50000000E-01  8.50000000E-01
  8.00000000E-01  8.50000000E-01  8.50000000E-01  8.50000000E-01  8.00000000E-01
  8.50000000E-01  8.50000000E-01  8.50000000E-01  8.00000000E-01  8.50000000E-01
  8.50000000E-01  8.50000000E-01  8.00000000E-01  8.50000000E-01  8.50000000E-01
  8.50000000E-01  8.00000000E-01  8.50000000E-01  8.50000000E-01  8.50000000E-01
  8.00000000E-01  8.50000000E-01  8.50000000E-01  8.50000000E-01  8.00000000E-01
  8.50000000E-01  8.50000000E-01  8.50000000E-01  8.00000000E-01  8.50000000E-01
  8.50000000E-01  8.50000000E-01  8.00000000E-01  8.50000000E-01  8.50000000E-01
  8.50000000E-01  8.00000000E-01  8.50000000E-01  8.50000000E-01  8.50000000E-01
  8.00000000E-01  8.50000000E-01  8.50000000E-01  8.50000000E-01  8.00000000E-01
  8.50000000E-01  8.50000000E-01  8.50000000E-01  8.00000000E-01  8.50000000E-01
  8.50000000E-01  8.50000000E-01  8.00000000E-01  8.50000000E-01  8.50000000E-01
  8.50000000E-01  8.00000000E-01  8.50000000E-01  8.50000000E-01  8.50000000E-01
  8.00000000E-01  8.50000000E-01  8.50000000E-01  8.50000000E-01  8.00000000E-01
  8.50000000E-01  8.50000000E-01  8.50000000E-01  8.00000000E-01  8.50000000E-01
  8.50000000E-01  8.50000000E-01  8.00000000E-01  8.50000000E-01  8.50000000E-01
  8.50000000E-01  8.00000000E-01  8.50000000E-01  8.50000000E-01  8.50000000E-01
  8.00000000E-01  8.50000000E-01  8.50000000E-01  8.50000000E-01  8.00000000E-01
  8.50000000E-01  8.50000000E-01  8.50000000E-01  8.00000000E-01  8.50000000E-01
  8.50000000E-01  8.50000000E-01  8.00000000E-01  8.50000000E-01  8.50000000E-01
  8.50000000E-01  8.00000000E-01  8.50000000E-01  8.50000000E-01  8.50000000E-01
  8.00000000E-01  8.50000000E-01  8.50000000E-01  8.50000000E-01  8.00000000E-01
  8.50000000E-01  8.50000000E-01  8.50000000E-01  8.00000000E-01  8.50000000E-01
  8.50000000E-01  8.50000000E-01  8.00000000E-01  8.50000000E-01  8.50000000E-01
  8.50000000E-01  8.00000000E-01  8.50000000E-01  8.50000000E-01  8.50000000E-01
  8.00000000E-01  8.50000000E-01  8.50000000E-01  8.50000000E-01  8.00000000E-01
  8.50000000E-01  8.50000000E-01  8.50000000E-01  8.00000000E-01  8.50000000E-01
  8.50000000E-01  8.50000000E-01  8.00000000E-01  8.50000000E-01  8.50000000E-01
  8.50000000E-01  8.00000000E-01  8.50000000E-01  8.50000000E-01  8.50000000E-01
  8.00000000E-01  8.50000000E-01  8.50000000E-01  8.50000000E-01  8.00000000E-01
  8.50000000E-01  8.50000000E-01  8.50000000E-01  8.00000000E-01  8.50000000E-01
  8.50000000E-01  8.50000000E-01  8.00000000E-01  8.50000000E-01  8.50000000E-01
  8.50000000E-01  8.00000000E-01  8.50000000E-01  8.50000000E-01  8.50000000E-01
  8.00000000E-01  8.50000000E-01  8.50000000E-01  8.50000000E-01  8.00000000E-01
  8.50000000E-01  8.50000000E-01  8.50000000E-01  8.00000000E-01  8.50000000E-01
  8.50000000E-01  8.50000000E-01  8.00000000E-01  8.50000000E-01  8.50000000E-01
  8.50000000E-01  8.00000000E-01  8.50000000E-01  8.50000000E-01  8.50000000E-01
  8.00000000E-01  8.50000000E-01  8.50000000E-01  8.50000000E-01  8.00000000E-01
  8.50000000E-01  8.50000000E-01  8.50000000E-01  8.00000000E-01  8.50000000E-01
  8.50000000E-01  8.50000000E-01  8.00000000E-01  8.50000000E-01  8.50000000E-01
  8.50000000E-01  8.00000000E-01  8.50000000E-01  8.50000000E-01  8.50000000E-01
  8.00000000E-01  8.50000000E-01  8.50000000E-01  8.50000000E-01  8.00000000E-01
  8.50000000E-01  8.50000000E-01  8.50000000E-01  8.00000000E-01  8.50000000E-01
  8.50000000E-01  8.50000000E-01  8.00000000E-01  8.50000000E-01  8.50000000E-01
  8.50000000E-01  8.00000000E-01  8.50000000E-01  8.50000000E-01  8.50000000E-01
  8.00000000E-01  8.50000000E-01  8.50000000E-01  8.50000000E-01  8.00000000E-01
  8.50000000E-01  8.50000000E-01  8.50000000E-01  8.00000000E-01  8.50000000E-01
  8.50000000E-01  8.50000000E-01  8.00000000E-01  8.50000000E-01  8.50000000E-01
  8.50000000E-01  8.00000000E-01  8.50000000E-01  8.50000000E-01  8.50000000E-01
  8.00000000E-01  8.50000000E-01  8.50000000E-01  8.50000000E-01  8.00000000E-01
  8.50000000E-01  8.50000000E-01  8.50000000E-01  8.00000000E-01  8.50000000E-01
  8.50000000E-01  8.50000000E-01  8.00000000E-01  8.50000000E-01  8.50000000E-01
  8.50000000E-01  8.00000000E-01  8.50000000E-01  8.50000000E-01  8.50000000E-01
  8.00000000E-01  8.50000000E-01  8.50000000E-01  8.50000000E-01  8.00000000E-01
  8.50000000E-01  8.50000000E-01  8.50000000E-01  8.00000000E-01  8.50000000E-01
  8.50000000E-01  8.50000000E-01  8.00000000E-01  8.50000000E-01  8.50000000E-01
  8.50000000E-01  8.00000000E-01  8.50000000E-01  8.50000000E-01  8.50000000E-01
  8.00000000E-01  8.50000000E-01  8.50000000E-01  8.50000000E-01  8.00000000E-01
  8.50000000E-01  8.50000000E-01  8.50000000E-01  8.00000000E-01  8.50000000E-01
  8.50000000E-01  8.50000000E-01  8.00000000E-01  8.50000000E-01  8.50000000E-01
  8.50000000E-01  8.00000000E-01  8.50000000E-01  8.50000000E-01  8.50000000E-01
  8.00000000E-01  8.50000000E-01  8.50000000E-01  8.50000000E-01  8.00000000E-01
  8.50000000E-01  8.50000000E-01  8.50000000E-01  8.00000000E-01  8.50000000E-01
  8.50000000E-01  8.50000000E-01  8.00000000E-01  8.50000000E-01  8.50000000E-01
  8.50000000E-01  8.00000000E-01  8.50000000E-01  8.50000000E-01  8.50000000E-01
  8.00000000E-01  8.50000000E-01  8.50000000E-01  8.50000000E-01  8.00000000E-01
  8.50000000E-01  8.50000000E-01  8.50000000E-01  8.00000000E-01  8.50000000E-01
  8.50000000E-01  8.50000000E-01  8.00000000E-01  8.50000000E-01  8.50000000E-01
  8.50000000E-01  8.00000000E-01  8.50000000E-01  8.50000000E-01  8.50000000E-01
  8.00000000E-01  8.50000000E-01  8.50000000E-01  8.50000000E-01  8.00000000E-01
  8.50000000E-01  8.50000000E-01  8.50000000E-01  8.00000000E-01  8.50000000E-01
  8.50000000E-01  8.50000000E-01  8.00000000E-01  8.50000000E-01  8.50000000E-01
  8.50000000E-01  8.00000000E-01  8.50000000E-01  8.50000000E-01  8.50000000E-01
  8.00000000E-01  8.50000000E-01  8.50000000E-01  8.50000000E-01  8.00000000E-01
  8.50000000E-01  8.50000000E-01  8.50000000E-01  8.00000000E-01  8.50000000E-01
  8.50000000E-01  8.50000000E-01  8.00000000E-01  8.50000000E-01  8.50000000E-01
  8.50000000E-01  8.00000000E-01  8.50000000E-01  8.50000000E-01  8.50000000E-01
  8.00000000E-01  8.50000000E-01  8.50000000E-01  8.50000000E-01  8.00000000E-01
  8.50000000E-01  8.50000000E-01  8.50000000E-01  8.00000000E-01  8.50000000E-01
  8.50000000E-01  8.50000000E-01  8.00000000E-01  8.50000000E-01  8.50000000E-01
  8.50000000E-01  8.00000000E-01  8.50000000E-01  8.50000000E-01  8.50000000E-01
  8.00000000E-01  8.50000000E-01  8.50000000E-01  8.50000000E-01  8.00000000E-01
  8.50000000E-01  8.50000000E-01  8.50000000E-01  8.00000000E-01  8.50000000E-01
  8.50000000E-01  8.50000000E-01  8.00000000E-01  8.50000000E-01  8.50000000E-01
  8.50000000E-01  8.00000000E-01  8.50000000E-01  8.50000000E-01  8.50000000E-01
  8.00000000E-01  8.50000000E-01  8.50000000E-01  8.50000000E-01  8.00000000E-01
  8.50000000E-01  8.50000000E-01  8.50000000E-01  8.00000000E-01  8.50000000E-01
  8.50000000E-01  8.50000000E-01  8.00000000E-01  8.50000000E-01  8.50000000E-01
  8.50000000E-01  8.00000000E-01  8.50000000E-01  8.50000000E-01  8.50000000E-01
  8.00000000E-01  8.50000000E-01  8.50000000E-01  8.50000000E-01  8.00000000E-01
  8.50000000E-01  8.50000000E-01  8.50000000E-01  8.00000000E-01  8.50000000E-01
  8.50000000E-01  8.50000000E-01  8.00000000E-01  8.50000000E-01  8.50000000E-01
  8.50000000E-01  8.00000000E-01  8.50000000E-01  8.50000000E-01  8.50000000E-01
  8.00000000E-01  8.50000000E-01  8.50000000E-01  8.50000000E-01  8.00000000E-01
  8.50000000E-01  8.50000000E-01  8.50000000E-01  8.00000000E-01  8.50000000E-01
  8.50000000E-01  8.50000000E-01  8.00000000E-01  8.50000000E-01  8.50000000E-01
  8.50000000E-01  8.00000000E-01  8.50000000E-01  8.50000000E-01  8.50000000E-01
  8.00000000E-01  8.50000000E-01  8.50000000E-01  8.50000000E-01  8.00000000E-01
  8.50000000E-01  8.50000000E-01  8.50000000E-01  8.00000000E-01  8.50000000E-01
  8.50000000E-01  8.50000000E-01  8.00000000E-01  8.50000000E-01  8.50000000E-01
  8.50000000E-01  8.00000000E-01  8.50000000E-01  8.50000000E-01  8.50000000E-01
  8.00000000E-01  8.50000000E-01  8.50000000E-01  8.50000000E-01  8.00000000E-01
  8.50000000E-01  8.50000000E-01  8.50000000E-01  8.00000000E-01  8.50000000E-01
  8.50000000E-01  8.50000000E-01  8.00000000E-01  8.50000000E-01  8.50000000E-01
  8.50000000E-01  8.00000000E-01  8.50000000E-01  8.50000000E-01  8.50000000E-01
  8.00000000E-01  8.50000000E-01  8.50000000E-01  8.50000000E-01  8.00000000E-01
  8.50000000E-01  8.50000000E-01  8.50000000E-01  8.00000000E-01  8.50000000E-01
  8.50000000E-01  8.50000000E-01  8.00000000E-01  8.50000000E-01  8.50000000E-01
  8.50000000E-01  8.00000000E-01  8.50000000E-01  8.50000000E-01  8.50000000E-01
  8.00000000E-01  8.50000000E-01  8.50000000E-01  8.50000000E-01  8.00000000E-01
  8.50000000E-01  8.50000000E-01  8.50000000E-01  8.00000000E-01  8.50000000E-01
  8.50000000E-01  8.50000000E-01  8.00000000E-01  8.50000000E-01  8.50000000E-01
  8.50000000E-01  8.00000000E-01  8.50000000E-01  8.50000000E-01  8.50000000E-01
  8.00000000E-01  8.50000000E-01  8.50000000E-01  8.50000000E-01  8.00000000E-01
  8.50000000E-01  8.50000000E-01  8.50000000E-01  8.00000000E-01  8.50000000E-01
  8.50000000E-01  8.50000000E-01  8.00000000E-01  8.50000000E-01  8.50000000E-01
  8.50000000E-01  8.00000000E-01  8.50000000E-01  8.50000000E-01  8.50000000E-01
  8.00000000E-01  8.50000000E-01  8.50000000E-01  8.50000000E-01  8.00000000E-01
  8.50000000E-01  8.50000000E-01  8.50000000E-01  8.00000000E-01  8.50000000E-01
  8.50000000E-01  8.50000000E-01  8.00000000E-01  8.50000000E-01  8.50000000E-01
  8.50000000E-01  8.00000000E-01  8.50000000E-01  8.50000000E-01  8.50000000E-01
  8.00000000E-01  8.50000000E-01  8.50000000E-01  8.50000000E-01  8.00000000E-01
  8.50000000E-01  8.50000000E-01  8.50000000E-01  8.00000000E-01  8.50000000E-01
  8.50000000E-01  8.50000000E-01  8.00000000E-01  8.50000000E-01  8.50000000E-01
  8.50000000E-01  8.00000000E-01  8.50000000E-01  8.50000000E-01  8.50000000E-01
  8.00000000E-01  8.50000000E-01  8.50000000E-01  8.50000000E-01  8.00000000E-01
  8.50000000E-01  8.50000000E-01  8.50000000E-01  8.00000000E-01  8.50000000E-01
  8.50000000E-01  8.50000000E-01  8.00000000E-01  8.50000000E-01  8.50000000E-01
  8.50000000E-01  8.00000000E-01  8.50000000E-01  8.50000000E-01  8.50000000E-01
  8.00000000E-01  8.50000000E-01  8.50000000E-01  8.50000000E-01  8.00000000E-01
  8.50000000E-01  8.50000000E-01  8.50000000E-01  8.00000000E-01  8.50000000E-01
  8.50000000E-01  8.50000000E-01  8.00000000E-01  8.50000000E-01  8.50000000E-01
  8.50000000E-01  8.00000000E-01  8.50000000E-01  8.50000000E-01  8.50000000E-01
  8.00000000E-01  8.50000000E-01  8.50000000E-01  8.50000000E-01  8.00000000E-01
  8.50000000E-01  8.50000000E-01  8.50000000E-01  8.00000000E-01  8.50000000E-01
  8.50000000E-01  8.50000000E-01  8.00000000E-01  8.50000000E-01  8.50000000E-01
  8.50000000E-01  8.00000000E-01  8.50000000E-01  8.50000000E-01  8.50000000E-01
  8.00000000E-01  8.50000000E-01  8.50000000E-01  8.50000000E-01  8.00000000E-01
  8.50000000E-01  8.50000000E-01  8.50000000E-01  8.00000000E-01  8.50000000E-01
  8.50000000E-01  8.50000000E-01  8.00000000E-01  8.50000000E-01  8.50000000E-01
  8.50000000E-01  8.00000000E-01  8.50000000E-01  8.50000000E-01  8.50000000E-01
  8.00000000E-01  8.50000000E-01  8.50000000E-01  8.50000000E-01  8.00000000E-01
  8.50000000E-01  8.50000000E-01  8.50000000E-01  8.00000000E-01  8.50000000E-01
  8.50000000E-01  8.50000000E-01  8.00000000E-01  8.50000000E-01  8.50000000E-01
  8.50000000E-01  8.00000000E-01  8.50000000E-01  8.50000000E-01  8.50000000E-01
  8.00000000E-01  8.50000000E-01  8.50000000E-01  8.50000000E-01  8.00000000E-01
  8.50000000E-01  8.50000000E-01  8.50000000E-01  8.00000000E-01  8.50000000E-01
  8.50000000E-01  8.50000000E-01  8.00000000E-01  8.50000000E-01  8.50000000E-01
  8.50000000E-01  8.00000000E-01  8.50000000E-01  8.50000000E-01  8.50000000E-01
  8.00000000E-01  8.50000000E-01  8.50000000E-01  8.50000000E-01  8.00000000E-01
  8.50000000E-01  8.50000000E-01  8.50000000E-01  8.00000000E-01  8.50000000E-01
  8.50000000E-01  8.50000000E-01  8.00000000E-01  8.50000000E-01  8.50000000E-01
  8.50000000E-01  8.00000000E-01  8.50000000E-01  8.50000000E-01  8.50000000E-01
  8.00000000E-01  8.50000000E-01  8.50000000E-01  8.50000000E-01  8.00000000E-01
  8.50000000E-01  8.50000000E-01  8.50000000E-01  8.00000000E-01  8.50000000E-01
  8.50000000E-01  8.50000000E-01  8.00000000E-01  8.50000000E-01  8.50000000E-01
  8.50000000E-01  8.00000000E-01  8.50000000E-01  8.50000000E-01  8.50000000E-01
  8.00000000E-01  8.50000000E-01  8.50000000E-01  8.50000000E-01  8.00000000E-01
  8.50000000E-01  8.50000000E-01  8.50000000E-01  8.00000000E-01  8.50000000E-01
  8.50000000E-01  8.50000000E-01  8.00000000E-01  8.50000000E-01  8.50000000E-01
  8.50000000E-01  8.00000000E-01  8.50000000E-01  8.50000000E-01  8.50000000E-01
  8.00000000E-01  8.50000000E-01  8.50000000E-01  8.50000000E-01  8.00000000E-01
  8.50000000E-01  8.50000000E-01  8.50000000E-01  8.00000000E-01  8.50000000E-01
  8.50000000E-01  8.50000000E-01  8.00000000E-01  8.50000000E-01  8.50000000E-01
  8.50000000E-01  8.00000000E-01  8.50000000E-01  8.50000000E-01  8.50000000E-01
  8.00000000E-01  8.50000000E-01  8.50000000E-01  8.50000000E-01  8.00000000E-01
  8.50000000E-01  8.50000000E-01  8.50000000E-01  8.00000000E-01  8.50000000E-01
  8.50000000E-01  8.50000000E-01  8.00000000E-01  8.50000000E-01  8.50000000E-01
  8.50000000E-01  8.00000000E-01  8.50000000E-01  8.50000000E-01  8.50000000E-01
  8.00000000E-01  8.50000000E-01  8.50000000E-01  8.50000000E-01  8.00000000E-01
  8.50000000E-01  8.50000000E-01  8.50000000E-01  8.00000000E-01  8.50000000E-01
  8.50000000E-01  8.50000000E-01  8.00000000E-01  8.50000000E-01  8.50000000E-01
  8.50000000E-01  8.00000000E-01  8.50000000E-01  8.50000000E-01  8.50000000E-01
  8.00000000E-01  8.50000000E-01  8.50000000E-01  8.50000000E-01  8.00000000E-01
  8.50000000E-01  8.50000000E-01  8.50000000E-01  8.00000000E-01  8.50000000E-01
  8.50000000E-01  8.50000000E-01  8.00000000E-01  8.50000000E-01  8.50000000E-01
  8.50000000E-01  8.00000000E-01  8.50000000E-01  8.50000000E-01  8.50000000E-01
  8.00000000E-01  8.50000000E-01  8.50000000E-01  8.50000000E-01  8.00000000E-01
  8.50000000E-01  8.50000000E-01  8.50000000E-01  8.00000000E-01  8.50000000E-01
  8.50000000E-01  8.50000000E-01  8.00000000E-01  8.50000000E-01  8.50000000E-01
  8.50000000E-01  8.00000000E-01  8.50000000E-01  8.50000000E-01  8.50000000E-01
  8.00000000E-01  8.50000000E-01  8.50000000E-01  8.50000000E-01  8.00000000E-01
  8.50000000E-01  8.50000000E-01  8.50000000E-01  8.00000000E-01  8.50000000E-01
  8.50000000E-01  8.50000000E-01  8.00000000E-01  8.50000000E-01  8.50000000E-01
  8.50000000E-01  8.00000000E-01  8.50000000E-01  8.50000000E-01  8.50000000E-01
  8.00000000E-01  8.50000000E-01  8.50000000E-01  8.50000000E-01  8.00000000E-01
  8.50000000E-01  8.50000000E-01  8.50000000E-01  8.00000000E-01  8.50000000E-01
  8.50000000E-01  8.50000000E-01  8.00000000E-01  8.50000000E-01  8.50000000E-01
  8.50000000E-01  8.00000000E-01  8.50000000E-01  8.50000000E-01  8.50000000E-01
  8.00000000E-01  8.50000000E-01  8.50000000E-01  8.50000000E-01  8.00000000E-01
  8.50000000E-01  8.50000000E-01  8.50000000E-01  8.00000000E-01  8.50000000E-01
  8.50000000E-01  8.50000000E-01  8.00000000E-01  8.50000000E-01  8.50000000E-01
  8.50000000E-01  8.00000000E-01  8.50000000E-01  8.50000000E-01  8.50000000E-01
  8.00000000E-01  8.50000000E-01  8.50000000E-01  8.50000000E-01  8.00000000E-01
  8.50000000E-01  8.50000000E-01  8.50000000E-01  8.00000000E-01  8.50000000E-01
  8.50000000E-01  8.50000000E-01  8.00000000E-01  8.50000000E-01  8.50000000E-01
  8.50000000E-01  8.00000000E-01  8.50000000E-01  8.50000000E-01  8.50000000E-01
  8.00000000E-01  8.50000000E-01  8.50000000E-01  8.50000000E-01  8.00000000E-01
  8.50000000E-01  8.50000000E-01  8.50000000E-01  8.00000000E-01  8.50000000E-01
  8.50000000E-01  8.50000000E-01  8.00000000E-01  8.50000000E-01  8.50000000E-01
  8.50000000E-01  8.00000000E-01  8.50000000E-01  8.50000000E-01  8.50000000E-01
  8.00000000E-01  8.50000000E-01  8.50000000E-01  8.50000000E-01  8.00000000E-01
  8.50000000E-01  8.50000000E-01  8.50000000E-01  8.00000000E-01  8.50000000E-01
  8.50000000E-01  8.50000000E-01  8.00000000E-01  8.50000000E-01  8.50000000E-01
  8.50000000E-01  8.00000000E-01  8.50000000E-01  8.50000000E-01  8.50000000E-01
  8.00000000E-01  8.50000000E-01  8.50000000E-01  8.50000000E-01  8.00000000E-01
  8.50000000E-01  8.50000000E-01  8.50000000E-01  8.00000000E-01  8.50000000E-01
  8.50000000E-01  8.50000000E-01  8.00000000E-01  8.50000000E-01  8.50000000E-01
  8.50000000E-01  8.00000000E-01  8.50000000E-01  8.50000000E-01  8.50000000E-01
  8.00000000E-01  8.50000000E-01  8.50000000E-01  8.50000000E-01  8.00000000E-01
  8.50000000E-01  8.50000000E-01  8.50000000E-01  8.00000000E-01  8.50000000E-01
  8.50000000E-01  8.50000000E-01  8.00000000E-01  8.50000000E-01  8.50000000E-01
  8.50000000E-01  8.00000000E-01  8.50000000E-01  8.50000000E-01  8.50000000E-01
  8.00000000E-01  8.50000000E-01  8.50000000E-01  8.50000000E-01  8.00000000E-01
  8.50000000E-01  8.50000000E-01  8.50000000E-01  8.00000000E-01  8.50000000E-01
  8.50000000E-01  8.50000000E-01  8.00000000E-01  8.50000000E-01  8.50000000E-01
  8.50000000E-01  8.00000000E-01  8.50000000E-01  8.50000000E-01  8.50000000E-01
  8.00000000E-01  8.50000000E-01  8.50000000E-01  8.50000000E-01  8.00000000E-01
  8.50000000E-01  8.50000000E-01  8.50000000E-01  8.00000000E-01  8.50000000E-01
  8.50000000E-01  8.50000000E-01  8.00000000E-01  8.50000000E-01  8.50000000E-01
  8.50000000E-01  8.00000000E-01  8.50000000E-01  8.50000000E-01  8.50000000E-01
  8.00000000E-01  8.50000000E-01  8.50000000E-01  8.50000000E-01  8.00000000E-01
  8.50000000E-01  8.50000000E-01  8.50000000E-01  8.00000000E-01  8.50000000E-01
  8.50000000E-01  8.50000000E-01  8.00000000E-01  8.50000000E-01  8.50000000E-01
  8.50000000E-01  8.00000000E-01  8.50000000E-01  8.50000000E-01  8.50000000E-01
  8.00000000E-01  8.50000000E-01  8.50000000E-01  8.50000000E-01  8.00000000E-01
  8.50000000E-01  8.50000000E-01  8.50000000E-01  8.00000000E-01  8.50000000E-01
  8.50000000E-01  8.50000000E-01  8.00000000E-01  8.50000000E-01  8.50000000E-01
  8.50000000E-01  8.00000000E-01  8.50000000E-01  8.50000000E-01  8.50000000E-01
  8.00000000E-01  8.50000000E-01  8.50000000E-01  8.50000000E-01  8.00000000E-01
  8.50000000E-01  8.50000000E-01  8.50000000E-01  8.00000000E-01  8.50000000E-01
  8.50000000E-01  8.50000000E-01  8.00000000E-01  8.50000000E-01  8.50000000E-01
  8.50000000E-01  8.00000000E-01  8.50000000E-01  8.50000000E-01  8.50000000E-01
  8.00000000E-01  8.50000000E-01  8.50000000E-01  8.50000000E-01  8.00000000E-01
  8.50000000E-01  8.50000000E-01  8.50000000E-01  8.00000000E-01  8.50000000E-01
  8.50000000E-01  8.50000000E-01  8.00000000E-01  8.50000000E-01  8.50000000E-01
  8.50000000E-01  8.00000000E-01  8.50000000E-01  8.50000000E-01  8.50000000E-01
  8.00000000E-01  8.50000000E-01  8.50000000E-01  8.50000000E-01  8.00000000E-01
  8.50000000E-01  8.50000000E-01  8.50000000E-01  8.00000000E-01  8.50000000E-01
  8.50000000E-01  8.50000000E-01  8.00000000E-01  8.50000000E-01  8.50000000E-01
  8.50000000E-01  8.00000000E-01  8.50000000E-01  8.50000000E-01  8.50000000E-01
  8.00000000E-01  8.50000000E-01  8.50000000E-01  8.50000000E-01  8.00000000E-01
  8.50000000E-01  8.50000000E-01  8.50000000E-01  8.00000000E-01  8.50000000E-01
  8.50000000E-01  8.50000000E-01  8.00000000E-01  8.50000000E-01  8.50000000E-01
  8.50000000E-01  8.00000000E-01  8.50000000E-01  8.50000000E-01  8.50000000E-01
  8.00000000E-01  8.50000000E-01  8.50000000E-01  8.50000000E-01  8.00000000E-01
  8.50000000E-01  8.50000000E-01  8.50000000E-01  8.00000000E-01  8.50000000E-01
  8.50000000E-01  8.50000000E-01  8.00000000E-01  8.50000000E-01  8.50000000E-01
  8.50000000E-01  8.00000000E-01  8.50000000E-01  8.50000000E-01  8.50000000E-01
  8.00000000E-01  8.50000000E-01  8.50000000E-01  8.50000000E-01  8.00000000E-01
  8.50000000E-01  8.50000000E-01  8.50000000E-01  8.00000000E-01  8.50000000E-01
  8.50000000E-01  8.50000000E-01  8.00000000E-01  8.50000000E-01  8.50000000E-01
  8.50000000E-01  8.00000000E-01  8.50000000E-01  8.50000000E-01  8.50000000E-01
  8.00000000E-01  8.50000000E-01  8.50000000E-01  8.50000000E-01  8.00000000E-01
  8.50000000E-01  8.50000000E-01  8.50000000E-01  8.00000000E-01  8.50000000E-01
  8.50000000E-01  8.50000000E-01  8.00000000E-01  8.50000000E-01  8.50000000E-01
  8.50000000E-01  8.00000000E-01  8.50000000E-01  8.50000000E-01  8.50000000E-01
  8.00000000E-01  8.50000000E-01  8.50000000E-01  8.50000000E-01  8.00000000E-01
  8.50000000E-01  8.50000000E-01  8.50000000E-01  8.00000000E-01  8.50000000E-01
  8.50000000E-01  8.50000000E-01  8.00000000E-01  8.50000000E-01  8.50000000E-01
  8.50000000E-01  8.00000000E-01  8.50000000E-01  8.50000000E-01  8.50000000E-01
  8.00000000E-01  8.50000000E-01  8.50000000E-01  8.50000000E-01  8.00000000E-01
  8.50000000E-01  8.50000000E-01  8.50000000E-01  8.00000000E-01  8.50000000E-01
  8.50000000E-01  8.50000000E-01  8.00000000E-01  8.50000000E-01  8.50000000E-01
  8.50000000E-01  8.00000000E-01  8.50000000E-01  8.50000000E-01  8.50000000E-01
  8.00000000E-01  8.50000000E-01  8.50000000E-01  8.50000000E-01  8.00000000E-01
  8.50000000E-01  8.50000000E-01  8.50000000E-01  8.00000000E-01  8.50000000E-01
  8.50000000E-01  8.50000000E-01  8.00000000E-01  8.50000000E-01  8.50000000E-01
  8.50000000E-01  8.00000000E-01  8.50000000E-01  8.50000000E-01  8.50000000E-01
  8.00000000E-01  8.50000000E-01  8.50000000E-01  8.50000000E-01  8.00000000E-01
  8.50000000E-01  8.50000000E-01  8.50000000E-01  8.00000000E-01  8.50000000E-01
  8.50000000E-01  8.50000000E-01  8.00000000E-01  8.50000000E-01  8.50000000E-01
  8.50000000E-01  8.00000000E-01  8.50000000E-01  8.50000000E-01  8.50000000E-01
  8.00000000E-01  8.50000000E-01  8.50000000E-01  8.50000000E-01  8.00000000E-01
  8.50000000E-01  8.50000000E-01  8.50000000E-01  8.00000000E-01  8.50000000E-01
  8.50000000E-01  8.50000000E-01  8.00000000E-01  8.50000000E-01  8.50000000E-01
  8.50000000E-01  8.00000000E-01  8.50000000E-01  8.50000000E-01  8.50000000E-01
  8.00000000E-01  8.50000000E-01  8.50000000E-01  8.50000000E-01  8.00000000E-01
  8.50000000E-01  8.50000000E-01  8.50000000E-01  8.00000000E-01  8.50000000E-01
  8.50000000E-01  8.50000000E-01  8.00000000E-01  8.50000000E-01  8.50000000E-01
  8.50000000E-01  8.00000000E-01  8.50000000E-01  8.50000000E-01  8.50000000E-01
  8.00000000E-01  8.50000000E-01  8.50000000E-01  8.50000000E-01  8.00000000E-01
  8.50000000E-01  8.50000000E-01  8.50000000E-01  8.00000000E-01  8.50000000E-01
  8.50000000E-01  8.50000000E-01  8.00000000E-01  8.50000000E-01  8.50000000E-01
  8.50000000E-01  8.00000000E-01  8.50000000E-01  8.50000000E-01  8.50000000E-01
  8.00000000E-01  8.50000000E-01  8.50000000E-01  8.50000000E-01  8.00000000E-01
  8.50000000E-01  8.50000000E-01  8.50000000E-01  8.00000000E-01  8.50000000E-01
  8.50000000E-01  8.50000000E-01  8.00000000E-01  8.50000000E-01  8.50000000E-01
  8.50000000E-01  8.00000000E-01  8.50000000E-01  8.50000000E-01  8.50000000E-01
  8.00000000E-01  8.50000000E-01  8.50000000E-01  8.50000000E-01  8.00000000E-01
  8.50000000E-01  8.50000000E-01  8.50000000E-01  8.00000000E-01  8.50000000E-01
  8.50000000E-01  8.50000000E-01  8.00000000E-01  8.50000000E-01  8.50000000E-01
  8.50000000E-01  8.00000000E-01  8.50000000E-01  8.50000000E-01  8.50000000E-01
  8.00000000E-01  8.50000000E-01  8.50000000E-01  8.50000000E-01  8.00000000E-01
  8.50000000E-01  8.50000000E-01  8.50000000E-01  8.00000000E-01  8.50000000E-01
  8.50000000E-01  8.50000000E-01  8.00000000E-01  8.50000000E-01  8.50000000E-01
  8.50000000E-01  8.00000000E-01  8.50000000E-01  8.50000000E-01  8.50000000E-01
  8.00000000E-01  8.50000000E-01  8.50000000E-01  8.50000000E-01  8.00000000E-01
  8.50000000E-01  8.50000000E-01  8.50000000E-01  8.00000000E-01  8.50000000E-01
  8.50000000E-01  8.50000000E-01  8.00000000E-01  8.50000000E-01  8.50000000E-01
  8.50000000E-01  8.00000000E-01  8.50000000E-01  8.50000000E-01  8.50000000E-01
  8.00000000E-01  8.50000000E-01  8.50000000E-01  8.50000000E-01  8.00000000E-01
  8.50000000E-01  8.50000000E-01  8.50000000E-01  8.00000000E-01  8.50000000E-01
  8.50000000E-01  8.50000000E-01  8.00000000E-01  8.50000000E-01  8.50000000E-01
  8.50000000E-01  8.00000000E-01  8.50000000E-01  8.50000000E-01  8.50000000E-01
  8.00000000E-01  8.50000000E-01  8.50000000E-01  8.50000000E-01  8.00000000E-01
  8.50000000E-01  8.50000000E-01  8.50000000E-01  8.00000000E-01  8.50000000E-01
  8.50000000E-01  8.50000000E-01  8.00000000E-01  8.50000000E-01  8.50000000E-01
  8.50000000E-01  8.00000000E-01  8.50000000E-01  8.50000000E-01  8.50000000E-01
  8.00000000E-01  8.50000000E-01  8.50000000E-01  8.50000000E-01  8.00000000E-01
  8.50000000E-01  8.50000000E-01  8.50000000E-01  8.00000000E-01  8.50000000E-01
  8.50000000E-01  8.50000000E-01  8.00000000E-01  8.50000000E-01  8.50000000E-01
  8.50000000E-01  8.00000000E-01  8.50000000E-01  8.50000000E-01  8.50000000E-01
  8.00000000E-01  8.50000000E-01  8.50000000E-01  8.50000000E-01  8.00000000E-01
  8.50000000E-01  8.50000000E-01  8.50000000E-01  8.00000000E-01  8.50000000E-01
  8.50000000E-01  8.50000000E-01  8.00000000E-01  8.50000000E-01  8.50000000E-01
  8.50000000E-01  8.00000000E-01  8.50000000E-01  8.50000000E-01  8.50000000E-01
  8.00000000E-01  8.50000000E-01  8.50000000E-01  8.50000000E-01  8.00000000E-01
  8.50000000E-01  8.50000000E-01  8.50000000E-01  8.00000000E-01  8.50000000E-01
  8.50000000E-01  8.50000000E-01  8.00000000E-01  8.50000000E-01  8.50000000E-01
  8.50000000E-01  8.00000000E-01  8.50000000E-01  8.50000000E-01  8.50000000E-01
  8.00000000E-01  8.50000000E-01  8.50000000E-01  8.50000000E-01  8.00000000E-01
  8.50000000E-01  8.50000000E-01  8.50000000E-01  8.00000000E-01  8.50000000E-01
  8.50000000E-01  8.50000000E-01  8.00000000E-01  8.50000000E-01  8.50000000E-01
  8.50000000E-01  8.00000000E-01  8.50000000E-01  8.50000000E-01  8.50000000E-01
  8.00000000E-01  8.50000000E-01  8.50000000E-01  8.50000000E-01  8.00000000E-01
  8.50000000E-01  8.50000000E-01  8.50000000E-01  8.00000000E-01  8.50000000E-01
  8.50000000E-01  8.50000000E-01  8.00000000E-01  8.50000000E-01  8.50000000E-01
  8.50000000E-01  8.00000000E-01  8.50000000E-01  8.50000000E-01  8.50000000E-01
  8.00000000E-01  8.50000000E-01  8.50000000E-01  8.50000000E-01  8.00000000E-01
  8.50000000E-01  8.50000000E-01  8.50000000E-01  8.00000000E-01  8.50000000E-01
  8.50000000E-01  8.50000000E-01  8.00000000E-01  8.50000000E-01  8.50000000E-01
  8.50000000E-01  8.00000000E-01  8.50000000E-01  8.50000000E-01  8.50000000E-01
  8.00000000E-01  8.50000000E-01  8.50000000E-01  8.50000000E-01  8.00000000E-01
  8.50000000E-01  8.50000000E-01  8.50000000E-01  8.00000000E-01  8.50000000E-01
  8.50000000E-01  8.50000000E-01  8.00000000E-01  8.50000000E-01  8.50000000E-01
  8.50000000E-01  8.00000000E-01  8.50000000E-01  8.50000000E-01  8.50000000E-01
  8.00000000E-01  8.50000000E-01  8.50000000E-01  8.50000000E-01  8.00000000E-01
  8.50000000E-01  8.50000000E-01  8.50000000E-01  8.00000000E-01  8.50000000E-01
  8.50000000E-01  8.50000000E-01  8.00000000E-01  8.50000000E-01  8.50000000E-01
  8.50000000E-01  8.00000000E-01  8.50000000E-01  8.50000000E-01  8.50000000E-01
  8.00000000E-01  8.50000000E-01  8.50000000E-01  8.50000000E-01  8.00000000E-01
  8.50000000E-01  8.50000000E-01  8.50000000E-01  8.00000000E-01  8.50000000E-01
  8.50000000E-01  8.50000000E-01  8.00000000E-01  8.50000000E-01  8.50000000E-01
  8.50000000E-01  8.00000000E-01  8.50000000E-01  8.50000000E-01  8.50000000E-01
  8.00000000E-01  8.50000000E-01  8.50000000E-01  8.50000000E-01  8.00000000E-01
  8.50000000E-01  8.50000000E-01  8.50000000E-01  8.00000000E-01  8.50000000E-01
  8.50000000E-01  8.50000000E-01  8.00000000E-01  8.50000000E-01  8.50000000E-01
  8.50000000E-01  8.00000000E-01  8.50000000E-01  8.50000000E-01  8.50000000E-01
  8.00000000E-01  8.50000000E-01  8.50000000E-01  8.50000000E-01  8.00000000E-01
  8.50000000E-01  8.50000000E-01  8.50000000E-01  8.00000000E-01  8.50000000E-01
  8.50000000E-01  8.50000000E-01  8.00000000E-01  8.50000000E-01  8.50000000E-01
  8.50000000E-01  8.00000000E-01  8.50000000E-01  8.50000000E-01  8.50000000E-01
  8.00000000E-01  8.50000000E-01  8.50000000E-01  8.50000000E-01  8.00000000E-01
  8.50000000E-01  8.50000000E-01  8.50000000E-01  8.00000000E-01  8.50000000E-01
  8.50000000E-01  8.50000000E-01  8.00000000E-01  8.50000000E-01  8.50000000E-01
  8.50000000E-01  8.00000000E-01  8.50000000E-01  8.50000000E-01  8.50000000E-01
  8.00000000E-01  8.50000000E-01  8.50000000E-01  8.50000000E-01  8.00000000E-01
  8.50000000E-01  8.50000000E-01  8.50000000E-01  8.00000000E-01  8.50000000E-01
  8.50000000E-01  8.50000000E-01  8.00000000E-01  8.50000000E-01  8.50000000E-01
  8.50000000E-01  8.00000000E-01  8.50000000E-01  8.50000000E-01  8.50000000E-01
  8.00000000E-01  8.50000000E-01  8.50000000E-01  8.50000000E-01  8.00000000E-01
  8.50000000E-01  8.50000000E-01  8.50000000E-01  8.00000000E-01  8.50000000E-01
  8.50000000E-01  8.50000000E-01  8.00000000E-01  8.50000000E-01  8.50000000E-01
  8.50000000E-01  8.00000000E-01  8.50000000E-01  8.50000000E-01  8.50000000E-01
  8.00000000E-01  8.50000000E-01  8.50000000E-01  8.50000000E-01  8.00000000E-01
  8.50000000E-01  8.50000000E-01  8.50000000E-01  8.00000000E-01  8.50000000E-01
  8.50000000E-01  8.50000000E-01  8.00000000E-01  8.50000000E-01  8.50000000E-01
  8.50000000E-01  8.00000000E-01  8.50000000E-01  8.50000000E-01  8.50000000E-01
  8.00000000E-01  8.50000000E-01  8.50000000E-01  8.50000000E-01  8.00000000E-01
  8.50000000E-01  8.50000000E-01  8.50000000E-01  8.00000000E-01  8.50000000E-01
  8.50000000E-01  8.50000000E-01  8.00000000E-01  8.50000000E-01  8.50000000E-01
  8.50000000E-01  8.00000000E-01  8.50000000E-01  8.50000000E-01  8.50000000E-01
  8.00000000E-01  8.50000000E-01  8.50000000E-01  8.50000000E-01  8.00000000E-01
  8.50000000E-01  8.50000000E-01  8.50000000E-01  8.00000000E-01  8.50000000E-01
  8.50000000E-01  8.50000000E-01  8.00000000E-01  8.50000000E-01  8.50000000E-01
  8.50000000E-01  8.00000000E-01  8.50000000E-01  8.50000000E-01  8.50000000E-01
  8.00000000E-01  8.50000000E-01  8.50000000E-01  8.50000000E-01  8.00000000E-01
  8.50000000E-01  8.50000000E-01  8.50000000E-01  8.00000000E-01  8.50000000E-01
  8.50000000E-01  8.50000000E-01  8.00000000E-01  8.50000000E-01  8.50000000E-01
  8.50000000E-01  8.00000000E-01  8.50000000E-01  8.50000000E-01  8.50000000E-01
  8.00000000E-01  8.50000000E-01  8.50000000E-01  8.50000000E-01  8.00000000E-01
  8.50000000E-01  8.50000000E-01  8.50000000E-01  8.00000000E-01  8.50000000E-01
  8.50000000E-01  8.50000000E-01  8.00000000E-01  8.50000000E-01  8.50000000E-01
  8.50000000E-01  8.00000000E-01  8.50000000E-01  8.50000000E-01  8.50000000E-01
  8.00000000E-01  8.50000000E-01  8.50000000E-01  8.50000000E-01  8.00000000E-01
  8.50000000E-01  8.50000000E-01  8.50000000E-01  8.00000000E-01  8.50000000E-01
  8.50000000E-01  8.50000000E-01  8.00000000E-01  8.50000000E-01  8.50000000E-01
  8.50000000E-01  8.00000000E-01  8.50000000E-01  8.50000000E-01  8.50000000E-01
  8.00000000E-01  8.50000000E-01  8.50000000E-01  8.50000000E-01  8.00000000E-01
  8.50000000E-01  8.50000000E-01  8.50000000E-01  8.00000000E-01  8.50000000E-01
  8.50000000E-01  8.50000000E-01  8.00000000E-01  8.50000000E-01  8.50000000E-01
  8.50000000E-01  8.00000000E-01  8.50000000E-01  8.50000000E-01  8.50000000E-01
  8.00000000E-01  8.50000000E-01  8.50000000E-01  8.50000000E-01  8.00000000E-01
  8.50000000E-01  8.50000000E-01  8.50000000E-01  8.00000000E-01  8.50000000E-01
  8.50000000E-01  8.50000000E-01  8.00000000E-01  8.50000000E-01  8.50000000E-01
  8.50000000E-01  8.00000000E-01  8.50000000E-01  8.50000000E-01  8.50000000E-01
  8.00000000E-01  8.50000000E-01  8.50000000E-01  8.50000000E-01  8.00000000E-01
  8.50000000E-01  8.50000000E-01  8.50000000E-01  8.00000000E-01  8.50000000E-01
  8.50000000E-01  8.50000000E-01  8.00000000E-01  8.50000000E-01  8.50000000E-01
  8.50000000E-01  8.00000000E-01  8.50000000E-01  8.50000000E-01  8.50000000E-01
  8.00000000E-01  8.50000000E-01  8.50000000E-01  8.50000000E-01  8.00000000E-01
  8.50000000E-01  8.50000000E-01  8.50000000E-01  8.00000000E-01  8.50000000E-01
  8.50000000E-01  8.50000000E-01  8.00000000E-01  8.50000000E-01  8.50000000E-01
  8.50000000E-01  8.00000000E-01  8.50000000E-01  8.50000000E-01  8.50000000E-01
  8.00000000E-01  8.50000000E-01  8.50000000E-01  8.50000000E-01  8.00000000E-01
  8.50000000E-01  8.50000000E-01  8.50000000E-01  8.00000000E-01  8.50000000E-01
  8.50000000E-01  8.50000000E-01  8.00000000E-01  8.50000000E-01  8.50000000E-01
  8.50000000E-01  8.00000000E-01  8.50000000E-01  8.50000000E-01  8.50000000E-01
  8.00000000E-01  8.50000000E-01  8.50000000E-01  8.50000000E-01  8.00000000E-01
  8.50000000E-01  8.50000000E-01  8.50000000E-01  8.00000000E-01  8.50000000E-01
  8.50000000E-01  8.50000000E-01  8.00000000E-01  8.50000000E-01  8.50000000E-01
  8.50000000E-01  8.00000000E-01  8.50000000E-01  8.50000000E-01  8.50000000E-01
  8.00000000E-01  8.50000000E-01  8.50000000E-01  8.50000000E-01  8.00000000E-01
  8.50000000E-01  8.50000000E-01  8.50000000E-01  8.00000000E-01  8.50000000E-01
  8.50000000E-01  8.50000000E-01  8.00000000E-01  8.50000000E-01  8.50000000E-01
  8.50000000E-01  8.00000000E-01  8.50000000E-01  8.50000000E-01  8.50000000E-01
  8.00000000E-01  8.50000000E-01  8.50000000E-01  8.50000000E-01  8.00000000E-01
  8.50000000E-01  8.50000000E-01  8.50000000E-01  8.00000000E-01  8.50000000E-01
  8.50000000E-01  8.50000000E-01  8.00000000E-01  8.50000000E-01  8.50000000E-01
  8.50000000E-01  8.00000000E-01  8.50000000E-01  8.50000000E-01  8.50000000E-01
  8.00000000E-01  8.50000000E-01  8.50000000E-01  8.50000000E-01  8.00000000E-01
  8.50000000E-01  8.50000000E-01  8.50000000E-01  8.00000000E-01  8.50000000E-01
  8.50000000E-01  8.50000000E-01  8.00000000E-01  8.50000000E-01  8.50000000E-01
  8.50000000E-01  8.00000000E-01  8.50000000E-01  8.50000000E-01  8.50000000E-01
  8.00000000E-01  8.50000000E-01  8.50000000E-01  8.50000000E-01  8.00000000E-01
  8.50000000E-01  8.50000000E-01  8.50000000E-01  8.00000000E-01  8.50000000E-01
  8.50000000E-01  8.50000000E-01  8.00000000E-01  8.50000000E-01  8.50000000E-01
  8.50000000E-01  8.00000000E-01  8.50000000E-01  8.50000000E-01  8.50000000E-01
  8.00000000E-01  8.50000000E-01  8.50000000E-01  8.50000000E-01  8.00000000E-01
  8.50000000E-01  8.50000000E-01  8.50000000E-01  8.00000000E-01  8.50000000E-01
  8.50000000E-01  8.50000000E-01  8.00000000E-01  8.50000000E-01  8.50000000E-01
  8.50000000E-01  8.00000000E-01  8.50000000E-01  8.50000000E-01  8.50000000E-01
  8.00000000E-01  8.50000000E-01  8.50000000E-01  8.50000000E-01  8.00000000E-01
  8.50000000E-01  8.50000000E-01  8.50000000E-01  8.00000000E-01  8.50000000E-01
  8.50000000E-01  8.50000000E-01  8.00000000E-01  8.50000000E-01  8.50000000E-01
  8.50000000E-01  8.00000000E-01  8.50000000E-01  8.50000000E-01  8.50000000E-01
  8.00000000E-01  8.50000000E-01  8.50000000E-01  8.50000000E-01  8.00000000E-01
  8.50000000E-01  8.50000000E-01  8.50000000E-01  8.00000000E-01  8.50000000E-01
  8.50000000E-01  8.50000000E-01  8.00000000E-01  8.50000000E-01  8.50000000E-01
  8.50000000E-01  8.00000000E-01  8.50000000E-01  8.50000000E-01  8.50000000E-01
  8.00000000E-01  8.50000000E-01  8.50000000E-01  8.50000000E-01  8.00000000E-01
  8.50000000E-01  8.50000000E-01  8.50000000E-01  8.00000000E-01  8.50000000E-01
  8.50000000E-01  8.50000000E-01  8.00000000E-01  8.50000000E-01  8.50000000E-01
  8.50000000E-01  8.00000000E-01  8.50000000E-01  8.50000000E-01  8.50000000E-01
  8.00000000E-01  8.50000000E-01  8.50000000E-01  8.50000000E-01  8.00000000E-01
  8.50000000E-01  8.50000000E-01  8.50000000E-01  8.00000000E-01  8.50000000E-01
  8.50000000E-01  8.50000000E-01  8.00000000E-01  8.50000000E-01  8.50000000E-01
  8.50000000E-01  8.00000000E-01  8.50000000E-01  8.50000000E-01  8.50000000E-01
  8.00000000E-01  8.50000000E-01  8.50000000E-01  8.50000000E-01  8.00000000E-01
  8.50000000E-01  8.50000000E-01  8.50000000E-01  8.00000000E-01  8.50000000E-01
  8.50000000E-01  8.50000000E-01  8.00000000E-01  8.50000000E-01  8.50000000E-01
  8.50000000E-01  8.00000000E-01  8.50000000E-01  8.50000000E-01  8.50000000E-01
  8.00000000E-01  8.50000000E-01  8.50000000E-01  8.50000000E-01  8.00000000E-01
  8.50000000E-01  8.50000000E-01  8.50000000E-01  8.00000000E-01  8.50000000E-01
  8.50000000E-01  8.50000000E-01  8.00000000E-01  8.50000000E-01  8.50000000E-01
  8.50000000E-01  8.00000000E-01  8.50000000E-01  8.50000000E-01  8.50000000E-01
  8.00000000E-01  8.50000000E-01  8.50000000E-01  8.50000000E-01  8.00000000E-01
  8.50000000E-01  8.50000000E-01  8.50000000E-01  8.00000000E-01  8.50000000E-01
  8.50000000E-01  8.50000000E-01  8.00000000E-01  8.50000000E-01  8.50000000E-01
  8.50000000E-01  8.00000000E-01  8.50000000E-01  8.50000000E-01  8.50000000E-01
  8.00000000E-01  8.50000000E-01  8.50000000E-01  8.50000000E-01  8.00000000E-01
  8.50000000E-01  8.50000000E-01  8.50000000E-01  8.00000000E-01  8.50000000E-01
  8.50000000E-01  8.50000000E-01  8.00000000E-01  8.50000000E-01  8.50000000E-01
  8.50000000E-01  8.00000000E-01  8.50000000E-01  8.50000000E-01  8.50000000E-01
  8.00000000E-01  8.50000000E-01  8.50000000E-01  8.50000000E-01  8.00000000E-01
  8.50000000E-01  8.50000000E-01  8.50000000E-01  8.00000000E-01  8.50000000E-01
  8.50000000E-01  8.50000000E-01  8.00000000E-01  8.50000000E-01  8.50000000E-01
  8.50000000E-01  8.00000000E-01  8.50000000E-01  8.50000000E-01  8.50000000E-01
  8.00000000E-01  8.50000000E-01  8.50000000E-01  8.50000000E-01  8.00000000E-01
  8.50000000E-01  8.50000000E-01  8.50000000E-01  8.00000000E-01  8.50000000E-01
  8.50000000E-01  8.50000000E-01  8.00000000E-01  8.50000000E-01  8.50000000E-01
  8.50000000E-01  8.00000000E-01  8.50000000E-01  8.50000000E-01  8.50000000E-01
  8.00000000E-01  8.50000000E-01  8.50000000E-01  8.50000000E-01  8.00000000E-01
  8.50000000E-01  8.50000000E-01  8.50000000E-01  8.00000000E-01  8.50000000E-01
  8.50000000E-01  8.50000000E-01  8.00000000E-01  8.50000000E-01  8.50000000E-01
  8.50000000E-01  8.00000000E-01  8.50000000E-01  8.50000000E-01  8.50000000E-01
  8.00000000E-01  8.50000000E-01  8.50000000E-01  8.50000000E-01  8.00000000E-01
  8.50000000E-01  8.50000000E-01  8.50000000E-01  8.00000000E-01  8.50000000E-01
  8.50000000E-01  8.50000000E-01  8.00000000E-01  8.50000000E-01  8.50000000E-01
  8.50000000E-01  8.00000000E-01  8.50000000E-01  8.50000000E-01  8.50000000E-01
  8.00000000E-01  8.50000000E-01  8.50000000E-01  8.50000000E-01  8.00000000E-01
  8.50000000E-01  8.50000000E-01  8.50000000E-01  8.00000000E-01  8.50000000E-01
  8.50000000E-01  8.50000000E-01  8.00000000E-01  8.50000000E-01  8.50000000E-01
  8.50000000E-01  8.00000000E-01  8.50000000E-01  8.50000000E-01  8.50000000E-01
  8.00000000E-01  8.50000000E-01  8.50000000E-01  8.50000000E-01  8.00000000E-01
  8.50000000E-01  8.50000000E-01  8.50000000E-01  8.00000000E-01  8.50000000E-01
  8.50000000E-01  8.50000000E-01  8.00000000E-01  8.50000000E-01  8.50000000E-01
  8.50000000E-01  8.00000000E-01  8.50000000E-01  8.50000000E-01  8.50000000E-01
  8.00000000E-01  8.50000000E-01  8.50000000E-01  8.50000000E-01  8.00000000E-01
  8.50000000E-01  8.50000000E-01  8.50000000E-01  8.00000000E-01  8.50000000E-01
  8.50000000E-01  8.50000000E-01  8.00000000E-01  8.50000000E-01  8.50000000E-01
  8.50000000E-01  8.00000000E-01  8.50000000E-01  8.50000000E-01  8.50000000E-01
  8.00000000E-01  8.50000000E-01  8.50000000E-01  8.50000000E-01  8.00000000E-01
  8.50000000E-01  8.50000000E-01  8.50000000E-01  8.00000000E-01  8.50000000E-01
  8.50000000E-01  8.50000000E-01  8.00000000E-01  8.50000000E-01  8.50000000E-01
  8.50000000E-01  8.00000000E-01  8.50000000E-01  8.50000000E-01  8.50000000E-01
  8.00000000E-01  8.50000000E-01  8.50000000E-01  8.50000000E-01  8.00000000E-01
  8.50000000E-01  8.50000000E-01  8.50000000E-01  8.00000000E-01  8.50000000E-01
  8.50000000E-01  8.50000000E-01  8.00000000E-01  8.50000000E-01  8.50000000E-01
  8.50000000E-01  8.00000000E-01  8.50000000E-01  8.50000000E-01  8.50000000E-01
  8.00000000E-01  8.50000000E-01  8.50000000E-01  8.50000000E-01  8.00000000E-01
  8.50000000E-01  8.50000000E-01  8.50000000E-01  8.00000000E-01  8.50000000E-01
  8.50000000E-01  8.50000000E-01  8.00000000E-01  8.50000000E-01  8.50000000E-01
  8.50000000E-01  8.00000000E-01  8.50000000E-01  8.50000000E-01  8.50000000E-01
  8.00000000E-01  8.50000000E-01  8.50000000E-01  8.50000000E-01  8.00000000E-01
  8.50000000E-01  8.50000000E-01  8.50000000E-01  8.00000000E-01  8.50000000E-01
  8.50000000E-01  8.50000000E-01  8.00000000E-01  8.50000000E-01  8.50000000E-01
  8.50000000E-01  8.00000000E-01  8.50000000E-01  8.50000000E-01  8.50000000E-01
  8.00000000E-01  8.50000000E-01  8.50000000E-01  8.50000000E-01  8.00000000E-01
  8.50000000E-01  8.50000000E-01  8.50000000E-01  8.00000000E-01  8.50000000E-01
  8.50000000E-01  8.50000000E-01  8.00000000E-01  8.50000000E-01  8.50000000E-01
  8.50000000E-01  8.00000000E-01  8.50000000E-01  8.50000000E-01  8.50000000E-01
  8.00000000E-01  8.50000000E-01  8.50000000E-01  8.50000000E-01  8.00000000E-01
  8.50000000E-01  8.50000000E-01  8.50000000E-01  8.00000000E-01  8.50000000E-01
  8.50000000E-01  8.50000000E-01  8.00000000E-01  8.50000000E-01  8.50000000E-01
  8.50000000E-01  8.00000000E-01  8.50000000E-01  8.50000000E-01  8.50000000E-01
  8.00000000E-01  8.50000000E-01  8.50000000E-01  8.50000000E-01  8.00000000E-01
  8.50000000E-01  8.50000000E-01  8.50000000E-01  8.00000000E-01  8.50000000E-01
  8.50000000E-01  8.50000000E-01  8.00000000E-01  8.50000000E-01  8.50000000E-01
  8.50000000E-01  8.00000000E-01  8.50000000E-01  8.50000000E-01  8.50000000E-01
  8.00000000E-01  8.50000000E-01  8.50000000E-01  8.50000000E-01  8.00000000E-01
  8.50000000E-01  8.50000000E-01  8.50000000E-01  8.00000000E-01  8.50000000E-01
  8.50000000E-01  8.50000000E-01  8.00000000E-01  8.50000000E-01  8.50000000E-01
  8.50000000E-01  8.00000000E-01  8.50000000E-01  8.50000000E-01  8.50000000E-01
  8.00000000E-01  8.50000000E-01  8.50000000E-01  8.50000000E-01  8.00000000E-01
  8.50000000E-01  8.50000000E-01  8.50000000E-01  8.00000000E-01  8.50000000E-01
  8.50000000E-01  8.50000000E-01  8.00000000E-01  8.50000000E-01  8.50000000E-01
  8.50000000E-01  8.00000000E-01  8.50000000E-01  8.50000000E-01  8.50000000E-01
  8.00000000E-01  8.50000000E-01  8.50000000E-01  8.50000000E-01  8.00000000E-01
  8.50000000E-01  8.50000000E-01  8.50000000E-01  8.00000000E-01  8.50000000E-01
  8.50000000E-01  8.50000000E-01  8.00000000E-01  8.50000000E-01  8.50000000E-01
  8.50000000E-01  8.00000000E-01  8.50000000E-01  8.50000000E-01  8.50000000E-01
  8.00000000E-01  8.50000000E-01  8.50000000E-01  8.50000000E-01  8.00000000E-01
  8.50000000E-01  8.50000000E-01  8.50000000E-01  8.00000000E-01  8.50000000E-01
  8.50000000E-01  8.50000000E-01  8.00000000E-01  8.50000000E-01  8.50000000E-01
  8.50000000E-01  8.00000000E-01  8.50000000E-01  8.50000000E-01  8.50000000E-01
  8.00000000E-01  8.50000000E-01  8.50000000E-01  8.50000000E-01  8.00000000E-01
  8.50000000E-01  8.50000000E-01  8.50000000E-01  8.00000000E-01  8.50000000E-01
  8.50000000E-01  8.50000000E-01  8.00000000E-01  8.50000000E-01  8.50000000E-01
  8.50000000E-01  8.00000000E-01  8.50000000E-01  8.50000000E-01  8.50000000E-01
  8.00000000E-01  8.50000000E-01  8.50000000E-01  8.50000000E-01  8.00000000E-01
  8.50000000E-01  8.50000000E-01  8.50000000E-01  8.00000000E-01  8.50000000E-01
  8.50000000E-01  8.50000000E-01  8.00000000E-01  8.50000000E-01  8.50000000E-01
  8.50000000E-01  8.00000000E-01  8.50000000E-01  8.50000000E-01  8.50000000E-01
  8.00000000E-01  8.50000000E-01  8.50000000E-01  8.50000000E-01  8.00000000E-01
  8.50000000E-01  8.50000000E-01  8.50000000E-01  8.00000000E-01  8.50000000E-01
  8.50000000E-01  8.50000000E-01  8.00000000E-01  8.50000000E-01  8.50000000E-01
  8.50000000E-01  8.00000000E-01  8.50000000E-01  8.50000000E-01  8.50000000E-01
  8.00000000E-01  8.50000000E-01  8.50000000E-01  8.50000000E-01  8.00000000E-01
  8.50000000E-01  8.50000000E-01  8.50000000E-01  8.00000000E-01  8.50000000E-01
  8.50000000E-01  8.50000000E-01  8.00000000E-01  8.50000000E-01  8.50000000E-01
  8.50000000E-01  8.00000000E-01  8.50000000E-01  8.50000000E-01  8.50000000E-01
  8.00000000E-01  8.50000000E-01  8.50000000E-01  8.50000000E-01  8.00000000E-01
  8.50000000E-01  8.50000000E-01  8.50000000E-01  8.00000000E-01  8.50000000E-01
  8.50000000E-01  8.50000000E-01  8.00000000E-01  8.50000000E-01  8.50000000E-01
  8.50000000E-01  8.00000000E-01  8.50000000E-01  8.50000000E-01  8.50000000E-01
  8.00000000E-01  8.50000000E-01  8.50000000E-01  8.50000000E-01  8.00000000E-01
  8.50000000E-01  8.50000000E-01  8.50000000E-01  8.00000000E-01  8.50000000E-01
  8.50000000E-01  8.50000000E-01  8.00000000E-01  8.50000000E-01  8.50000000E-01
  8.50000000E-01  8.00000000E-01  8.50000000E-01  8.50000000E-01  8.50000000E-01
  8.00000000E-01  8.50000000E-01  8.50000000E-01  8.50000000E-01  8.00000000E-01
  8.50000000E-01  8.50000000E-01  8.50000000E-01  8.00000000E-01  8.50000000E-01
  8.50000000E-01  8.50000000E-01  8.00000000E-01  8.50000000E-01  8.50000000E-01
  8.50000000E-01  8.00000000E-01  8.50000000E-01  8.50000000E-01  8.50000000E-01
  8.00000000E-01  8.50000000E-01  8.50000000E-01  8.50000000E-01  8.00000000E-01
  8.50000000E-01  8.50000000E-01  8.50000000E-01  8.00000000E-01  8.50000000E-01
  8.50000000E-01  8.50000000E-01  8.00000000E-01  8.50000000E-01  8.50000000E-01
  8.50000000E-01  8.00000000E-01  8.50000000E-01  8.50000000E-01  8.50000000E-01
  8.00000000E-01  8.50000000E-01  8.50000000E-01  8.50000000E-01  8.00000000E-01
  8.50000000E-01  8.50000000E-01  8.50000000E-01  8.00000000E-01  8.50000000E-01
  8.50000000E-01  8.50000000E-01  8.00000000E-01  8.50000000E-01  8.50000000E-01
  8.50000000E-01  8.00000000E-01  8.50000000E-01  8.50000000E-01  8.50000000E-01
  8.00000000E-01  8.50000000E-01  8.50000000E-01  8.50000000E-01  8.00000000E-01
  8.50000000E-01  8.50000000E-01  8.50000000E-01  8.00000000E-01  8.50000000E-01
  8.50000000E-01  8.50000000E-01  8.00000000E-01  8.50000000E-01  8.50000000E-01
  8.50000000E-01  8.00000000E-01  8.50000000E-01  8.50000000E-01  8.50000000E-01
  8.00000000E-01  8.50000000E-01  8.50000000E-01  8.50000000E-01  8.00000000E-01
  8.50000000E-01  8.50000000E-01  8.50000000E-01  8.00000000E-01  8.50000000E-01
  8.50000000E-01  8.50000000E-01  8.00000000E-01  8.50000000E-01  8.50000000E-01
  8.50000000E-01  8.00000000E-01  8.50000000E-01  8.50000000E-01  8.50000000E-01
  8.00000000E-01  8.50000000E-01  8.50000000E-01  8.50000000E-01  8.00000000E-01
  8.50000000E-01  8.50000000E-01  8.50000000E-01  8.00000000E-01  8.50000000E-01
  8.50000000E-01  8.50000000E-01  8.00000000E-01  8.50000000E-01  8.50000000E-01
  8.50000000E-01  8.00000000E-01  8.50000000E-01  8.50000000E-01  8.50000000E-01
  8.00000000E-01  8.50000000E-01  8.50000000E-01  8.50000000E-01  8.00000000E-01
  8.50000000E-01  8.50000000E-01  8.50000000E-01  8.00000000E-01  8.50000000E-01
  8.50000000E-01  8.50000000E-01  8.00000000E-01  8.50000000E-01  8.50000000E-01
  8.50000000E-01  8.00000000E-01  8.50000000E-01  8.50000000E-01  8.50000000E-01
  8.00000000E-01  8.50000000E-01  8.50000000E-01  8.50000000E-01  8.00000000E-01
  8.50000000E-01  8.50000000E-01  8.50000000E-01  8.00000000E-01  8.50000000E-01
  8.50000000E-01  8.50000000E-01  8.00000000E-01  8.50000000E-01  8.50000000E-01
  8.50000000E-01  8.00000000E-01  8.50000000E-01  8.50000000E-01  8.50000000E-01
  8.00000000E-01  8.50000000E-01  8.50000000E-01  8.50000000E-01  8.00000000E-01
  8.50000000E-01  8.50000000E-01  8.50000000E-01  8.00000000E-01  8.50000000E-01
  8.50000000E-01  8.50000000E-01  8.00000000E-01  8.50000000E-01  8.50000000E-01
  8.50000000E-01  8.00000000E-01  8.50000000E-01  8.50000000E-01  8.50000000E-01
  8.00000000E-01  8.50000000E-01  8.50000000E-01  8.50000000E-01  8.00000000E-01
  8.50000000E-01  8.50000000E-01  8.50000000E-01  8.00000000E-01  8.50000000E-01
  8.50000000E-01  8.50000000E-01  8.00000000E-01  8.50000000E-01  8.50000000E-01
  8.50000000E-01  8.00000000E-01  8.50000000E-01  8.50000000E-01  8.50000000E-01
  8.00000000E-01  8.50000000E-01  8.50000000E-01  8.50000000E-01  8.00000000E-01
  8.50000000E-01  8.50000000E-01  8.50000000E-01  8.00000000E-01  8.50000000E-01
  8.50000000E-01  8.50000000E-01  8.00000000E-01  8.50000000E-01  8.50000000E-01
  8.50000000E-01  8.00000000E-01  8.50000000E-01  8.50000000E-01  8.50000000E-01
  8.00000000E-01  8.50000000E-01  8.50000000E-01  8.50000000E-01  8.00000000E-01
  8.50000000E-01  8.50000000E-01  8.50000000E-01  8.00000000E-01  8.50000000E-01
  8.50000000E-01  8.50000000E-01  8.00000000E-01  8.50000000E-01  8.50000000E-01
  8.50000000E-01  8.00000000E-01  8.50000000E-01  8.50000000E-01  8.50000000E-01
  8.00000000E-01  8.50000000E-01  8.50000000E-01  8.50000000E-01  8.00000000E-01
  8.50000000E-01  8.50000000E-01  8.50000000E-01  8.00000000E-01  8.50000000E-01
  8.50000000E-01  8.50000000E-01  8.00000000E-01  8.50000000E-01  8.50000000E-01
  8.50000000E-01  8.00000000E-01  8.50000000E-01  8.50000000E-01  8.50000000E-01
  8.00000000E-01  8.50000000E-01  8.50000000E-01  8.50000000E-01  8.00000000E-01
  8.50000000E-01  8.50000000E-01  8.50000000E-01  8.00000000E-01  8.50000000E-01
  8.50000000E-01  8.50000000E-01  8.00000000E-01  8.50000000E-01  8.50000000E-01
  8.50000000E-01  8.00000000E-01  8.50000000E-01  8.50000000E-01  8.50000000E-01
  8.00000000E-01  8.50000000E-01  8.50000000E-01  8.50000000E-01  8.00000000E-01
  8.50000000E-01  8.50000000E-01  8.50000000E-01  8.00000000E-01  8.50000000E-01
  8.50000000E-01  8.50000000E-01  8.00000000E-01  8.50000000E-01  8.50000000E-01
  8.50000000E-01  8.00000000E-01  8.50000000E-01  8.50000000E-01  8.50000000E-01
  8.00000000E-01  8.50000000E-01  8.50000000E-01  8.50000000E-01  8.00000000E-01
  8.50000000E-01  8.50000000E-01  8.50000000E-01  8.00000000E-01  8.50000000E-01
  8.50000000E-01  8.50000000E-01  8.00000000E-01  8.50000000E-01  8.50000000E-01
  8.50000000E-01  8.00000000E-01  8.50000000E-01  8.50000000E-01  8.50000000E-01
  8.00000000E-01  8.50000000E-01  8.50000000E-01  8.50000000E-01  8.00000000E-01
  8.50000000E-01  8.50000000E-01  8.50000000E-01  8.00000000E-01  8.50000000E-01
  8.50000000E-01  8.50000000E-01  8.00000000E-01  8.50000000E-01  8.50000000E-01
  8.50000000E-01  8.00000000E-01  8.50000000E-01  8.50000000E-01  8.50000000E-01
  8.00000000E-01  8.50000000E-01  8.50000000E-01  8.50000000E-01  8.00000000E-01
  8.50000000E-01  8.50000000E-01  8.50000000E-01  8.00000000E-01  8.50000000E-01
  8.50000000E-01  8.50000000E-01  8.00000000E-01  8.50000000E-01  8.50000000E-01
  8.50000000E-01  8.00000000E-01  8.50000000E-01  8.50000000E-01  8.50000000E-01
  8.00000000E-01  8.50000000E-01  8.50000000E-01  8.50000000E-01  8.00000000E-01
  8.50000000E-01  8.50000000E-01  8.50000000E-01  8.00000000E-01  8.50000000E-01
  8.50000000E-01  8.50000000E-01  8.00000000E-01  8.50000000E-01  8.50000000E-01
  8.50000000E-01  8.00000000E-01  8.50000000E-01  8.50000000E-01  8.50000000E-01
  8.00000000E-01  8.50000000E-01  8.50000000E-01  8.50000000E-01  8.00000000E-01
  8.50000000E-01  8.50000000E-01  8.50000000E-01  8.00000000E-01  8.50000000E-01
  8.50000000E-01  8.50000000E-01  8.00000000E-01  8.50000000E-01  8.50000000E-01
  8.50000000E-01  8.00000000E-01  8.50000000E-01  8.50000000E-01  8.50000000E-01
  8.00000000E-01  8.50000000E-01  8.50000000E-01  8.50000000E-01  8.00000000E-01
  8.50000000E-01  8.50000000E-01  8.50000000E-01  8.00000000E-01  8.50000000E-01
  8.50000000E-01  8.50000000E-01  8.00000000E-01  8.50000000E-01  8.50000000E-01
  8.50000000E-01  8.00000000E-01  8.50000000E-01  8.50000000E-01  8.50000000E-01
  8.00000000E-01  8.50000000E-01  8.50000000E-01  8.50000000E-01  8.00000000E-01
  8.50000000E-01  8.50000000E-01  8.50000000E-01  8.00000000E-01  8.50000000E-01
  8.50000000E-01  8.50000000E-01  8.00000000E-01  8.50000000E-01  8.50000000E-01
  8.50000000E-01  8.00000000E-01  8.50000000E-01  8.50000000E-01  8.50000000E-01
  8.00000000E-01  8.50000000E-01  8.50000000E-01  8.50000000E-01  8.00000000E-01
  8.50000000E-01  8.50000000E-01  8.50000000E-01  8.00000000E-01  8.50000000E-01
  8.50000000E-01  8.50000000E-01  8.00000000E-01  8.50000000E-01  8.50000000E-01
  8.50000000E-01  8.00000000E-01  8.50000000E-01  8.50000000E-01  8.50000000E-01
  8.00000000E-01  8.50000000E-01  8.50000000E-01  8.50000000E-01  8.00000000E-01
  8.50000000E-01  8.50000000E-01  8.50000000E-01  8.00000000E-01  8.50000000E-01
  8.50000000E-01  8.50000000E-01  8.00000000E-01  8.50000000E-01  8.50000000E-01
  8.50000000E-01  8.00000000E-01  8.50000000E-01  8.50000000E-01  8.50000000E-01
  8.00000000E-01  8.50000000E-01  8.50000000E-01  8.50000000E-01  8.00000000E-01
  8.50000000E-01  8.50000000E-01  8.50000000E-01  8.00000000E-01  8.50000000E-01
  8.50000000E-01  8.50000000E-01  8.00000000E-01  8.50000000E-01  8.50000000E-01
  8.50000000E-01  8.00000000E-01  8.50000000E-01  8.50000000E-01  8.50000000E-01
  8.00000000E-01  8.50000000E-01  8.50000000E-01  8.50000000E-01  8.00000000E-01
  8.50000000E-01  8.50000000E-01  8.50000000E-01  8.00000000E-01  8.50000000E-01
  8.50000000E-01  8.50000000E-01  8.00000000E-01  8.50000000E-01  8.50000000E-01
  8.50000000E-01  8.00000000E-01  8.50000000E-01  8.50000000E-01  8.50000000E-01
  8.00000000E-01  8.50000000E-01  8.50000000E-01  8.50000000E-01  8.00000000E-01
  8.50000000E-01  8.50000000E-01  8.50000000E-01  8.00000000E-01  8.50000000E-01
  8.50000000E-01  8.50000000E-01  8.00000000E-01  8.50000000E-01  8.50000000E-01
  8.50000000E-01  8.00000000E-01  8.50000000E-01  8.50000000E-01  8.50000000E-01
  8.00000000E-01  8.50000000E-01  8.50000000E-01  8.50000000E-01  8.00000000E-01
  8.50000000E-01  8.50000000E-01  8.50000000E-01  8.00000000E-01  8.50000000E-01
  8.50000000E-01  8.50000000E-01  8.00000000E-01  8.50000000E-01  8.50000000E-01
  8.50000000E-01  8.00000000E-01  8.50000000E-01  8.50000000E-01  8.50000000E-01
  8.00000000E-01  8.50000000E-01  8.50000000E-01  8.50000000E-01  8.00000000E-01
  8.50000000E-01  8.50000000E-01  8.50000000E-01  8.00000000E-01  8.50000000E-01
  8.50000000E-01  8.50000000E-01  8.00000000E-01  8.50000000E-01  8.50000000E-01
  8.50000000E-01  8.00000000E-01  8.50000000E-01  8.50000000E-01  8.50000000E-01
  8.00000000E-01  8.50000000E-01  8.50000000E-01  8.50000000E-01  8.00000000E-01
  8.50000000E-01  8.50000000E-01  8.50000000E-01  8.00000000E-01  8.50000000E-01
  8.50000000E-01  8.50000000E-01  8.00000000E-01  8.50000000E-01  8.50000000E-01
  8.50000000E-01  8.00000000E-01  8.50000000E-01  8.50000000E-01  8.50000000E-01
  8.00000000E-01  8.50000000E-01  8.50000000E-01  8.50000000E-01  8.00000000E-01
  8.50000000E-01  8.50000000E-01  8.50000000E-01  8.00000000E-01  8.50000000E-01
  8.50000000E-01  8.50000000E-01  8.00000000E-01  8.50000000E-01  8.50000000E-01
  8.50000000E-01  8.00000000E-01  8.50000000E-01  8.50000000E-01  8.50000000E-01
  8.00000000E-01  8.50000000E-01  8.50000000E-01  8.50000000E-01  8.00000000E-01
  8.50000000E-01  8.50000000E-01  8.50000000E-01  8.00000000E-01  8.50000000E-01
  8.50000000E-01  8.50000000E-01  8.00000000E-01  8.50000000E-01  8.50000000E-01
  8.50000000E-01  8.00000000E-01  8.50000000E-01  8.50000000E-01  8.50000000E-01
  8.00000000E-01  8.50000000E-01  8.50000000E-01  8.50000000E-01  8.00000000E-01
  8.50000000E-01  8.50000000E-01  8.50000000E-01  8.00000000E-01  8.50000000E-01
  8.50000000E-01  8.50000000E-01  8.00000000E-01  8.50000000E-01  8.50000000E-01
  8.50000000E-01  8.00000000E-01  8.50000000E-01  8.50000000E-01  8.50000000E-01
  8.00000000E-01  8.50000000E-01  8.50000000E-01  8.50000000E-01  8.00000000E-01
  8.50000000E-01  8.50000000E-01  8.50000000E-01  8.00000000E-01  8.50000000E-01
  8.50000000E-01  8.50000000E-01  8.00000000E-01  8.50000000E-01  8.50000000E-01
  8.50000000E-01  8.00000000E-01  8.50000000E-01  8.50000000E-01  8.50000000E-01
  8.00000000E-01  8.50000000E-01  8.50000000E-01  8.50000000E-01  8.00000000E-01
  8.50000000E-01  8.50000000E-01  8.50000000E-01  8.00000000E-01  8.50000000E-01
  8.50000000E-01  8.50000000E-01  8.00000000E-01  8.50000000E-01  8.50000000E-01
  8.50000000E-01  8.00000000E-01  8.50000000E-01  8.50000000E-01  8.50000000E-01
  8.00000000E-01  8.50000000E-01  8.50000000E-01  8.50000000E-01  8.00000000E-01
  8.50000000E-01  8.50000000E-01  8.50000000E-01  8.00000000E-01  8.50000000E-01
  8.50000000E-01  8.50000000E-01  8.00000000E-01  8.50000000E-01  8.50000000E-01
  8.50000000E-01  8.00000000E-01  8.50000000E-01  8.50000000E-01  8.50000000E-01
  8.00000000E-01  8.50000000E-01  8.50000000E-01  8.50000000E-01  8.00000000E-01
  8.50000000E-01  8.50000000E-01  8.50000000E-01  8.00000000E-01  8.50000000E-01
  8.50000000E-01  8.50000000E-01  8.00000000E-01  8.50000000E-01  8.50000000E-01
  8.50000000E-01  8.00000000E-01  8.50000000E-01  8.50000000E-01  8.50000000E-01
  8.00000000E-01  8.50000000E-01  8.50000000E-01  8.50000000E-01  8.00000000E-01
  8.50000000E-01  8.50000000E-01  8.50000000E-01  8.00000000E-01  8.50000000E-01
  8.50000000E-01  8.50000000E-01  8.00000000E-01  8.50000000E-01  8.50000000E-01
  8.50000000E-01  8.00000000E-01  8.50000000E-01  8.50000000E-01  8.50000000E-01
  8.00000000E-01  8.50000000E-01  8.50000000E-01  8.50000000E-01  8.00000000E-01
  8.50000000E-01  8.50000000E-01  8.50000000E-01  8.00000000E-01  8.50000000E-01
  8.50000000E-01  8.50000000E-01  8.00000000E-01  8.50000000E-01  8.50000000E-01
  8.50000000E-01  8.00000000E-01  8.50000000E-01  8.50000000E-01  8.50000000E-01
  8.00000000E-01  8.50000000E-01  8.50000000E-01  8.50000000E-01  8.00000000E-01
  8.50000000E-01  8.50000000E-01  8.50000000E-01  8.00000000E-01  8.50000000E-01
  8.50000000E-01  8.50000000E-01  8.00000000E-01  8.50000000E-01  8.50000000E-01
  8.50000000E-01  8.00000000E-01  8.50000000E-01  8.50000000E-01  8.50000000E-01
  8.00000000E-01  8.50000000E-01  8.50000000E-01  8.50000000E-01  8.00000000E-01
  8.50000000E-01  8.50000000E-01  8.50000000E-01  8.00000000E-01  8.50000000E-01
  8.50000000E-01  8.50000000E-01  8.00000000E-01  8.50000000E-01  8.50000000E-01
  8.50000000E-01  8.00000000E-01  8.50000000E-01  8.50000000E-01  8.50000000E-01
  8.00000000E-01  8.50000000E-01  8.50000000E-01  8.50000000E-01  8.00000000E-01
  8.50000000E-01  8.50000000E-01  8.50000000E-01  8.00000000E-01  8.50000000E-01
  8.50000000E-01  8.50000000E-01  8.00000000E-01  8.50000000E-01  8.50000000E-01
  8.50000000E-01  8.00000000E-01  8.50000000E-01  8.50000000E-01  8.50000000E-01
  8.00000000E-01  8.50000000E-01  8.50000000E-01  8.50000000E-01  8.00000000E-01
  8.50000000E-01  8.50000000E-01  8.50000000E-01  8.00000000E-01  8.50000000E-01
  8.50000000E-01  8.50000000E-01  8.00000000E-01  8.50000000E-01  8.50000000E-01
  8.50000000E-01  8.00000000E-01  8.50000000E-01  8.50000000E-01  8.50000000E-01
  8.00000000E-01  8.50000000E-01  8.50000000E-01  8.50000000E-01  8.00000000E-01
  8.50000000E-01  8.50000000E-01  8.50000000E-01  8.00000000E-01  8.50000000E-01
  8.50000000E-01  8.50000000E-01  8.00000000E-01  8.50000000E-01  8.50000000E-01
  8.50000000E-01  8.00000000E-01  8.50000000E-01  8.50000000E-01  8.50000000E-01
  8.00000000E-01  8.50000000E-01  8.50000000E-01  8.50000000E-01  8.00000000E-01
  8.50000000E-01  8.50000000E-01  8.50000000E-01  8.00000000E-01  8.50000000E-01
  8.50000000E-01  8.50000000E-01  8.00000000E-01  8.50000000E-01  8.50000000E-01
  8.50000000E-01  8.00000000E-01  8.50000000E-01  8.50000000E-01  8.50000000E-01
  8.00000000E-01  8.50000000E-01  8.50000000E-01  8.50000000E-01  8.00000000E-01
  8.50000000E-01  8.50000000E-01  8.50000000E-01  8.00000000E-01  8.50000000E-01
  8.50000000E-01  8.50000000E-01  8.00000000E-01  8.50000000E-01  8.50000000E-01
  8.50000000E-01  8.00000000E-01  8.50000000E-01  8.50000000E-01  8.50000000E-01
  8.00000000E-01  8.50000000E-01  8.50000000E-01  8.50000000E-01  8.00000000E-01
  8.50000000E-01  8.50000000E-01  8.50000000E-01  8.00000000E-01  8.50000000E-01
  8.50000000E-01  8.50000000E-01  8.00000000E-01  8.50000000E-01  8.50000000E-01
  8.50000000E-01  8.00000000E-01  8.50000000E-01  8.50000000E-01  8.50000000E-01
  8.00000000E-01  8.50000000E-01  8.50000000E-01  8.50000000E-01  8.00000000E-01
  8.50000000E-01  8.50000000E-01  8.50000000E-01  8.00000000E-01  8.50000000E-01
  8.50000000E-01  8.50000000E-01  8.00000000E-01  8.50000000E-01  8.50000000E-01
  8.50000000E-01  8.00000000E-01  8.50000000E-01  8.50000000E-01  8.50000000E-01
  8.00000000E-01  8.50000000E-01  8.50000000E-01  8.50000000E-01  8.00000000E-01
  8.50000000E-01  8.50000000E-01  8.50000000E-01  8.00000000E-01  8.50000000E-01
  8.50000000E-01  8.50000000E-01  8.00000000E-01  8.50000000E-01  8.50000000E-01
  8.50000000E-01  8.00000000E-01  8.50000000E-01  8.50000000E-01  8.50000000E-01
  8.00000000E-01  8.50000000E-01  8.50000000E-01  8.50000000E-01  8.00000000E-01
  8.50000000E-01  8.50000000E-01  8.50000000E-01  8.00000000E-01  8.50000000E-01
  8.50000000E-01  8.50000000E-01  8.00000000E-01  8.50000000E-01  8.50000000E-01
  8.50000000E-01  8.00000000E-01  8.50000000E-01  8.50000000E-01  8.50000000E-01
  8.00000000E-01  8.50000000E-01  8.50000000E-01  8.50000000E-01  8.00000000E-01
  8.50000000E-01  8.50000000E-01  8.50000000E-01  8.00000000E-01  8.50000000E-01
  8.50000000E-01  8.50000000E-01  8.00000000E-01  8.50000000E-01  8.50000000E-01
  8.50000000E-01  8.00000000E-01  8.50000000E-01  8.50000000E-01  8.50000000E-01
  8.00000000E-01  8.50000000E-01  8.50000000E-01  8.50000000E-01  8.00000000E-01
  8.50000000E-01  8.50000000E-01  8.50000000E-01  8.00000000E-01  8.50000000E-01
  8.50000000E-01  8.50000000E-01  8.00000000E-01  8.50000000E-01  8.50000000E-01
  8.50000000E-01  8.00000000E-01  8.50000000E-01  8.50000000E-01  8.50000000E-01
  8.00000000E-01  8.50000000E-01  8.50000000E-01  8.50000000E-01  8.00000000E-01
  8.50000000E-01  8.50000000E-01  8.50000000E-01  8.00000000E-01  8.50000000E-01
  8.50000000E-01  8.50000000E-01  8.00000000E-01  8.50000000E-01  8.50000000E-01
  8.50000000E-01  8.00000000E-01  8.50000000E-01  8.50000000E-01  8.50000000E-01
  8.00000000E-01  8.50000000E-01  8.50000000E-01  8.50000000E-01  8.00000000E-01
  8.50000000E-01  8.50000000E-01  8.50000000E-01  8.00000000E-01  8.50000000E-01
  8.50000000E-01  8.50000000E-01  8.00000000E-01  8.50000000E-01  8.50000000E-01
  8.50000000E-01  8.00000000E-01  8.50000000E-01  8.50000000E-01  8.50000000E-01
  8.00000000E-01  8.50000000E-01  8.50000000E-01  8.50000000E-01  8.00000000E-01
  8.50000000E-01  8.50000000E-01  8.50000000E-01  8.00000000E-01  8.50000000E-01
  8.50000000E-01  8.50000000E-01  8.00000000E-01  8.50000000E-01  8.50000000E-01
  8.50000000E-01  8.00000000E-01  8.50000000E-01  8.50000000E-01  8.50000000E-01
  8.00000000E-01  8.50000000E-01  8.50000000E-01  8.50000000E-01  8.00000000E-01
  8.50000000E-01  8.50000000E-01  8.50000000E-01  8.00000000E-01  8.50000000E-01
  8.50000000E-01  8.50000000E-01  8.00000000E-01  8.50000000E-01  8.50000000E-01
  8.50000000E-01  8.00000000E-01  8.50000000E-01  8.50000000E-01  8.50000000E-01
  8.00000000E-01  8.50000000E-01  8.50000000E-01  8.50000000E-01  8.00000000E-01
  8.50000000E-01  8.50000000E-01  8.50000000E-01  8.00000000E-01  8.50000000E-01
  8.50000000E-01  8.50000000E-01  8.00000000E-01  8.50000000E-01  8.50000000E-01
  8.50000000E-01  8.00000000E-01  8.50000000E-01  8.50000000E-01  8.50000000E-01
  8.00000000E-01  8.50000000E-01  8.50000000E-01  8.50000000E-01  8.00000000E-01
  8.50000000E-01  8.50000000E-01  8.50000000E-01  8.00000000E-01  8.50000000E-01
  8.50000000E-01  8.50000000E-01  8.00000000E-01  8.50000000E-01  8.50000000E-01
  8.50000000E-01  8.00000000E-01  8.50000000E-01  8.50000000E-01  8.50000000E-01
  8.00000000E-01  8.50000000E-01  8.50000000E-01  8.50000000E-01  8.00000000E-01
  8.50000000E-01  8.50000000E-01  8.50000000E-01  8.00000000E-01  8.50000000E-01
  8.50000000E-01  8.50000000E-01  8.00000000E-01  8.50000000E-01  8.50000000E-01
  8.50000000E-01  8.00000000E-01  8.50000000E-01  8.50000000E-01  8.50000000E-01
  8.00000000E-01  8.50000000E-01  8.50000000E-01  8.50000000E-01  8.00000000E-01
  8.50000000E-01  8.50000000E-01  8.50000000E-01  8.00000000E-01  8.50000000E-01
  8.50000000E-01  8.50000000E-01  8.00000000E-01  8.50000000E-01  8.50000000E-01
  8.50000000E-01  8.00000000E-01  8.50000000E-01  8.50000000E-01  8.50000000E-01
  8.00000000E-01  8.50000000E-01  8.50000000E-01  8.50000000E-01  8.00000000E-01
  8.50000000E-01  8.50000000E-01  8.50000000E-01  8.00000000E-01  8.50000000E-01
  8.50000000E-01  8.50000000E-01  8.00000000E-01  8.50000000E-01  8.50000000E-01
  8.50000000E-01  8.00000000E-01  8.50000000E-01  8.50000000E-01  8.50000000E-01
  8.00000000E-01  8.50000000E-01  8.50000000E-01  8.50000000E-01  8.00000000E-01
  8.50000000E-01  8.50000000E-01  8.50000000E-01  8.00000000E-01  8.50000000E-01
  8.50000000E-01  8.50000000E-01  8.00000000E-01  8.50000000E-01  8.50000000E-01
  8.50000000E-01  8.00000000E-01  8.50000000E-01  8.50000000E-01  8.50000000E-01
  8.00000000E-01  8.50000000E-01  8.50000000E-01  8.50000000E-01  8.00000000E-01
  8.50000000E-01  8.50000000E-01  8.50000000E-01  8.00000000E-01  8.50000000E-01
  8.50000000E-01  8.50000000E-01  8.00000000E-01  8.50000000E-01  8.50000000E-01
  8.50000000E-01  8.00000000E-01  8.50000000E-01  8.50000000E-01  8.50000000E-01
  8.00000000E-01  8.50000000E-01  8.50000000E-01  8.50000000E-01  8.00000000E-01
  8.50000000E-01  8.50000000E-01  8.50000000E-01  8.00000000E-01  8.50000000E-01
  8.50000000E-01  8.50000000E-01  8.00000000E-01  8.50000000E-01  8.50000000E-01
  8.50000000E-01  8.00000000E-01  8.50000000E-01  8.50000000E-01  8.50000000E-01
  8.00000000E-01  8.50000000E-01  8.50000000E-01  8.50000000E-01  8.00000000E-01
  8.50000000E-01  8.50000000E-01  8.50000000E-01  8.00000000E-01  8.50000000E-01
  8.50000000E-01  8.50000000E-01  8.00000000E-01  8.50000000E-01  8.50000000E-01
  8.50000000E-01  8.00000000E-01  8.50000000E-01  8.50000000E-01  8.50000000E-01
  8.00000000E-01  8.50000000E-01  8.50000000E-01  8.50000000E-01  8.00000000E-01
  8.50000000E-01  8.50000000E-01  8.50000000E-01  8.00000000E-01  8.50000000E-01
  8.50000000E-01  8.50000000E-01  8.00000000E-01  8.50000000E-01  8.50000000E-01
  8.50000000E-01  8.00000000E-01  8.50000000E-01  8.50000000E-01  8.50000000E-01
  8.00000000E-01  8.50000000E-01  8.50000000E-01  8.50000000E-01  8.00000000E-01
  8.50000000E-01  8.50000000E-01  8.50000000E-01  8.00000000E-01  8.50000000E-01
  8.50000000E-01  8.50000000E-01  8.00000000E-01  8.50000000E-01  8.50000000E-01
  8.50000000E-01  8.00000000E-01  8.50000000E-01  8.50000000E-01  8.50000000E-01
  8.00000000E-01  8.50000000E-01  8.50000000E-01  8.50000000E-01  8.00000000E-01
  8.50000000E-01  8.50000000E-01  8.50000000E-01  8.00000000E-01  8.50000000E-01
  8.50000000E-01  8.50000000E-01  8.00000000E-01  8.50000000E-01  8.50000000E-01
  8.50000000E-01  8.00000000E-01  8.50000000E-01  8.50000000E-01  8.50000000E-01
  8.00000000E-01  8.50000000E-01  8.50000000E-01  8.50000000E-01  8.00000000E-01
  8.50000000E-01  8.50000000E-01  8.50000000E-01  8.00000000E-01  8.50000000E-01
  8.50000000E-01  8.50000000E-01  8.00000000E-01  8.50000000E-01  8.50000000E-01
  8.50000000E-01  8.00000000E-01  8.50000000E-01  8.50000000E-01  8.50000000E-01
  8.00000000E-01  8.50000000E-01  8.50000000E-01  8.50000000E-01  8.00000000E-01
  8.50000000E-01  8.50000000E-01  8.50000000E-01  8.00000000E-01  8.50000000E-01
  8.50000000E-01  8.50000000E-01  8.00000000E-01  8.50000000E-01  8.50000000E-01
  8.50000000E-01  8.00000000E-01  8.50000000E-01  8.50000000E-01  8.50000000E-01
  8.00000000E-01  8.50000000E-01  8.50000000E-01  8.50000000E-01  8.00000000E-01
  8.50000000E-01  8.50000000E-01  8.50000000E-01  8.00000000E-01  8.50000000E-01
  8.50000000E-01  8.50000000E-01  8.00000000E-01  8.50000000E-01  8.50000000E-01
  8.50000000E-01  8.00000000E-01  8.50000000E-01  8.50000000E-01  8.50000000E-01
  8.00000000E-01  8.50000000E-01  8.50000000E-01  8.50000000E-01  8.00000000E-01
  8.50000000E-01  8.50000000E-01  8.50000000E-01  8.00000000E-01  8.50000000E-01
  8.50000000E-01  8.50000000E-01  8.00000000E-01  8.50000000E-01  8.50000000E-01
  8.50000000E-01  8.00000000E-01  8.50000000E-01  8.50000000E-01  8.50000000E-01
  8.00000000E-01  8.50000000E-01  8.50000000E-01  8.50000000E-01  8.00000000E-01
  8.50000000E-01  8.50000000E-01  8.50000000E-01  8.00000000E-01  8.50000000E-01
  8.50000000E-01  8.50000000E-01  8.00000000E-01  8.50000000E-01  8.50000000E-01
  8.50000000E-01  8.00000000E-01  8.50000000E-01  8.50000000E-01  8.50000000E-01
  8.00000000E-01  8.50000000E-01  8.50000000E-01  8.50000000E-01  8.00000000E-01
  8.50000000E-01  8.50000000E-01  8.50000000E-01  8.00000000E-01  8.50000000E-01
  8.50000000E-01  8.50000000E-01  8.00000000E-01  8.50000000E-01  8.50000000E-01
  8.50000000E-01  8.00000000E-01  8.50000000E-01  8.50000000E-01  8.50000000E-01
  8.00000000E-01  8.50000000E-01  8.50000000E-01  8.50000000E-01  8.00000000E-01
  8.50000000E-01  8.50000000E-01  8.50000000E-01  8.00000000E-01  8.50000000E-01
  8.50000000E-01  8.50000000E-01  8.00000000E-01  8.50000000E-01  8.50000000E-01
  8.50000000E-01  8.00000000E-01  8.50000000E-01  8.50000000E-01  8.50000000E-01
  8.00000000E-01  8.50000000E-01  8.50000000E-01  8.50000000E-01  8.00000000E-01
  8.50000000E-01  8.50000000E-01  8.50000000E-01  8.00000000E-01  8.50000000E-01
  8.50000000E-01  8.50000000E-01  8.00000000E-01  8.50000000E-01  8.50000000E-01
  8.50000000E-01  8.00000000E-01  8.50000000E-01  8.50000000E-01  8.50000000E-01
  8.00000000E-01  8.50000000E-01  8.50000000E-01  8.50000000E-01  8.00000000E-01
  8.50000000E-01  8.50000000E-01  8.50000000E-01  8.00000000E-01  8.50000000E-01
  8.50000000E-01  8.50000000E-01  8.00000000E-01  8.50000000E-01  8.50000000E-01
  8.50000000E-01  8.00000000E-01  8.50000000E-01  8.50000000E-01  8.50000000E-01
  8.00000000E-01  8.50000000E-01  8.50000000E-01  8.50000000E-01  8.00000000E-01
  8.50000000E-01  8.50000000E-01  8.50000000E-01  8.00000000E-01  8.50000000E-01
  8.50000000E-01  8.50000000E-01  8.00000000E-01  8.50000000E-01  8.50000000E-01
  8.50000000E-01  8.00000000E-01  8.50000000E-01  8.50000000E-01  8.50000000E-01
  8.00000000E-01  8.50000000E-01  8.50000000E-01  8.50000000E-01  8.00000000E-01
  8.50000000E-01  8.50000000E-01  8.50000000E-01  8.00000000E-01  8.50000000E-01
  8.50000000E-01  8.50000000E-01  8.00000000E-01  8.50000000E-01  8.50000000E-01
  8.50000000E-01  8.00000000E-01  8.50000000E-01  8.50000000E-01  8.50000000E-01
  8.00000000E-01  8.50000000E-01  8.50000000E-01  8.50000000E-01  8.00000000E-01
  8.50000000E-01  8.50000000E-01  8.50000000E-01  8.00000000E-01  8.50000000E-01
  8.50000000E-01  8.50000000E-01  8.00000000E-01  8.50000000E-01  8.50000000E-01
  8.50000000E-01  8.00000000E-01  8.50000000E-01  8.50000000E-01  8.50000000E-01
  8.00000000E-01  8.50000000E-01  8.50000000E-01  8.50000000E-01  8.00000000E-01
  8.50000000E-01  8.50000000E-01  8.50000000E-01  8.00000000E-01  8.50000000E-01
  8.50000000E-01  8.50000000E-01  8.00000000E-01  8.50000000E-01  8.50000000E-01
  8.50000000E-01  8.00000000E-01  8.50000000E-01  8.50000000E-01  8.50000000E-01
  8.00000000E-01  8.50000000E-01  8.50000000E-01  8.50000000E-01  8.00000000E-01
  8.50000000E-01  8.50000000E-01  8.50000000E-01  8.00000000E-01  8.50000000E-01
  8.50000000E-01  8.50000000E-01  8.00000000E-01  8.50000000E-01  8.50000000E-01
  8.50000000E-01  8.00000000E-01  8.50000000E-01  8.50000000E-01  8.50000000E-01
  8.00000000E-01  8.50000000E-01  8.50000000E-01  8.50000000E-01  8.00000000E-01
  8.50000000E-01  8.50000000E-01  8.50000000E-01  8.00000000E-01  8.50000000E-01
  8.50000000E-01  8.50000000E-01  8.00000000E-01  8.50000000E-01  8.50000000E-01
  8.50000000E-01  8.00000000E-01  8.50000000E-01  8.50000000E-01  8.50000000E-01
  8.00000000E-01  8.50000000E-01  8.50000000E-01  8.50000000E-01  8.00000000E-01
  8.50000000E-01  8.50000000E-01  8.50000000E-01  8.00000000E-01  8.50000000E-01
  8.50000000E-01  8.50000000E-01  8.00000000E-01  8.50000000E-01  8.50000000E-01
  8.50000000E-01  8.00000000E-01  8.50000000E-01  8.50000000E-01  8.50000000E-01
  8.00000000E-01  8.50000000E-01  8.50000000E-01  8.50000000E-01  8.00000000E-01
  8.50000000E-01  8.50000000E-01  8.50000000E-01  8.00000000E-01  8.50000000E-01
  8.50000000E-01  8.50000000E-01  8.00000000E-01  8.50000000E-01  8.50000000E-01
  8.50000000E-01  8.00000000E-01  8.50000000E-01  8.50000000E-01  8.50000000E-01
  8.00000000E-01  8.50000000E-01  8.50000000E-01  8.50000000E-01  8.00000000E-01
  8.50000000E-01  8.50000000E-01  8.50000000E-01  8.00000000E-01  8.50000000E-01
  8.50000000E-01  8.50000000E-01  8.00000000E-01  8.50000000E-01  8.50000000E-01
  8.50000000E-01  8.00000000E-01  8.50000000E-01  8.50000000E-01  8.50000000E-01
  8.00000000E-01  8.50000000E-01  8.50000000E-01  8.50000000E-01  8.00000000E-01
  8.50000000E-01  8.50000000E-01  8.50000000E-01  8.00000000E-01  8.50000000E-01
  8.50000000E-01  8.50000000E-01  8.00000000E-01  8.50000000E-01  8.50000000E-01
  8.50000000E-01  8.00000000E-01  8.50000000E-01  8.50000000E-01  8.50000000E-01
  8.00000000E-01  8.50000000E-01  8.50000000E-01  8.50000000E-01  8.00000000E-01
  8.50000000E-01  8.50000000E-01  8.50000000E-01  8.00000000E-01  8.50000000E-01
  8.50000000E-01  8.50000000E-01  8.00000000E-01  8.50000000E-01  8.50000000E-01
  8.50000000E-01  8.00000000E-01  8.50000000E-01  8.50000000E-01  8.50000000E-01
  8.00000000E-01  8.50000000E-01  8.50000000E-01  8.50000000E-01  8.00000000E-01
  8.50000000E-01  8.50000000E-01  8.50000000E-01  8.00000000E-01  8.50000000E-01
  8.50000000E-01  8.50000000E-01  8.00000000E-01  8.50000000E-01  8.50000000E-01
  8.50000000E-01  8.00000000E-01  8.50000000E-01  8.50000000E-01  8.50000000E-01
  8.00000000E-01  8.50000000E-01  8.50000000E-01  8.50000000E-01  8.00000000E-01
  8.50000000E-01  8.50000000E-01  8.50000000E-01  8.00000000E-01  8.50000000E-01
  8.50000000E-01  8.50000000E-01  8.00000000E-01  8.50000000E-01  8.50000000E-01
  8.50000000E-01  8.00000000E-01  8.50000000E-01  8.50000000E-01  8.50000000E-01
  8.00000000E-01  8.50000000E-01  8.50000000E-01  8.50000000E-01  8.00000000E-01
  8.50000000E-01  8.50000000E-01  8.50000000E-01  8.00000000E-01  8.50000000E-01
  8.50000000E-01  8.50000000E-01  8.00000000E-01  8.50000000E-01  8.50000000E-01
  8.50000000E-01  8.00000000E-01  8.50000000E-01  8.50000000E-01  8.50000000E-01
  8.00000000E-01  8.50000000E-01  8.50000000E-01  8.50000000E-01  8.00000000E-01
  8.50000000E-01  8.50000000E-01  8.50000000E-01  8.00000000E-01  8.50000000E-01
  8.50000000E-01  8.50000000E-01  8.00000000E-01  8.50000000E-01  8.50000000E-01
  8.50000000E-01  8.00000000E-01  8.50000000E-01  8.50000000E-01  8.50000000E-01
  8.00000000E-01  8.50000000E-01  8.50000000E-01  8.50000000E-01  8.00000000E-01
  8.50000000E-01  8.50000000E-01  8.50000000E-01  8.00000000E-01  8.50000000E-01
  8.50000000E-01  8.50000000E-01  8.00000000E-01  8.50000000E-01  8.50000000E-01
  8.50000000E-01  8.00000000E-01  8.50000000E-01  8.50000000E-01  8.50000000E-01
  8.00000000E-01  8.50000000E-01  8.50000000E-01  8.50000000E-01  8.00000000E-01
  8.50000000E-01  8.50000000E-01  8.50000000E-01  8.00000000E-01  8.50000000E-01
  8.50000000E-01  8.50000000E-01  8.00000000E-01  8.50000000E-01  8.50000000E-01
  8.50000000E-01  8.00000000E-01  8.50000000E-01  8.50000000E-01  8.50000000E-01
  8.00000000E-01  8.50000000E-01  8.50000000E-01  8.50000000E-01  8.00000000E-01
  8.50000000E-01  8.50000000E-01  8.50000000E-01  8.00000000E-01  8.50000000E-01
  8.50000000E-01  8.50000000E-01  8.00000000E-01  8.50000000E-01  8.50000000E-01
  8.50000000E-01  8.00000000E-01  8.50000000E-01  8.50000000E-01  8.50000000E-01
  8.00000000E-01  8.50000000E-01  8.50000000E-01  8.50000000E-01  8.00000000E-01
  8.50000000E-01  8.50000000E-01  8.50000000E-01  8.00000000E-01  8.50000000E-01
  8.50000000E-01  8.50000000E-01  8.00000000E-01  8.50000000E-01  8.50000000E-01
  8.50000000E-01  8.00000000E-01  8.50000000E-01  8.50000000E-01  8.50000000E-01
  8.00000000E-01  8.50000000E-01  8.50000000E-01  8.50000000E-01  8.00000000E-01
  8.50000000E-01  8.50000000E-01  8.50000000E-01  8.00000000E-01  8.50000000E-01
  8.50000000E-01  8.50000000E-01  8.00000000E-01  8.50000000E-01  8.50000000E-01
  8.50000000E-01  8.00000000E-01  8.50000000E-01  8.50000000E-01  8.50000000E-01
  8.00000000E-01  8.50000000E-01  8.50000000E-01  8.50000000E-01  8.00000000E-01
  8.50000000E-01  8.50000000E-01  8.50000000E-01  8.00000000E-01  8.50000000E-01
  8.50000000E-01  8.50000000E-01  8.00000000E-01  8.50000000E-01  8.50000000E-01
  8.50000000E-01  8.00000000E-01  8.50000000E-01  8.50000000E-01  8.50000000E-01
  8.00000000E-01  8.50000000E-01  8.50000000E-01  8.50000000E-01  8.00000000E-01
  8.50000000E-01  8.50000000E-01  8.50000000E-01  8.00000000E-01  8.50000000E-01
  8.50000000E-01  8.50000000E-01  8.00000000E-01  8.50000000E-01  8.50000000E-01
  8.50000000E-01  8.00000000E-01  8.50000000E-01  8.50000000E-01  8.50000000E-01
  8.00000000E-01  8.50000000E-01  8.50000000E-01  8.50000000E-01  8.00000000E-01
  8.50000000E-01  8.50000000E-01  8.50000000E-01  8.00000000E-01  8.50000000E-01
  8.50000000E-01  8.50000000E-01  8.00000000E-01  8.50000000E-01  8.50000000E-01
  8.50000000E-01  8.00000000E-01  8.50000000E-01  8.50000000E-01  8.50000000E-01
  8.00000000E-01  8.50000000E-01  8.50000000E-01  8.50000000E-01  8.00000000E-01
  8.50000000E-01  8.50000000E-01  8.50000000E-01  8.00000000E-01  8.50000000E-01
  8.50000000E-01  8.50000000E-01  8.00000000E-01  8.50000000E-01  8.50000000E-01
  8.50000000E-01  8.00000000E-01  8.50000000E-01  8.50000000E-01  8.50000000E-01
  8.00000000E-01  8.50000000E-01  8.50000000E-01  8.50000000E-01  8.00000000E-01
  8.50000000E-01  8.50000000E-01  8.50000000E-01  8.00000000E-01  8.50000000E-01
  8.50000000E-01  8.50000000E-01  8.00000000E-01  8.50000000E-01  8.50000000E-01
  8.50000000E-01  8.00000000E-01  8.50000000E-01  8.50000000E-01  8.50000000E-01
  8.00000000E-01  8.50000000E-01  8.50000000E-01  8.50000000E-01  8.00000000E-01
  8.50000000E-01  8.50000000E-01  8.50000000E-01  8.00000000E-01  8.50000000E-01
  8.50000000E-01  8.50000000E-01  8.00000000E-01  8.50000000E-01  8.50000000E-01
  8.50000000E-01  8.00000000E-01  8.50000000E-01  8.50000000E-01  8.50000000E-01
  8.00000000E-01  8.50000000E-01  8.50000000E-01  8.50000000E-01  8.00000000E-01
  8.50000000E-01  8.50000000E-01  8.50000000E-01  8.00000000E-01  8.50000000E-01
  8.50000000E-01  8.50000000E-01  8.00000000E-01  8.50000000E-01  8.50000000E-01
  8.50000000E-01  8.00000000E-01  8.50000000E-01  8.50000000E-01  8.50000000E-01
  8.00000000E-01  8.50000000E-01  8.50000000E-01  8.50000000E-01  8.00000000E-01
  8.50000000E-01  8.50000000E-01  8.50000000E-01  8.00000000E-01  8.50000000E-01
  8.50000000E-01  8.50000000E-01  8.00000000E-01  8.50000000E-01  8.50000000E-01
  8.50000000E-01  8.00000000E-01  8.50000000E-01  8.50000000E-01  8.50000000E-01
  8.00000000E-01  8.50000000E-01  8.50000000E-01  8.50000000E-01  8.00000000E-01
  8.50000000E-01  8.50000000E-01  8.50000000E-01  8.00000000E-01  8.50000000E-01
  8.50000000E-01  8.50000000E-01  8.00000000E-01  8.50000000E-01  8.50000000E-01
  8.50000000E-01  8.00000000E-01  8.50000000E-01  8.50000000E-01  8.50000000E-01
  8.00000000E-01  8.50000000E-01  8.50000000E-01  8.50000000E-01  8.00000000E-01
  8.50000000E-01  8.50000000E-01  8.50000000E-01  8.00000000E-01  8.50000000E-01
  8.50000000E-01  8.50000000E-01  8.00000000E-01  8.50000000E-01  8.50000000E-01
  8.50000000E-01  8.00000000E-01  8.50000000E-01  8.50000000E-01  8.50000000E-01
  8.00000000E-01  8.50000000E-01  8.50000000E-01  8.50000000E-01  8.00000000E-01
  8.50000000E-01  8.50000000E-01  8.50000000E-01  8.00000000E-01  8.50000000E-01
  8.50000000E-01  8.50000000E-01  8.00000000E-01  8.50000000E-01  8.50000000E-01
  8.50000000E-01  8.00000000E-01  8.50000000E-01  8.50000000E-01  8.50000000E-01
  8.00000000E-01  8.50000000E-01  8.50000000E-01  8.50000000E-01  8.00000000E-01
  8.50000000E-01  8.50000000E-01  8.50000000E-01  8.00000000E-01  8.50000000E-01
  8.50000000E-01  8.50000000E-01  8.00000000E-01  8.50000000E-01  8.50000000E-01
  8.50000000E-01  8.00000000E-01  8.50000000E-01  8.50000000E-01  8.50000000E-01
  8.00000000E-01  8.50000000E-01  8.50000000E-01  8.50000000E-01  8.00000000E-01
  8.50000000E-01  8.50000000E-01  8.50000000E-01  8.00000000E-01  8.50000000E-01
  8.50000000E-01  8.50000000E-01  8.00000000E-01  8.50000000E-01  8.50000000E-01
  8.50000000E-01  8.00000000E-01  8.50000000E-01  8.50000000E-01  8.50000000E-01
  8.00000000E-01  8.50000000E-01  8.50000000E-01  8.50000000E-01  8.00000000E-01
  8.50000000E-01  8.50000000E-01  8.50000000E-01  8.00000000E-01  8.50000000E-01
  8.50000000E-01  8.50000000E-01  8.00000000E-01  8.50000000E-01  8.50000000E-01
  8.50000000E-01  8.00000000E-01  8.50000000E-01  8.50000000E-01  8.50000000E-01
  8.00000000E-01  8.50000000E-01  8.50000000E-01  8.50000000E-01  8.00000000E-01
  8.50000000E-01  8.50000000E-01  8.50000000E-01  8.00000000E-01  8.50000000E-01
  8.50000000E-01  8.50000000E-01  8.00000000E-01  8.50000000E-01  8.50000000E-01
  8.50000000E-01  8.00000000E-01  8.50000000E-01  8.50000000E-01  8.50000000E-01
  8.00000000E-01  8.50000000E-01  8.50000000E-01  8.50000000E-01  8.00000000E-01
  8.50000000E-01  8.50000000E-01  8.50000000E-01  8.00000000E-01  8.50000000E-01
  8.50000000E-01  8.50000000E-01  8.00000000E-01  8.50000000E-01  8.50000000E-01
  8.50000000E-01  8.00000000E-01  8.50000000E-01  8.50000000E-01  8.50000000E-01
  8.00000000E-01  8.50000000E-01  8.50000000E-01  8.50000000E-01  8.00000000E-01
  8.50000000E-01  8.50000000E-01  8.50000000E-01  8.00000000E-01  8.50000000E-01
  8.50000000E-01  8.50000000E-01  8.00000000E-01  8.50000000E-01  8.50000000E-01
  8.50000000E-01  8.00000000E-01  8.50000000E-01  8.50000000E-01  8.50000000E-01
  8.00000000E-01  8.50000000E-01  8.50000000E-01  8.50000000E-01  8.00000000E-01
  8.50000000E-01  8.50000000E-01  8.50000000E-01  8.00000000E-01  8.50000000E-01
  8.50000000E-01  8.50000000E-01  8.00000000E-01  8.50000000E-01  8.50000000E-01
  8.50000000E-01  8.00000000E-01  8.50000000E-01  8.50000000E-01  8.50000000E-01
  8.00000000E-01  8.50000000E-01  8.50000000E-01  8.50000000E-01  8.00000000E-01
  8.50000000E-01  8.50000000E-01  8.50000000E-01  8.00000000E-01  8.50000000E-01
  8.50000000E-01  8.50000000E-01  8.00000000E-01  8.50000000E-01  8.50000000E-01
  8.50000000E-01  8.00000000E-01  8.50000000E-01  8.50000000E-01  8.50000000E-01
  8.00000000E-01  8.50000000E-01  8.50000000E-01  8.50000000E-01  8.00000000E-01
  8.50000000E-01  8.50000000E-01  8.50000000E-01  8.00000000E-01  8.50000000E-01
  8.50000000E-01  8.50000000E-01  8.00000000E-01  8.50000000E-01  8.50000000E-01
  8.50000000E-01  8.00000000E-01  8.50000000E-01  8.50000000E-01  8.50000000E-01
  8.00000000E-01  8.50000000E-01  8.50000000E-01  8.50000000E-01  8.00000000E-01
  8.50000000E-01  8.50000000E-01  8.50000000E-01  8.00000000E-01  8.50000000E-01
  8.50000000E-01  8.50000000E-01  8.00000000E-01  8.50000000E-01  8.50000000E-01
  8.50000000E-01  8.00000000E-01  8.50000000E-01  8.50000000E-01  8.50000000E-01
  8.00000000E-01  8.50000000E-01  8.50000000E-01  8.50000000E-01  8.00000000E-01
  8.50000000E-01  8.50000000E-01  8.50000000E-01  8.00000000E-01  8.50000000E-01
  8.50000000E-01  8.50000000E-01  8.00000000E-01  8.50000000E-01  8.50000000E-01
  8.50000000E-01  8.00000000E-01  8.50000000E-01  8.50000000E-01  8.50000000E-01
  8.00000000E-01  8.50000000E-01  8.50000000E-01  8.50000000E-01  8.00000000E-01
  8.50000000E-01  8.50000000E-01  8.50000000E-01  8.00000000E-01  8.50000000E-01
  8.50000000E-01  8.50000000E-01  8.00000000E-01  8.50000000E-01  8.50000000E-01
  8.50000000E-01  8.00000000E-01  8.50000000E-01  8.50000000E-01  8.50000000E-01
  8.00000000E-01  8.50000000E-01  8.50000000E-01  8.50000000E-01  8.00000000E-01
  8.50000000E-01  8.50000000E-01  8.50000000E-01  8.00000000E-01  8.50000000E-01
  8.50000000E-01  8.50000000E-01  8.00000000E-01  8.50000000E-01  8.50000000E-01
  8.50000000E-01  8.00000000E-01  8.50000000E-01  8.50000000E-01  8.50000000E-01
  8.00000000E-01  8.50000000E-01  8.50000000E-01  8.50000000E-01  8.00000000E-01
  8.50000000E-01  8.50000000E-01  8.50000000E-01  8.00000000E-01  8.50000000E-01
  8.50000000E-01  8.50000000E-01  8.00000000E-01  8.50000000E-01  8.50000000E-01
  8.50000000E-01  8.00000000E-01  8.50000000E-01  8.50000000E-01  8.50000000E-01
  8.00000000E-01  8.50000000E-01  8.50000000E-01  8.50000000E-01  8.00000000E-01
  8.50000000E-01  8.50000000E-01  8.50000000E-01  8.00000000E-01  8.50000000E-01
  8.50000000E-01  8.50000000E-01  8.00000000E-01  8.50000000E-01  8.50000000E-01
  8.50000000E-01  8.00000000E-01  8.50000000E-01  8.50000000E-01  8.50000000E-01
  8.00000000E-01  8.50000000E-01  8.50000000E-01  8.50000000E-01  8.00000000E-01
  8.50000000E-01  8.50000000E-01  8.50000000E-01  8.00000000E-01  8.50000000E-01
  8.50000000E-01  8.50000000E-01  8.00000000E-01  8.50000000E-01  8.50000000E-01
  8.50000000E-01  8.00000000E-01  8.50000000E-01  8.50000000E-01  8.50000000E-01
  8.00000000E-01  8.50000000E-01  8.50000000E-01  8.50000000E-01  8.00000000E-01
  8.50000000E-01  8.50000000E-01  8.50000000E-01  8.00000000E-01  8.50000000E-01
  8.50000000E-01  8.50000000E-01  8.00000000E-01  8.50000000E-01  8.50000000E-01
  8.50000000E-01  8.00000000E-01  8.50000000E-01  8.50000000E-01  8.50000000E-01
  8.00000000E-01  8.50000000E-01  8.50000000E-01  8.50000000E-01  8.00000000E-01
  8.50000000E-01  8.50000000E-01  8.50000000E-01  8.00000000E-01  8.50000000E-01
  8.50000000E-01  8.50000000E-01  8.00000000E-01  8.50000000E-01  8.50000000E-01
  8.50000000E-01  8.00000000E-01  8.50000000E-01  8.50000000E-01  8.50000000E-01
  8.00000000E-01  8.50000000E-01  8.50000000E-01  8.50000000E-01  8.00000000E-01
  8.50000000E-01  8.50000000E-01  8.50000000E-01  8.00000000E-01  8.50000000E-01
  8.50000000E-01  8.50000000E-01  8.00000000E-01  8.50000000E-01  8.50000000E-01
  8.50000000E-01  8.00000000E-01  8.50000000E-01  8.50000000E-01  8.50000000E-01
  8.00000000E-01  8.50000000E-01  8.50000000E-01  8.50000000E-01  8.00000000E-01
  8.50000000E-01  8.50000000E-01  8.50000000E-01  8.00000000E-01  8.50000000E-01
  8.50000000E-01  8.50000000E-01  8.00000000E-01  8.50000000E-01  8.50000000E-01
  8.50000000E-01  8.00000000E-01  8.50000000E-01  8.50000000E-01  8.50000000E-01
  8.00000000E-01  8.50000000E-01  8.50000000E-01  8.50000000E-01  8.00000000E-01
  8.50000000E-01  8.50000000E-01  8.50000000E-01  8.00000000E-01  8.50000000E-01
  8.50000000E-01  8.50000000E-01  8.00000000E-01  8.50000000E-01  8.50000000E-01
  8.50000000E-01  8.00000000E-01  8.50000000E-01  8.50000000E-01  8.50000000E-01
  8.00000000E-01  8.50000000E-01  8.50000000E-01  8.50000000E-01  8.00000000E-01
  8.50000000E-01  8.50000000E-01  8.50000000E-01  8.00000000E-01  8.50000000E-01
  8.50000000E-01  8.50000000E-01  8.00000000E-01  8.50000000E-01  8.50000000E-01
  8.50000000E-01  8.00000000E-01  8.50000000E-01  8.50000000E-01  8.50000000E-01
  8.00000000E-01  8.50000000E-01  8.50000000E-01  8.50000000E-01  8.00000000E-01
  8.50000000E-01  8.50000000E-01  8.50000000E-01  8.00000000E-01  8.50000000E-01
  8.50000000E-01  8.50000000E-01  8.00000000E-01  8.50000000E-01  8.50000000E-01
  8.50000000E-01  8.00000000E-01  8.50000000E-01  8.50000000E-01  8.50000000E-01
  8.00000000E-01  8.50000000E-01  8.50000000E-01  8.50000000E-01  8.00000000E-01
  8.50000000E-01  8.50000000E-01  8.50000000E-01  8.00000000E-01  8.50000000E-01
  8.50000000E-01  8.50000000E-01  8.00000000E-01  8.50000000E-01  8.50000000E-01
  8.50000000E-01  8.00000000E-01  8.50000000E-01  8.50000000E-01  8.50000000E-01
  8.00000000E-01  8.50000000E-01  8.50000000E-01  8.50000000E-01  8.00000000E-01
  8.50000000E-01  8.50000000E-01  8.50000000E-01  8.00000000E-01  8.50000000E-01
  8.50000000E-01  8.50000000E-01  8.00000000E-01  8.50000000E-01  8.50000000E-01
  8.50000000E-01  8.00000000E-01  8.50000000E-01  8.50000000E-01  8.50000000E-01
  8.00000000E-01  8.50000000E-01  8.50000000E-01  8.50000000E-01  8.00000000E-01
  8.50000000E-01  8.50000000E-01  8.50000000E-01  8.00000000E-01  8.50000000E-01
  8.50000000E-01  8.50000000E-01  8.00000000E-01  8.50000000E-01  8.50000000E-01
  8.50000000E-01  8.00000000E-01  8.50000000E-01  8.50000000E-01  8.50000000E-01
  8.00000000E-01  8.50000000E-01  8.50000000E-01  8.50000000E-01  8.00000000E-01
  8.50000000E-01  8.50000000E-01  8.50000000E-01  8.00000000E-01  8.50000000E-01
  8.50000000E-01  8.50000000E-01  8.00000000E-01  8.50000000E-01  8.50000000E-01
  8.50000000E-01  8.00000000E-01  8.50000000E-01  8.50000000E-01  8.50000000E-01
  8.00000000E-01  8.50000000E-01  8.50000000E-01  8.50000000E-01  8.00000000E-01
  8.50000000E-01  8.50000000E-01  8.50000000E-01  8.00000000E-01  8.50000000E-01
  8.50000000E-01  8.50000000E-01  8.00000000E-01  8.50000000E-01  8.50000000E-01
  8.50000000E-01  8.00000000E-01  8.50000000E-01  8.50000000E-01  8.50000000E-01
  8.00000000E-01  8.50000000E-01  8.50000000E-01  8.50000000E-01  8.00000000E-01
  8.50000000E-01  8.50000000E-01  8.50000000E-01  8.00000000E-01  8.50000000E-01
  8.50000000E-01  8.50000000E-01  8.00000000E-01  8.50000000E-01  8.50000000E-01
  8.50000000E-01  8.00000000E-01  8.50000000E-01  8.50000000E-01  8.50000000E-01
  8.00000000E-01  8.50000000E-01  8.50000000E-01  8.50000000E-01  8.00000000E-01
  8.50000000E-01  8.50000000E-01  8.50000000E-01  8.00000000E-01  8.50000000E-01
  8.50000000E-01  8.50000000E-01  8.00000000E-01  8.50000000E-01  8.50000000E-01
  8.50000000E-01  8.00000000E-01  8.50000000E-01  8.50000000E-01  8.50000000E-01
  8.00000000E-01  8.50000000E-01  8.50000000E-01  8.50000000E-01  8.00000000E-01
  8.50000000E-01  8.50000000E-01  8.50000000E-01  8.00000000E-01  8.50000000E-01
  8.50000000E-01  8.50000000E-01  8.00000000E-01  8.50000000E-01  8.50000000E-01
  8.50000000E-01  8.00000000E-01  8.50000000E-01  8.50000000E-01  8.50000000E-01
  8.00000000E-01  8.50000000E-01  8.50000000E-01  8.50000000E-01  8.00000000E-01
  8.50000000E-01  8.50000000E-01  8.50000000E-01  8.00000000E-01  8.50000000E-01
  8.50000000E-01  8.50000000E-01  8.00000000E-01  8.50000000E-01  8.50000000E-01
  8.50000000E-01  8.00000000E-01  8.50000000E-01  8.50000000E-01  8.50000000E-01
  8.00000000E-01  8.50000000E-01  8.50000000E-01  8.50000000E-01  8.00000000E-01
  8.50000000E-01  8.50000000E-01  8.50000000E-01  8.00000000E-01  8.50000000E-01
  8.50000000E-01  8.50000000E-01  8.00000000E-01  8.50000000E-01  8.50000000E-01
  8.50000000E-01  8.00000000E-01  8.50000000E-01  8.50000000E-01  8.50000000E-01
  8.00000000E-01  8.50000000E-01  8.50000000E-01  8.50000000E-01  8.00000000E-01
  8.50000000E-01  8.50000000E-01  8.50000000E-01  8.00000000E-01  8.50000000E-01
  8.50000000E-01  8.50000000E-01  8.00000000E-01  8.50000000E-01  8.50000000E-01
  8.50000000E-01  8.00000000E-01  8.50000000E-01  8.50000000E-01  8.50000000E-01
  8.00000000E-01  8.50000000E-01  8.50000000E-01  8.50000000E-01  8.00000000E-01
  8.50000000E-01  8.50000000E-01  8.50000000E-01  8.00000000E-01  8.50000000E-01
  8.50000000E-01  8.50000000E-01  8.00000000E-01  8.50000000E-01  8.50000000E-01
  8.50000000E-01  8.00000000E-01  8.50000000E-01  8.50000000E-01  8.50000000E-01
  8.00000000E-01  8.50000000E-01  8.50000000E-01  8.50000000E-01  8.00000000E-01
  8.50000000E-01  8.50000000E-01  8.50000000E-01  8.00000000E-01  8.50000000E-01
  8.50000000E-01  8.50000000E-01  8.00000000E-01  8.50000000E-01  8.50000000E-01
  8.50000000E-01  8.00000000E-01  8.50000000E-01  8.50000000E-01  8.50000000E-01
  8.00000000E-01  8.50000000E-01  8.50000000E-01  8.50000000E-01  8.00000000E-01
  8.50000000E-01  8.50000000E-01  8.50000000E-01  8.00000000E-01  8.50000000E-01
  8.50000000E-01  8.50000000E-01  8.00000000E-01  8.50000000E-01  8.50000000E-01
  8.50000000E-01  8.00000000E-01  8.50000000E-01  8.50000000E-01  8.50000000E-01
  8.00000000E-01  8.50000000E-01  8.50000000E-01  8.50000000E-01  8.00000000E-01
  8.50000000E-01  8.50000000E-01  8.50000000E-01  8.00000000E-01  8.50000000E-01
  8.50000000E-01  8.50000000E-01  8.00000000E-01  8.50000000E-01  8.50000000E-01
  8.50000000E-01  8.00000000E-01  8.50000000E-01  8.50000000E-01  8.50000000E-01
  8.00000000E-01  8.50000000E-01  8.50000000E-01  8.50000000E-01  8.00000000E-01
  8.50000000E-01  8.50000000E-01  8.50000000E-01  8.00000000E-01  8.50000000E-01
  8.50000000E-01  8.50000000E-01  8.00000000E-01  8.50000000E-01  8.50000000E-01
  8.50000000E-01  8.00000000E-01  8.50000000E-01  8.50000000E-01  8.50000000E-01
  8.00000000E-01  8.50000000E-01  8.50000000E-01  8.50000000E-01  8.00000000E-01
  8.50000000E-01  8.50000000E-01  8.50000000E-01  8.00000000E-01  8.50000000E-01
  8.50000000E-01  8.50000000E-01  8.00000000E-01  8.50000000E-01  8.50000000E-01
  8.50000000E-01  8.00000000E-01  8.50000000E-01  8.50000000E-01  8.50000000E-01
  8.00000000E-01  8.50000000E-01  8.50000000E-01  8.50000000E-01  8.00000000E-01
  8.50000000E-01  8.50000000E-01  8.50000000E-01  8.00000000E-01  8.50000000E-01
  8.50000000E-01  8.50000000E-01  8.00000000E-01  8.50000000E-01  8.50000000E-01
  8.50000000E-01  8.00000000E-01  8.50000000E-01  8.50000000E-01  8.50000000E-01
  8.00000000E-01  8.50000000E-01  8.50000000E-01  8.50000000E-01  8.00000000E-01
  8.50000000E-01  8.50000000E-01  8.50000000E-01  8.00000000E-01  8.50000000E-01
  8.50000000E-01  8.50000000E-01  8.00000000E-01  8.50000000E-01  8.50000000E-01
  8.50000000E-01  8.00000000E-01  8.50000000E-01  8.50000000E-01  8.50000000E-01
  8.00000000E-01  8.50000000E-01  8.50000000E-01  8.50000000E-01  8.00000000E-01
  8.50000000E-01  8.50000000E-01  8.50000000E-01  8.00000000E-01  8.50000000E-01
  8.50000000E-01  8.50000000E-01  8.00000000E-01  8.50000000E-01  8.50000000E-01
  8.50000000E-01  8.00000000E-01  8.50000000E-01  8.50000000E-01  8.50000000E-01
  8.00000000E-01  8.50000000E-01  8.50000000E-01  8.50000000E-01  8.00000000E-01
  8.50000000E-01  8.50000000E-01  8.50000000E-01  8.00000000E-01  8.50000000E-01
  8.50000000E-01  8.50000000E-01  8.00000000E-01  8.50000000E-01  8.50000000E-01
  8.50000000E-01  8.00000000E-01  8.50000000E-01  8.50000000E-01  8.50000000E-01
  8.00000000E-01  8.50000000E-01  8.50000000E-01  8.50000000E-01  8.00000000E-01
  8.50000000E-01  8.50000000E-01  8.50000000E-01  8.00000000E-01  8.50000000E-01
  8.50000000E-01  8.50000000E-01  8.00000000E-01  8.50000000E-01  8.50000000E-01
  8.50000000E-01  8.00000000E-01  8.50000000E-01  8.50000000E-01  8.50000000E-01
  8.00000000E-01  8.50000000E-01  8.50000000E-01  8.50000000E-01  8.00000000E-01
  8.50000000E-01  8.50000000E-01  8.50000000E-01  8.00000000E-01  8.50000000E-01
  8.50000000E-01  8.50000000E-01  8.00000000E-01  8.50000000E-01  8.50000000E-01
  8.50000000E-01  8.00000000E-01  8.50000000E-01  8.50000000E-01  8.50000000E-01
  8.00000000E-01  8.50000000E-01  8.50000000E-01  8.50000000E-01  8.00000000E-01
  8.50000000E-01  8.50000000E-01  8.50000000E-01  8.00000000E-01  8.50000000E-01
  8.50000000E-01  8.50000000E-01  8.00000000E-01  8.50000000E-01  8.50000000E-01
  8.50000000E-01  8.00000000E-01  8.50000000E-01  8.50000000E-01  8.50000000E-01
  8.00000000E-01  8.50000000E-01  8.50000000E-01  8.50000000E-01  8.00000000E-01
  8.50000000E-01  8.50000000E-01  8.50000000E-01  8.00000000E-01  8.50000000E-01
  8.50000000E-01  8.50000000E-01  8.00000000E-01  8.50000000E-01  8.50000000E-01
  8.50000000E-01  8.00000000E-01  8.50000000E-01  8.50000000E-01  8.50000000E-01
  8.00000000E-01  8.50000000E-01  8.50000000E-01  8.50000000E-01  8.00000000E-01
  8.50000000E-01  8.50000000E-01  8.50000000E-01  8.00000000E-01  8.50000000E-01
  8.50000000E-01  8.50000000E-01  8.00000000E-01  8.50000000E-01  8.50000000E-01
  8.50000000E-01  8.00000000E-01  8.50000000E-01  8.50000000E-01  8.50000000E-01
  8.00000000E-01  8.50000000E-01  8.50000000E-01  8.50000000E-01  8.00000000E-01
  8.50000000E-01  8.50000000E-01  8.50000000E-01  8.00000000E-01  8.50000000E-01
  8.50000000E-01  8.50000000E-01  8.00000000E-01  8.50000000E-01  8.50000000E-01
  8.50000000E-01  8.00000000E-01  8.50000000E-01  8.50000000E-01  8.50000000E-01
  8.00000000E-01  8.50000000E-01  8.50000000E-01  8.50000000E-01  8.00000000E-01
  8.50000000E-01  8.50000000E-01  8.50000000E-01  8.00000000E-01  8.50000000E-01
  8.50000000E-01  8.50000000E-01  8.00000000E-01  8.50000000E-01  8.50000000E-01
  8.50000000E-01  8.00000000E-01  8.50000000E-01  8.50000000E-01  8.50000000E-01
  8.00000000E-01  8.50000000E-01  8.50000000E-01  8.50000000E-01  8.00000000E-01
  8.50000000E-01  8.50000000E-01  8.50000000E-01  8.00000000E-01  8.50000000E-01
  8.50000000E-01  8.50000000E-01  8.00000000E-01  8.50000000E-01  8.50000000E-01
  8.50000000E-01  8.00000000E-01  8.50000000E-01  8.50000000E-01  8.50000000E-01
  8.00000000E-01  8.50000000E-01  8.50000000E-01  8.50000000E-01  8.00000000E-01
  8.50000000E-01  8.50000000E-01  8.50000000E-01  8.00000000E-01  8.50000000E-01
  8.50000000E-01  8.50000000E-01  8.00000000E-01  8.50000000E-01  8.50000000E-01
  8.50000000E-01  8.00000000E-01  8.50000000E-01  8.50000000E-01  8.50000000E-01
  8.00000000E-01  8.50000000E-01  8.50000000E-01  8.50000000E-01  8.00000000E-01
  8.50000000E-01  8.50000000E-01  8.50000000E-01  8.00000000E-01  8.50000000E-01
  8.50000000E-01  8.50000000E-01  8.00000000E-01  8.50000000E-01  8.50000000E-01
  8.50000000E-01  8.00000000E-01  8.50000000E-01  8.50000000E-01  8.50000000E-01
  8.00000000E-01  8.50000000E-01  8.50000000E-01  8.50000000E-01  8.00000000E-01
  8.50000000E-01  8.50000000E-01  8.50000000E-01  8.00000000E-01  8.50000000E-01
  8.50000000E-01  8.50000000E-01  8.00000000E-01  8.50000000E-01  8.50000000E-01
  8.50000000E-01  8.00000000E-01  8.50000000E-01  8.50000000E-01  8.50000000E-01
  8.00000000E-01  8.50000000E-01  8.50000000E-01  8.50000000E-01  8.00000000E-01
  8.50000000E-01  8.50000000E-01  8.50000000E-01  8.00000000E-01  8.50000000E-01
  8.50000000E-01  8.50000000E-01  8.00000000E-01  8.50000000E-01  8.50000000E-01
  8.50000000E-01  8.00000000E-01  8.50000000E-01  8.50000000E-01  8.50000000E-01
  8.00000000E-01  8.50000000E-01  8.50000000E-01  8.50000000E-01  8.00000000E-01
  8.50000000E-01  8.50000000E-01  8.50000000E-01  8.00000000E-01  8.50000000E-01
  8.50000000E-01  8.50000000E-01  8.00000000E-01  8.50000000E-01  8.50000000E-01
  8.50000000E-01  8.00000000E-01  8.50000000E-01  8.50000000E-01  8.50000000E-01
  8.00000000E-01  8.50000000E-01  8.50000000E-01  8.50000000E-01  8.00000000E-01
  8.50000000E-01  8.50000000E-01  8.50000000E-01  8.00000000E-01  8.50000000E-01
  8.50000000E-01  8.50000000E-01  8.00000000E-01  8.50000000E-01  8.50000000E-01
  8.50000000E-01  8.00000000E-01  8.50000000E-01  8.50000000E-01  8.50000000E-01
  8.00000000E-01  8.50000000E-01  8.50000000E-01  8.50000000E-01  8.00000000E-01
  8.50000000E-01  8.50000000E-01  8.50000000E-01  8.00000000E-01  8.50000000E-01
  8.50000000E-01  8.50000000E-01  8.00000000E-01  8.50000000E-01  8.50000000E-01
  8.50000000E-01  8.00000000E-01  8.50000000E-01  8.50000000E-01  8.50000000E-01
  8.00000000E-01  8.50000000E-01  8.50000000E-01  8.50000000E-01  8.00000000E-01
  8.50000000E-01  8.50000000E-01  8.50000000E-01  8.00000000E-01  8.50000000E-01
  8.50000000E-01  8.50000000E-01  8.00000000E-01  8.50000000E-01  8.50000000E-01
  8.50000000E-01  8.00000000E-01  8.50000000E-01  8.50000000E-01  8.50000000E-01
  8.00000000E-01  8.50000000E-01  8.50000000E-01  8.50000000E-01  8.00000000E-01
  8.50000000E-01  8.50000000E-01  8.50000000E-01  8.00000000E-01  8.50000000E-01
  8.50000000E-01  8.50000000E-01  8.00000000E-01  8.50000000E-01  8.50000000E-01
  8.50000000E-01  8.00000000E-01  8.50000000E-01  8.50000000E-01  8.50000000E-01
  8.00000000E-01  8.50000000E-01  8.50000000E-01  8.50000000E-01  8.00000000E-01
  8.50000000E-01  8.50000000E-01  8.50000000E-01  8.00000000E-01  8.50000000E-01
  8.50000000E-01  8.50000000E-01  8.00000000E-01  8.50000000E-01  8.50000000E-01
  8.50000000E-01  8.00000000E-01  8.50000000E-01  8.50000000E-01  8.50000000E-01
  8.00000000E-01  8.50000000E-01  8.50000000E-01  8.50000000E-01  8.00000000E-01
  8.50000000E-01  8.50000000E-01  8.50000000E-01  8.00000000E-01  8.50000000E-01
  8.50000000E-01  8.50000000E-01  8.00000000E-01  8.50000000E-01  8.50000000E-01
  8.50000000E-01  8.00000000E-01  8.50000000E-01  8.50000000E-01  8.50000000E-01
  8.00000000E-01  8.50000000E-01  8.50000000E-01  8.50000000E-01  8.00000000E-01
  8.50000000E-01  8.50000000E-01  8.50000000E-01  8.00000000E-01  8.50000000E-01
  8.50000000E-01  8.50000000E-01  8.00000000E-01  8.50000000E-01  8.50000000E-01
  8.50000000E-01  8.00000000E-01  8.50000000E-01  8.50000000E-01  8.50000000E-01
  8.00000000E-01  8.50000000E-01  8.50000000E-01  8.50000000E-01  8.00000000E-01
  8.50000000E-01  8.50000000E-01  8.50000000E-01  8.00000000E-01  8.50000000E-01
  8.50000000E-01  8.50000000E-01  8.00000000E-01  8.50000000E-01  8.50000000E-01
  8.50000000E-01  8.00000000E-01  8.50000000E-01  8.50000000E-01  8.50000000E-01
  8.00000000E-01  8.50000000E-01  8.50000000E-01  8.50000000E-01  8.00000000E-01
  8.50000000E-01  8.50000000E-01  8.50000000E-01  8.00000000E-01  8.50000000E-01
  8.50000000E-01  8.50000000E-01  8.00000000E-01  8.50000000E-01  8.50000000E-01
  8.50000000E-01  8.00000000E-01  8.50000000E-01  8.50000000E-01  8.50000000E-01
  8.00000000E-01  8.50000000E-01  8.50000000E-01  8.50000000E-01  8.00000000E-01
  8.50000000E-01  8.50000000E-01  8.50000000E-01  8.00000000E-01  8.50000000E-01
  8.50000000E-01  8.50000000E-01  8.00000000E-01  8.50000000E-01  8.50000000E-01
  8.50000000E-01  8.00000000E-01  8.50000000E-01  8.50000000E-01  8.50000000E-01
  8.00000000E-01  8.50000000E-01  8.50000000E-01  8.50000000E-01  8.00000000E-01
  8.50000000E-01  8.50000000E-01  8.50000000E-01  8.00000000E-01  8.50000000E-01
  8.50000000E-01  8.50000000E-01  8.00000000E-01  8.50000000E-01  8.50000000E-01
  8.50000000E-01  8.00000000E-01  8.50000000E-01  8.50000000E-01  8.50000000E-01
  8.00000000E-01  8.50000000E-01  8.50000000E-01  8.50000000E-01  8.00000000E-01
  8.50000000E-01  8.50000000E-01  8.50000000E-01  8.00000000E-01  8.50000000E-01
  8.50000000E-01  8.50000000E-01  8.00000000E-01  8.50000000E-01  8.50000000E-01
  8.50000000E-01  8.00000000E-01  8.50000000E-01  8.50000000E-01  8.50000000E-01
  8.00000000E-01  8.50000000E-01  8.50000000E-01  8.50000000E-01  8.00000000E-01
  8.50000000E-01  8.50000000E-01  8.50000000E-01  8.00000000E-01  8.50000000E-01
  8.50000000E-01  8.50000000E-01  8.00000000E-01  8.50000000E-01  8.50000000E-01
  8.50000000E-01  8.00000000E-01  8.50000000E-01  8.50000000E-01  8.50000000E-01
  8.00000000E-01  8.50000000E-01  8.50000000E-01  8.50000000E-01  8.00000000E-01
  8.50000000E-01  8.50000000E-01  8.50000000E-01  8.00000000E-01  8.50000000E-01
  8.50000000E-01  8.50000000E-01  8.00000000E-01  8.50000000E-01  8.50000000E-01
  8.50000000E-01  8.00000000E-01  8.50000000E-01  8.50000000E-01  8.50000000E-01
  8.00000000E-01  8.50000000E-01  8.50000000E-01  8.50000000E-01  8.00000000E-01
  8.50000000E-01  8.50000000E-01  8.50000000E-01  8.00000000E-01  8.50000000E-01
  8.50000000E-01  8.50000000E-01  8.00000000E-01  8.50000000E-01  8.50000000E-01
  8.50000000E-01  8.00000000E-01  8.50000000E-01  8.50000000E-01  8.50000000E-01
  8.00000000E-01  8.50000000E-01  8.50000000E-01  8.50000000E-01  8.00000000E-01
  8.50000000E-01  8.50000000E-01  8.50000000E-01  8.00000000E-01  8.50000000E-01
  8.50000000E-01  8.50000000E-01  8.00000000E-01  8.50000000E-01  8.50000000E-01
  8.50000000E-01  8.00000000E-01  8.50000000E-01  8.50000000E-01  8.50000000E-01
  8.00000000E-01  8.50000000E-01  8.50000000E-01  8.50000000E-01  8.00000000E-01
  8.50000000E-01  8.50000000E-01  8.50000000E-01  8.00000000E-01  8.50000000E-01
  8.50000000E-01  8.50000000E-01  8.00000000E-01  8.50000000E-01  8.50000000E-01
  8.50000000E-01  8.00000000E-01  8.50000000E-01  8.50000000E-01  8.50000000E-01
  8.00000000E-01  8.50000000E-01  8.50000000E-01  8.50000000E-01  8.00000000E-01
  8.50000000E-01  8.50000000E-01  8.50000000E-01  8.00000000E-01  8.50000000E-01
  8.50000000E-01  8.50000000E-01  8.00000000E-01  8.50000000E-01  8.50000000E-01
  8.50000000E-01  8.00000000E-01  8.50000000E-01  8.50000000E-01  8.50000000E-01
  8.00000000E-01  8.50000000E-01  8.50000000E-01  8.50000000E-01  8.00000000E-01
  8.50000000E-01  8.50000000E-01  8.50000000E-01  8.00000000E-01  8.50000000E-01
  8.50000000E-01  8.50000000E-01  8.00000000E-01  8.50000000E-01  8.50000000E-01
  8.50000000E-01  8.00000000E-01  8.50000000E-01  8.50000000E-01  8.50000000E-01
  8.00000000E-01  8.50000000E-01  8.50000000E-01  8.50000000E-01  8.00000000E-01
  8.50000000E-01  8.50000000E-01  8.50000000E-01  8.00000000E-01  8.50000000E-01
  8.50000000E-01  8.50000000E-01  8.00000000E-01  8.50000000E-01  8.50000000E-01
  8.50000000E-01  8.00000000E-01  8.50000000E-01  8.50000000E-01  8.50000000E-01
  8.00000000E-01  8.50000000E-01  8.50000000E-01  8.50000000E-01  8.00000000E-01
  8.50000000E-01  8.50000000E-01  8.50000000E-01  8.00000000E-01  8.50000000E-01
  8.50000000E-01  8.50000000E-01  8.00000000E-01  8.50000000E-01  8.50000000E-01
  8.50000000E-01  8.00000000E-01  8.50000000E-01  8.50000000E-01  8.50000000E-01
  8.00000000E-01  8.50000000E-01  8.50000000E-01  8.50000000E-01  8.00000000E-01
  8.50000000E-01  8.50000000E-01  8.50000000E-01  8.00000000E-01  8.50000000E-01
  8.50000000E-01  8.50000000E-01  8.00000000E-01  8.50000000E-01  8.50000000E-01
  8.50000000E-01  8.00000000E-01  8.50000000E-01  8.50000000E-01  8.50000000E-01
  8.00000000E-01  8.50000000E-01  8.50000000E-01  8.50000000E-01  8.00000000E-01
  8.50000000E-01  8.50000000E-01  8.50000000E-01  8.00000000E-01  8.50000000E-01
  8.50000000E-01  8.50000000E-01  8.00000000E-01  8.50000000E-01  8.50000000E-01
  8.50000000E-01  8.00000000E-01  8.50000000E-01  8.50000000E-01  8.50000000E-01
  8.00000000E-01  8.50000000E-01  8.50000000E-01  8.50000000E-01  8.00000000E-01
  8.50000000E-01  8.50000000E-01  8.50000000E-01  8.00000000E-01  8.50000000E-01
  8.50000000E-01  8.50000000E-01  8.00000000E-01  8.50000000E-01  8.50000000E-01
  8.50000000E-01  8.00000000E-01  8.50000000E-01  8.50000000E-01  8.50000000E-01
  8.00000000E-01  8.50000000E-01  8.50000000E-01  8.50000000E-01  8.00000000E-01
  8.50000000E-01  8.50000000E-01  8.50000000E-01  8.00000000E-01  8.50000000E-01
  8.50000000E-01  8.50000000E-01  8.00000000E-01  8.50000000E-01  8.50000000E-01
  8.50000000E-01  8.00000000E-01  8.50000000E-01  8.50000000E-01  8.50000000E-01
  8.00000000E-01  8.50000000E-01  8.50000000E-01  8.50000000E-01  8.00000000E-01
  8.50000000E-01  8.50000000E-01  8.50000000E-01  8.00000000E-01  8.50000000E-01
  8.50000000E-01  8.50000000E-01  8.00000000E-01  8.50000000E-01  8.50000000E-01
  8.50000000E-01  8.00000000E-01  8.50000000E-01  8.50000000E-01  8.50000000E-01
  8.00000000E-01  8.50000000E-01  8.50000000E-01  8.50000000E-01  8.00000000E-01
  8.50000000E-01  8.50000000E-01  8.50000000E-01  8.00000000E-01  8.50000000E-01
  8.50000000E-01  8.50000000E-01  8.00000000E-01  8.50000000E-01  8.50000000E-01
  8.50000000E-01  8.00000000E-01  8.50000000E-01  8.50000000E-01  8.50000000E-01
  8.00000000E-01  8.50000000E-01  8.50000000E-01  8.50000000E-01  8.00000000E-01
  8.50000000E-01  8.50000000E-01  8.50000000E-01  8.00000000E-01  8.50000000E-01
  8.50000000E-01  8.50000000E-01  8.00000000E-01  8.50000000E-01  8.50000000E-01
  8.50000000E-01  8.00000000E-01  8.50000000E-01  8.50000000E-01  8.50000000E-01
  8.00000000E-01  8.50000000E-01  8.50000000E-01  8.50000000E-01  8.00000000E-01
  8.50000000E-01  8.50000000E-01  8.50000000E-01  8.00000000E-01  8.50000000E-01
  8.50000000E-01  8.50000000E-01  8.00000000E-01  8.50000000E-01  8.50000000E-01
  8.50000000E-01  8.00000000E-01  8.50000000E-01  8.50000000E-01  8.50000000E-01
  8.00000000E-01  8.50000000E-01  8.50000000E-01  8.50000000E-01  8.00000000E-01
  8.50000000E-01  8.50000000E-01  8.50000000E-01  8.00000000E-01  8.50000000E-01
  8.50000000E-01  8.50000000E-01  8.00000000E-01  8.50000000E-01  8.50000000E-01
  8.50000000E-01  8.00000000E-01  8.50000000E-01  8.50000000E-01  8.50000000E-01
  8.00000000E-01  8.50000000E-01  8.50000000E-01  8.50000000E-01  8.00000000E-01
  8.50000000E-01  8.50000000E-01  8.50000000E-01  8.00000000E-01  8.50000000E-01
  8.50000000E-01  8.50000000E-01  8.00000000E-01  8.50000000E-01  8.50000000E-01
  8.50000000E-01  8.00000000E-01  8.50000000E-01  8.50000000E-01  8.50000000E-01
  8.00000000E-01  8.50000000E-01  8.50000000E-01  8.50000000E-01  8.00000000E-01
  8.50000000E-01  8.50000000E-01  8.50000000E-01  8.00000000E-01  8.50000000E-01
  8.50000000E-01  8.50000000E-01  8.00000000E-01  8.50000000E-01  8.50000000E-01
  8.50000000E-01  8.00000000E-01  8.50000000E-01  8.50000000E-01  8.50000000E-01
  8.00000000E-01  8.50000000E-01  8.50000000E-01  8.50000000E-01  8.00000000E-01
  8.50000000E-01  8.50000000E-01  8.50000000E-01  8.00000000E-01  8.50000000E-01
  8.50000000E-01  8.50000000E-01  8.00000000E-01  8.50000000E-01  8.50000000E-01
  8.50000000E-01  8.00000000E-01  8.50000000E-01  8.50000000E-01  8.50000000E-01
  8.00000000E-01  8.50000000E-01  8.50000000E-01  8.50000000E-01  8.00000000E-01
  8.50000000E-01  8.50000000E-01  8.50000000E-01  8.00000000E-01  8.50000000E-01
  8.50000000E-01  8.50000000E-01  8.00000000E-01  8.50000000E-01  8.50000000E-01
  8.50000000E-01  8.00000000E-01  8.50000000E-01  8.50000000E-01  8.50000000E-01
  8.00000000E-01  8.50000000E-01  8.50000000E-01  8.50000000E-01  8.00000000E-01
  8.50000000E-01  8.50000000E-01  8.50000000E-01  8.00000000E-01  8.50000000E-01
  8.50000000E-01  8.50000000E-01  8.00000000E-01  8.50000000E-01  8.50000000E-01
  8.50000000E-01  8.00000000E-01  8.50000000E-01  8.50000000E-01  8.50000000E-01
  8.00000000E-01  8.50000000E-01  8.50000000E-01  8.50000000E-01  8.00000000E-01
  8.50000000E-01  8.50000000E-01  8.50000000E-01  8.00000000E-01  8.50000000E-01
  8.50000000E-01  8.50000000E-01  8.00000000E-01  8.50000000E-01  8.50000000E-01
  8.50000000E-01  8.00000000E-01  8.50000000E-01  8.50000000E-01  8.50000000E-01
  8.00000000E-01  8.50000000E-01  8.50000000E-01  8.50000000E-01  8.00000000E-01
  8.50000000E-01  8.50000000E-01  8.50000000E-01  8.00000000E-01  8.50000000E-01
  8.50000000E-01  8.50000000E-01  8.00000000E-01  8.50000000E-01  8.50000000E-01
  8.50000000E-01  8.00000000E-01  8.50000000E-01  8.50000000E-01  8.50000000E-01
  8.00000000E-01  8.50000000E-01  8.50000000E-01  8.50000000E-01  8.00000000E-01
  8.50000000E-01  8.50000000E-01  8.50000000E-01  8.00000000E-01  8.50000000E-01
  8.50000000E-01  8.50000000E-01  8.00000000E-01  8.50000000E-01  8.50000000E-01
  8.50000000E-01  8.00000000E-01  8.50000000E-01  8.50000000E-01  8.50000000E-01
  8.00000000E-01  8.50000000E-01  8.50000000E-01  8.50000000E-01  8.00000000E-01
  8.50000000E-01  8.50000000E-01  8.50000000E-01  8.00000000E-01  8.50000000E-01
  8.50000000E-01  8.50000000E-01  8.00000000E-01  8.50000000E-01  8.50000000E-01
  8.50000000E-01  8.00000000E-01  8.50000000E-01  8.50000000E-01  8.50000000E-01
  8.00000000E-01  8.50000000E-01  8.50000000E-01  8.50000000E-01  8.00000000E-01
  8.50000000E-01  8.50000000E-01  8.50000000E-01  8.00000000E-01  8.50000000E-01
  8.50000000E-01  8.50000000E-01  8.00000000E-01  8.50000000E-01  8.50000000E-01
  8.50000000E-01  8.00000000E-01  8.50000000E-01  8.50000000E-01  8.50000000E-01
  8.00000000E-01  8.50000000E-01  8.50000000E-01  8.50000000E-01  8.00000000E-01
  8.50000000E-01  8.50000000E-01  8.50000000E-01  8.00000000E-01  8.50000000E-01
  8.50000000E-01  8.50000000E-01  8.00000000E-01  8.50000000E-01  8.50000000E-01
  8.50000000E-01  8.00000000E-01  8.50000000E-01  8.50000000E-01  8.50000000E-01
  8.00000000E-01  8.50000000E-01  8.50000000E-01  8.50000000E-01  8.00000000E-01
  8.50000000E-01  8.50000000E-01  8.50000000E-01  8.00000000E-01  8.50000000E-01
  8.50000000E-01  8.50000000E-01  8.00000000E-01  8.50000000E-01  8.50000000E-01
  8.50000000E-01  8.00000000E-01  8.50000000E-01  8.50000000E-01  8.50000000E-01
  8.00000000E-01  8.50000000E-01  8.50000000E-01  8.50000000E-01  8.00000000E-01
  8.50000000E-01  8.50000000E-01  8.50000000E-01  8.00000000E-01  8.50000000E-01
  8.50000000E-01  8.50000000E-01  8.00000000E-01  8.50000000E-01  8.50000000E-01
  8.50000000E-01  8.00000000E-01  8.50000000E-01  8.50000000E-01  8.50000000E-01
  8.00000000E-01  8.50000000E-01  8.50000000E-01  8.50000000E-01  8.00000000E-01
  8.50000000E-01  8.50000000E-01  8.50000000E-01  8.00000000E-01  8.50000000E-01
  8.50000000E-01  8.50000000E-01  8.00000000E-01  8.50000000E-01  8.50000000E-01
  8.50000000E-01  8.00000000E-01  8.50000000E-01  8.50000000E-01  8.50000000E-01
  8.00000000E-01  8.50000000E-01  8.50000000E-01  8.50000000E-01  8.00000000E-01
  8.50000000E-01  8.50000000E-01  8.50000000E-01  8.00000000E-01  8.50000000E-01
  8.50000000E-01  8.50000000E-01  8.00000000E-01  8.50000000E-01  8.50000000E-01
  8.50000000E-01  8.00000000E-01  8.50000000E-01  8.50000000E-01  8.50000000E-01
  8.00000000E-01  8.50000000E-01  8.50000000E-01  8.50000000E-01  8.00000000E-01
  8.50000000E-01  8.50000000E-01  8.50000000E-01  8.00000000E-01  8.50000000E-01
  8.50000000E-01  8.50000000E-01  8.00000000E-01  8.50000000E-01  8.50000000E-01
  8.50000000E-01  8.00000000E-01  8.50000000E-01  8.50000000E-01  8.50000000E-01
  8.00000000E-01  8.50000000E-01  8.50000000E-01  8.50000000E-01  8.00000000E-01
  8.50000000E-01  8.50000000E-01  8.50000000E-01  8.00000000E-01  8.50000000E-01
  8.50000000E-01  8.50000000E-01  8.00000000E-01  8.50000000E-01  8.50000000E-01
  8.50000000E-01  8.00000000E-01  8.50000000E-01  8.50000000E-01  8.50000000E-01
  8.00000000E-01  8.50000000E-01  8.50000000E-01  8.50000000E-01  8.00000000E-01
  8.50000000E-01  8.50000000E-01  8.50000000E-01  8.00000000E-01  8.50000000E-01
  8.50000000E-01  8.50000000E-01  8.00000000E-01  8.50000000E-01  8.50000000E-01
  8.50000000E-01  8.00000000E-01  8.50000000E-01  8.50000000E-01  8.50000000E-01
  8.00000000E-01  8.50000000E-01  8.50000000E-01  8.50000000E-01  8.00000000E-01
  8.50000000E-01  8.50000000E-01  8.50000000E-01  8.00000000E-01  8.50000000E-01
  8.50000000E-01  8.50000000E-01  8.00000000E-01  8.50000000E-01  8.50000000E-01
  8.50000000E-01  8.00000000E-01  8.50000000E-01  8.50000000E-01  8.50000000E-01
  8.00000000E-01  8.50000000E-01  8.50000000E-01  8.50000000E-01  8.00000000E-01
  8.50000000E-01  8.50000000E-01  8.50000000E-01  8.00000000E-01  8.50000000E-01
  8.50000000E-01  8.50000000E-01  8.00000000E-01  8.50000000E-01  8.50000000E-01
  8.50000000E-01  8.00000000E-01  8.50000000E-01  8.50000000E-01  8.50000000E-01
  8.00000000E-01  8.50000000E-01  8.50000000E-01  8.50000000E-01  8.00000000E-01
  8.50000000E-01  8.50000000E-01  8.50000000E-01  8.00000000E-01  8.50000000E-01
  8.50000000E-01  8.50000000E-01  8.00000000E-01  8.50000000E-01  8.50000000E-01
  8.50000000E-01  8.00000000E-01  8.50000000E-01  8.50000000E-01  8.50000000E-01
  8.00000000E-01  8.50000000E-01  8.50000000E-01  8.50000000E-01  8.00000000E-01
  8.50000000E-01  8.50000000E-01  8.50000000E-01  8.00000000E-01  8.50000000E-01
  8.50000000E-01  8.50000000E-01  8.00000000E-01  8.50000000E-01  8.50000000E-01
  8.50000000E-01  8.00000000E-01  8.50000000E-01  8.50000000E-01  8.50000000E-01
  8.00000000E-01  8.50000000E-01  8.50000000E-01  8.50000000E-01  8.00000000E-01
  8.50000000E-01  8.50000000E-01  8.50000000E-01  8.00000000E-01  8.50000000E-01
  8.50000000E-01  8.50000000E-01  8.00000000E-01  8.50000000E-01  8.50000000E-01
  8.50000000E-01  8.00000000E-01  8.50000000E-01  8.50000000E-01  8.50000000E-01
  8.00000000E-01  8.50000000E-01  8.50000000E-01  8.50000000E-01  8.00000000E-01
  8.50000000E-01  8.50000000E-01  8.50000000E-01  8.00000000E-01  8.50000000E-01
  8.50000000E-01  8.50000000E-01  8.00000000E-01  8.50000000E-01  8.50000000E-01
  8.50000000E-01  8.00000000E-01  8.50000000E-01  8.50000000E-01  8.50000000E-01
  8.00000000E-01  8.50000000E-01  8.50000000E-01  8.50000000E-01  8.00000000E-01
  8.50000000E-01  8.50000000E-01  8.50000000E-01  8.00000000E-01  8.50000000E-01
  8.50000000E-01  8.50000000E-01  8.00000000E-01  8.50000000E-01  8.50000000E-01
  8.50000000E-01  8.00000000E-01  8.50000000E-01  8.50000000E-01  8.50000000E-01
  8.00000000E-01  8.50000000E-01  8.50000000E-01  8.50000000E-01  8.00000000E-01
  8.50000000E-01  8.50000000E-01  8.50000000E-01  8.00000000E-01  8.50000000E-01
  8.50000000E-01  8.50000000E-01  8.00000000E-01  8.50000000E-01  8.50000000E-01
  8.50000000E-01  8.00000000E-01  8.50000000E-01  8.50000000E-01  8.50000000E-01
  8.00000000E-01  8.50000000E-01  8.50000000E-01  8.50000000E-01  8.00000000E-01
  8.50000000E-01  8.50000000E-01  8.50000000E-01  8.00000000E-01  8.50000000E-01
  8.50000000E-01  8.50000000E-01  8.00000000E-01  8.50000000E-01  8.50000000E-01
  8.50000000E-01  8.00000000E-01  8.50000000E-01  8.50000000E-01  8.50000000E-01
  8.00000000E-01  8.50000000E-01  8.50000000E-01  8.50000000E-01  8.00000000E-01
  8.50000000E-01  8.50000000E-01  8.50000000E-01  8.00000000E-01  8.50000000E-01
  8.50000000E-01  8.50000000E-01  8.00000000E-01  8.50000000E-01  8.50000000E-01
  8.50000000E-01  8.00000000E-01  8.50000000E-01  8.50000000E-01  8.50000000E-01
  8.00000000E-01  8.50000000E-01  8.50000000E-01  8.50000000E-01  8.00000000E-01
  8.50000000E-01  8.50000000E-01  8.50000000E-01  8.00000000E-01  8.50000000E-01
  8.50000000E-01  8.50000000E-01  8.00000000E-01  8.50000000E-01  8.50000000E-01
  8.50000000E-01  8.00000000E-01  8.50000000E-01  8.50000000E-01  8.50000000E-01
  8.00000000E-01  8.50000000E-01  8.50000000E-01  8.50000000E-01  8.00000000E-01
  8.50000000E-01  8.50000000E-01  8.50000000E-01  8.00000000E-01  8.50000000E-01
  8.50000000E-01  8.50000000E-01  8.00000000E-01  8.50000000E-01  8.50000000E-01
  8.50000000E-01  8.00000000E-01  8.50000000E-01  8.50000000E-01  8.50000000E-01
  8.00000000E-01  8.50000000E-01  8.50000000E-01  8.50000000E-01  8.00000000E-01
  8.50000000E-01  8.50000000E-01  8.50000000E-01  8.00000000E-01  8.50000000E-01
  8.50000000E-01  8.50000000E-01  8.00000000E-01  8.50000000E-01  8.50000000E-01
  8.50000000E-01  8.00000000E-01  8.50000000E-01  8.50000000E-01  8.50000000E-01
  8.00000000E-01  8.50000000E-01  8.50000000E-01  8.50000000E-01  8.00000000E-01
  8.50000000E-01  8.50000000E-01  8.50000000E-01  8.00000000E-01  8.50000000E-01
  8.50000000E-01  8.50000000E-01  8.00000000E-01  8.50000000E-01  8.50000000E-01
  8.50000000E-01  8.00000000E-01  8.50000000E-01  8.50000000E-01  8.50000000E-01
  8.00000000E-01  8.50000000E-01  8.50000000E-01  8.50000000E-01  8.00000000E-01
  8.50000000E-01  8.50000000E-01  8.50000000E-01  8.00000000E-01  8.50000000E-01
  8.50000000E-01  8.50000000E-01  8.00000000E-01  8.50000000E-01  8.50000000E-01
  8.50000000E-01  8.00000000E-01  8.50000000E-01  8.50000000E-01  8.50000000E-01
  8.00000000E-01  8.50000000E-01  8.50000000E-01  8.50000000E-01  8.00000000E-01
  8.50000000E-01  8.50000000E-01  8.50000000E-01  8.00000000E-01  8.50000000E-01
  8.50000000E-01  8.50000000E-01  8.00000000E-01  8.50000000E-01  8.50000000E-01
  8.50000000E-01  8.00000000E-01  8.50000000E-01  8.50000000E-01  8.50000000E-01
  8.00000000E-01  8.50000000E-01  8.50000000E-01  8.50000000E-01  8.00000000E-01
  8.50000000E-01  8.50000000E-01  8.50000000E-01  8.00000000E-01  8.50000000E-01
  8.50000000E-01  8.50000000E-01  8.00000000E-01  8.50000000E-01  8.50000000E-01
  8.50000000E-01  8.00000000E-01  8.50000000E-01  8.50000000E-01  8.50000000E-01
  8.00000000E-01  8.50000000E-01  8.50000000E-01  8.50000000E-01  8.00000000E-01
  8.50000000E-01  8.50000000E-01  8.50000000E-01  8.00000000E-01  8.50000000E-01
  8.50000000E-01  8.50000000E-01  8.00000000E-01  8.50000000E-01  8.50000000E-01
  8.50000000E-01  8.00000000E-01  8.50000000E-01  8.50000000E-01  8.50000000E-01
  8.00000000E-01  8.50000000E-01  8.50000000E-01  8.50000000E-01  8.00000000E-01
  8.50000000E-01  8.50000000E-01  8.50000000E-01  8.00000000E-01  8.50000000E-01
  8.50000000E-01  8.50000000E-01  8.00000000E-01  8.50000000E-01  8.50000000E-01
  8.50000000E-01  8.00000000E-01  8.50000000E-01  8.50000000E-01  8.50000000E-01
  8.00000000E-01  8.50000000E-01  8.50000000E-01  8.50000000E-01  8.00000000E-01
  8.50000000E-01  8.50000000E-01  8.50000000E-01  8.00000000E-01  8.50000000E-01
  8.50000000E-01  8.50000000E-01  8.00000000E-01  8.50000000E-01  8.50000000E-01
  8.50000000E-01  8.00000000E-01  8.50000000E-01  8.50000000E-01  8.50000000E-01
  8.00000000E-01  8.50000000E-01  8.50000000E-01  8.50000000E-01  8.00000000E-01
  8.50000000E-01  8.50000000E-01  8.50000000E-01  8.00000000E-01  8.50000000E-01
  8.50000000E-01  8.50000000E-01  8.00000000E-01  8.50000000E-01  8.50000000E-01
  8.50000000E-01  8.00000000E-01  8.50000000E-01  8.50000000E-01  8.50000000E-01
  8.00000000E-01  8.50000000E-01  8.50000000E-01  8.50000000E-01  8.00000000E-01
  8.50000000E-01  8.50000000E-01  8.50000000E-01  8.00000000E-01  8.50000000E-01
  8.50000000E-01  8.50000000E-01  8.00000000E-01  8.50000000E-01  8.50000000E-01
  8.50000000E-01  8.00000000E-01  8.50000000E-01  8.50000000E-01  8.50000000E-01
  8.00000000E-01  8.50000000E-01  8.50000000E-01  8.50000000E-01  8.00000000E-01
  8.50000000E-01  8.50000000E-01  8.50000000E-01  8.00000000E-01  8.50000000E-01
  8.50000000E-01  8.50000000E-01  8.00000000E-01  8.50000000E-01  8.50000000E-01
  8.50000000E-01  8.00000000E-01  8.50000000E-01  8.50000000E-01  8.50000000E-01
  8.00000000E-01  8.50000000E-01  8.50000000E-01  8.50000000E-01  8.00000000E-01
  8.50000000E-01  8.50000000E-01  8.50000000E-01  8.00000000E-01  8.50000000E-01
  8.50000000E-01  8.50000000E-01  8.00000000E-01  8.50000000E-01  8.50000000E-01
  8.50000000E-01  8.00000000E-01  8.50000000E-01  8.50000000E-01  8.50000000E-01
  8.00000000E-01  8.50000000E-01  8.50000000E-01  8.50000000E-01  8.00000000E-01
  8.50000000E-01  8.50000000E-01  8.50000000E-01  8.00000000E-01  8.50000000E-01
  8.50000000E-01  8.50000000E-01  8.00000000E-01  8.50000000E-01  8.50000000E-01
  8.50000000E-01  8.00000000E-01  8.50000000E-01  8.50000000E-01  8.50000000E-01
  8.00000000E-01  8.50000000E-01  8.50000000E-01  8.50000000E-01  8.00000000E-01
  8.50000000E-01  8.50000000E-01  8.50000000E-01  8.00000000E-01  8.50000000E-01
  8.50000000E-01  8.50000000E-01  8.00000000E-01  8.50000000E-01  8.50000000E-01
  8.50000000E-01  8.00000000E-01  8.50000000E-01  8.50000000E-01  8.50000000E-01
  8.00000000E-01  8.50000000E-01  8.50000000E-01  8.50000000E-01  8.00000000E-01
  8.50000000E-01  8.50000000E-01  8.50000000E-01  8.00000000E-01  8.50000000E-01
  8.50000000E-01  8.50000000E-01  8.00000000E-01  8.50000000E-01  8.50000000E-01
  8.50000000E-01  8.00000000E-01  8.50000000E-01  8.50000000E-01  8.50000000E-01
  8.00000000E-01  8.50000000E-01  8.50000000E-01  8.50000000E-01  8.00000000E-01
  8.50000000E-01  8.50000000E-01  8.50000000E-01  8.00000000E-01  8.50000000E-01
  8.50000000E-01  8.50000000E-01  8.00000000E-01  8.50000000E-01  8.50000000E-01
  8.50000000E-01  8.00000000E-01  8.50000000E-01  8.50000000E-01  8.50000000E-01
  8.00000000E-01  8.50000000E-01  8.50000000E-01  8.50000000E-01  8.00000000E-01
  8.50000000E-01  8.50000000E-01  8.50000000E-01  8.00000000E-01  8.50000000E-01
  8.50000000E-01  8.50000000E-01  8.00000000E-01  8.50000000E-01  8.50000000E-01
  8.50000000E-01  8.00000000E-01  8.50000000E-01  8.50000000E-01  8.50000000E-01
  8.00000000E-01  8.50000000E-01  8.50000000E-01  8.50000000E-01  8.00000000E-01
  8.50000000E-01  8.50000000E-01  8.50000000E-01  8.00000000E-01  8.50000000E-01
  8.50000000E-01  8.50000000E-01  8.00000000E-01  8.50000000E-01  8.50000000E-01
  8.50000000E-01  8.00000000E-01  8.50000000E-01  8.50000000E-01  8.50000000E-01
  8.00000000E-01  8.50000000E-01  8.50000000E-01  8.50000000E-01  8.00000000E-01
  8.50000000E-01  8.50000000E-01  8.50000000E-01  8.00000000E-01  8.50000000E-01
  8.50000000E-01  8.50000000E-01  8.00000000E-01  8.50000000E-01  8.50000000E-01
  8.50000000E-01  8.00000000E-01  8.50000000E-01  8.50000000E-01  8.50000000E-01
  8.00000000E-01  8.50000000E-01  8.50000000E-01  8.50000000E-01  8.00000000E-01
  8.50000000E-01  8.50000000E-01  8.50000000E-01  8.00000000E-01  8.50000000E-01
  8.50000000E-01  8.50000000E-01  8.00000000E-01  8.50000000E-01  8.50000000E-01
  8.50000000E-01  8.00000000E-01  8.50000000E-01  8.50000000E-01  8.50000000E-01
  8.00000000E-01  8.50000000E-01  8.50000000E-01  8.50000000E-01  8.00000000E-01
  8.50000000E-01  8.50000000E-01  8.50000000E-01  8.00000000E-01  8.50000000E-01
  8.50000000E-01  8.50000000E-01  8.00000000E-01  8.50000000E-01  8.50000000E-01
  8.50000000E-01  8.00000000E-01  8.50000000E-01  8.50000000E-01  8.50000000E-01
  8.00000000E-01  8.50000000E-01  8.50000000E-01  8.50000000E-01  8.00000000E-01
  8.50000000E-01  8.50000000E-01  8.50000000E-01  8.00000000E-01  8.50000000E-01
  8.50000000E-01  8.50000000E-01  8.00000000E-01  8.50000000E-01  8.50000000E-01
  8.50000000E-01  8.00000000E-01  8.50000000E-01  8.50000000E-01  8.50000000E-01
  8.00000000E-01  8.50000000E-01  8.50000000E-01  8.50000000E-01  8.00000000E-01
  8.50000000E-01  8.50000000E-01  8.50000000E-01  8.00000000E-01  8.50000000E-01
  8.50000000E-01  8.50000000E-01  8.00000000E-01  8.50000000E-01  8.50000000E-01
  8.50000000E-01  8.00000000E-01  8.50000000E-01  8.50000000E-01  8.50000000E-01
  8.00000000E-01  8.50000000E-01  8.50000000E-01  8.50000000E-01  8.00000000E-01
  8.50000000E-01  8.50000000E-01  8.50000000E-01  8.00000000E-01  8.50000000E-01
  8.50000000E-01  8.50000000E-01  8.00000000E-01  8.50000000E-01  8.50000000E-01
  8.50000000E-01  8.00000000E-01  8.50000000E-01  8.50000000E-01  8.50000000E-01
  8.00000000E-01  8.50000000E-01  8.50000000E-01  8.50000000E-01  8.00000000E-01
  8.50000000E-01  8.50000000E-01  8.50000000E-01  8.00000000E-01  8.50000000E-01
  8.50000000E-01  8.50000000E-01  8.00000000E-01  8.50000000E-01  8.50000000E-01
  8.50000000E-01  8.00000000E-01  8.50000000E-01  8.50000000E-01  8.50000000E-01
  8.00000000E-01  8.50000000E-01  8.50000000E-01  8.50000000E-01  8.00000000E-01
  8.50000000E-01  8.50000000E-01  8.50000000E-01  8.00000000E-01  8.50000000E-01
  8.50000000E-01  8.50000000E-01  8.00000000E-01  8.50000000E-01  8.50000000E-01
  8.50000000E-01  8.00000000E-01  8.50000000E-01  8.50000000E-01  8.50000000E-01
  8.00000000E-01  8.50000000E-01  8.50000000E-01  8.50000000E-01  8.00000000E-01
  8.50000000E-01  8.50000000E-01  8.50000000E-01  8.00000000E-01  8.50000000E-01
  8.50000000E-01  8.50000000E-01  8.00000000E-01  8.50000000E-01  8.50000000E-01
  8.50000000E-01  8.00000000E-01  8.50000000E-01  8.50000000E-01  8.50000000E-01
  8.00000000E-01  8.50000000E-01  8.50000000E-01  8.50000000E-01  8.00000000E-01
  8.50000000E-01  8.50000000E-01  8.50000000E-01  8.00000000E-01  8.50000000E-01
  8.50000000E-01  8.50000000E-01  8.00000000E-01  8.50000000E-01  8.50000000E-01
  8.50000000E-01  8.00000000E-01  8.50000000E-01  8.50000000E-01  8.50000000E-01
  8.00000000E-01  8.50000000E-01  8.50000000E-01  8.50000000E-01  8.00000000E-01
  8.50000000E-01  8.50000000E-01  8.50000000E-01  8.00000000E-01  8.50000000E-01
  8.50000000E-01  8.50000000E-01  8.00000000E-01  8.50000000E-01  8.50000000E-01
  8.50000000E-01  8.00000000E-01  8.50000000E-01  8.50000000E-01  8.50000000E-01
  8.00000000E-01  8.50000000E-01  8.50000000E-01  8.50000000E-01  8.00000000E-01
  8.50000000E-01  8.50000000E-01  8.50000000E-01  8.00000000E-01  8.50000000E-01
  8.50000000E-01  8.50000000E-01  8.00000000E-01  8.50000000E-01  8.50000000E-01
  8.50000000E-01  8.00000000E-01  8.50000000E-01  8.50000000E-01  8.50000000E-01
  8.00000000E-01  8.50000000E-01  8.50000000E-01  8.50000000E-01  8.00000000E-01
  8.50000000E-01  8.50000000E-01  8.50000000E-01  8.00000000E-01  8.50000000E-01
  8.50000000E-01  8.50000000E-01  8.00000000E-01  8.50000000E-01  8.50000000E-01
  8.50000000E-01  8.00000000E-01  8.50000000E-01  8.50000000E-01  8.50000000E-01
  8.00000000E-01  8.50000000E-01  8.50000000E-01  8.50000000E-01  8.00000000E-01
  8.50000000E-01  8.50000000E-01  8.50000000E-01  8.00000000E-01  8.50000000E-01
  8.50000000E-01  8.50000000E-01  8.00000000E-01  8.50000000E-01  8.50000000E-01
  8.50000000E-01  8.00000000E-01  8.50000000E-01  8.50000000E-01  8.50000000E-01
  8.00000000E-01  8.50000000E-01  8.50000000E-01  8.50000000E-01  8.00000000E-01
  8.50000000E-01  8.50000000E-01  8.50000000E-01  8.00000000E-01  8.50000000E-01
  8.50000000E-01  8.50000000E-01  8.00000000E-01  8.50000000E-01  8.50000000E-01
  8.50000000E-01  8.00000000E-01  8.50000000E-01  8.50000000E-01  8.50000000E-01
  8.00000000E-01  8.50000000E-01  8.50000000E-01  8.50000000E-01  8.00000000E-01
  8.50000000E-01  8.50000000E-01  8.50000000E-01  8.00000000E-01  8.50000000E-01
  8.50000000E-01  8.50000000E-01  8.00000000E-01  8.50000000E-01  8.50000000E-01
  8.50000000E-01  8.00000000E-01  8.50000000E-01  8.50000000E-01  8.50000000E-01
  8.00000000E-01  8.50000000E-01  8.50000000E-01  8.50000000E-01  8.00000000E-01
  8.50000000E-01  8.50000000E-01  8.50000000E-01  8.00000000E-01  8.50000000E-01
  8.50000000E-01  8.50000000E-01  8.00000000E-01  8.50000000E-01  8.50000000E-01
  8.50000000E-01  8.00000000E-01  8.50000000E-01  8.50000000E-01  8.50000000E-01
  8.00000000E-01  8.50000000E-01  8.50000000E-01  8.50000000E-01  8.00000000E-01
  8.50000000E-01  8.50000000E-01  8.50000000E-01  8.00000000E-01  8.50000000E-01
  8.50000000E-01  8.50000000E-01  8.00000000E-01  8.50000000E-01  8.50000000E-01
  8.50000000E-01  8.00000000E-01  8.50000000E-01  8.50000000E-01  8.50000000E-01
  8.00000000E-01  8.50000000E-01  8.50000000E-01  8.50000000E-01  8.00000000E-01
  8.50000000E-01  8.50000000E-01  8.50000000E-01  8.00000000E-01  8.50000000E-01
  8.50000000E-01  8.50000000E-01  8.00000000E-01  8.50000000E-01  8.50000000E-01
  8.50000000E-01  8.00000000E-01  8.50000000E-01  8.50000000E-01  8.50000000E-01
  8.00000000E-01  8.50000000E-01  8.50000000E-01  8.50000000E-01  8.00000000E-01
  8.50000000E-01  8.50000000E-01  8.50000000E-01  8.00000000E-01  8.50000000E-01
  8.50000000E-01  8.50000000E-01  8.00000000E-01  8.50000000E-01  8.50000000E-01
  8.50000000E-01  8.00000000E-01  8.50000000E-01  8.50000000E-01  8.50000000E-01
  8.00000000E-01  8.50000000E-01  8.50000000E-01  8.50000000E-01  8.00000000E-01
  8.50000000E-01  8.50000000E-01  8.50000000E-01  8.00000000E-01  8.50000000E-01
  8.50000000E-01  8.50000000E-01  8.00000000E-01  8.50000000E-01  8.50000000E-01
  8.50000000E-01  8.00000000E-01  8.50000000E-01  8.50000000E-01  8.50000000E-01
  8.00000000E-01  8.50000000E-01  8.50000000E-01  8.50000000E-01  8.00000000E-01
  8.50000000E-01  8.50000000E-01  8.50000000E-01  8.00000000E-01  8.50000000E-01
  8.50000000E-01  8.50000000E-01  8.00000000E-01  8.50000000E-01  8.50000000E-01
  8.50000000E-01  8.00000000E-01  8.50000000E-01  8.50000000E-01  8.50000000E-01
  8.00000000E-01  8.50000000E-01  8.50000000E-01  8.50000000E-01  8.00000000E-01
  8.50000000E-01  8.50000000E-01  8.50000000E-01  8.00000000E-01  8.50000000E-01
  8.50000000E-01  8.50000000E-01  8.00000000E-01  8.50000000E-01  8.50000000E-01
  8.50000000E-01  8.00000000E-01  8.50000000E-01  8.50000000E-01  8.50000000E-01
  8.00000000E-01  8.50000000E-01  8.50000000E-01  8.50000000E-01  8.00000000E-01
  8.50000000E-01  8.50000000E-01  8.50000000E-01  8.00000000E-01  8.50000000E-01
  8.50000000E-01  8.50000000E-01  8.00000000E-01  8.50000000E-01  8.50000000E-01
  8.50000000E-01  8.00000000E-01  8.50000000E-01  8.50000000E-01  8.50000000E-01
  8.00000000E-01  8.50000000E-01  8.50000000E-01  8.50000000E-01  8.00000000E-01
  8.50000000E-01  8.50000000E-01  8.50000000E-01  8.00000000E-01  8.50000000E-01
  8.50000000E-01  8.50000000E-01  8.00000000E-01  8.50000000E-01  8.50000000E-01
  8.50000000E-01  8.00000000E-01  8.50000000E-01  8.50000000E-01  8.50000000E-01
  8.00000000E-01  8.50000000E-01  8.50000000E-01  8.50000000E-01  8.00000000E-01
  8.50000000E-01  8.50000000E-01  8.50000000E-01  8.00000000E-01  8.50000000E-01
  8.50000000E-01  8.50000000E-01  8.00000000E-01  8.50000000E-01  8.50000000E-01
  8.50000000E-01  8.00000000E-01  8.50000000E-01  8.50000000E-01  8.50000000E-01
  8.00000000E-01  8.50000000E-01  8.50000000E-01  8.50000000E-01  8.00000000E-01
  8.50000000E-01  8.50000000E-01  8.50000000E-01  8.00000000E-01  8.50000000E-01
  8.50000000E-01  8.50000000E-01  8.00000000E-01  8.50000000E-01  8.50000000E-01
  8.50000000E-01  8.00000000E-01  8.50000000E-01  8.50000000E-01  8.50000000E-01
  8.00000000E-01  8.50000000E-01  8.50000000E-01  8.50000000E-01  8.00000000E-01
  8.50000000E-01  8.50000000E-01  8.50000000E-01  8.00000000E-01  8.50000000E-01
  8.50000000E-01  8.50000000E-01  8.00000000E-01  8.50000000E-01  8.50000000E-01
  8.50000000E-01  8.00000000E-01  8.50000000E-01  8.50000000E-01  8.50000000E-01
  8.00000000E-01  8.50000000E-01  8.50000000E-01  8.50000000E-01  8.00000000E-01
  8.50000000E-01  8.50000000E-01  8.50000000E-01  8.00000000E-01  8.50000000E-01
  8.50000000E-01  8.50000000E-01  8.00000000E-01  8.50000000E-01  8.50000000E-01
  8.50000000E-01  8.00000000E-01  8.50000000E-01  8.50000000E-01  8.50000000E-01
  8.00000000E-01  8.50000000E-01  8.50000000E-01  8.50000000E-01  8.00000000E-01
  8.50000000E-01  8.50000000E-01  8.50000000E-01  8.00000000E-01  8.50000000E-01
  8.50000000E-01  8.50000000E-01  8.00000000E-01  8.50000000E-01  8.50000000E-01
  8.50000000E-01  8.00000000E-01  8.50000000E-01  8.50000000E-01  8.50000000E-01
  8.00000000E-01  8.50000000E-01  8.50000000E-01  8.50000000E-01  8.00000000E-01
  8.50000000E-01  8.50000000E-01  8.50000000E-01  8.00000000E-01  8.50000000E-01
  8.50000000E-01  8.50000000E-01  8.00000000E-01  8.50000000E-01  8.50000000E-01
  8.50000000E-01  8.00000000E-01  8.50000000E-01  8.50000000E-01  8.50000000E-01
  8.00000000E-01  8.50000000E-01  8.50000000E-01  8.50000000E-01  8.00000000E-01
  8.50000000E-01  8.50000000E-01  8.50000000E-01  8.00000000E-01  8.50000000E-01
  8.50000000E-01  8.50000000E-01  8.00000000E-01  8.50000000E-01  8.50000000E-01
  8.50000000E-01  8.00000000E-01  8.50000000E-01  8.50000000E-01  8.50000000E-01
  8.00000000E-01  8.50000000E-01  8.50000000E-01  8.50000000E-01  8.00000000E-01
  8.50000000E-01  8.50000000E-01  8.50000000E-01  8.00000000E-01  8.50000000E-01
  8.50000000E-01  8.50000000E-01  8.00000000E-01  8.50000000E-01  8.50000000E-01
  8.50000000E-01  8.00000000E-01  8.50000000E-01  8.50000000E-01  8.50000000E-01
  8.00000000E-01  8.50000000E-01  8.50000000E-01  8.50000000E-01  8.00000000E-01
  8.50000000E-01  8.50000000E-01  8.50000000E-01  8.00000000E-01  8.50000000E-01
  8.50000000E-01  8.50000000E-01  8.00000000E-01  8.50000000E-01  8.50000000E-01
  8.50000000E-01  8.00000000E-01  8.50000000E-01  8.50000000E-01  8.50000000E-01
  8.00000000E-01  8.50000000E-01  8.50000000E-01  8.50000000E-01  8.00000000E-01
  8.50000000E-01  8.50000000E-01  8.50000000E-01  8.00000000E-01  8.50000000E-01
  8.50000000E-01  8.50000000E-01  8.00000000E-01  8.50000000E-01  8.50000000E-01
  8.50000000E-01  8.00000000E-01  8.50000000E-01  8.50000000E-01  8.50000000E-01
  8.00000000E-01  8.50000000E-01  8.50000000E-01  8.50000000E-01  8.00000000E-01
  8.50000000E-01  8.50000000E-01  8.50000000E-01  8.00000000E-01  8.50000000E-01
  8.50000000E-01  8.50000000E-01  8.00000000E-01  8.50000000E-01  8.50000000E-01
  8.50000000E-01  8.00000000E-01  8.50000000E-01  8.50000000E-01  8.50000000E-01
  8.00000000E-01  8.50000000E-01  8.50000000E-01  8.50000000E-01  8.00000000E-01
  8.50000000E-01  8.50000000E-01  8.50000000E-01  8.00000000E-01  8.50000000E-01
  8.50000000E-01  8.50000000E-01  8.00000000E-01  8.50000000E-01  8.50000000E-01
  8.50000000E-01  8.00000000E-01  8.50000000E-01  8.50000000E-01  8.50000000E-01
  8.00000000E-01  8.50000000E-01  8.50000000E-01  8.50000000E-01  8.00000000E-01
  8.50000000E-01  8.50000000E-01  8.50000000E-01  8.00000000E-01  8.50000000E-01
  8.50000000E-01  8.50000000E-01  8.00000000E-01  8.50000000E-01  8.50000000E-01
  8.50000000E-01  8.00000000E-01  8.50000000E-01  8.50000000E-01  8.50000000E-01
  8.00000000E-01  8.50000000E-01  8.50000000E-01  8.50000000E-01  8.00000000E-01
  8.50000000E-01  8.50000000E-01  8.50000000E-01  8.00000000E-01  8.50000000E-01
  8.50000000E-01  8.50000000E-01  8.00000000E-01  8.50000000E-01  8.50000000E-01
  8.50000000E-01  8.00000000E-01  8.50000000E-01  8.50000000E-01  8.50000000E-01
  8.00000000E-01  8.50000000E-01  8.50000000E-01  8.50000000E-01  8.00000000E-01
  8.50000000E-01  8.50000000E-01  8.50000000E-01  8.00000000E-01  8.50000000E-01
  8.50000000E-01  8.50000000E-01  8.00000000E-01  8.50000000E-01  8.50000000E-01
  8.50000000E-01  8.00000000E-01  8.50000000E-01  8.50000000E-01  8.50000000E-01
  8.00000000E-01  8.50000000E-01  8.50000000E-01  8.50000000E-01  8.00000000E-01
  8.50000000E-01  8.50000000E-01  8.50000000E-01  8.00000000E-01  8.50000000E-01
  8.50000000E-01  8.50000000E-01  8.00000000E-01  8.50000000E-01  8.50000000E-01
  8.50000000E-01  8.00000000E-01  8.50000000E-01  8.50000000E-01  8.50000000E-01
  8.00000000E-01  8.50000000E-01  8.50000000E-01  8.50000000E-01  8.00000000E-01
  8.50000000E-01  8.50000000E-01  8.50000000E-01  8.00000000E-01  8.50000000E-01
  8.50000000E-01  8.50000000E-01  8.00000000E-01  8.50000000E-01  8.50000000E-01
  8.50000000E-01  8.00000000E-01  8.50000000E-01  8.50000000E-01  8.50000000E-01
  8.00000000E-01  8.50000000E-01  8.50000000E-01  8.50000000E-01  8.00000000E-01
  8.50000000E-01  8.50000000E-01  8.50000000E-01  8.00000000E-01  8.50000000E-01
  8.50000000E-01  8.50000000E-01  8.00000000E-01  8.50000000E-01  8.50000000E-01
  8.50000000E-01  8.00000000E-01  8.50000000E-01  8.50000000E-01  8.50000000E-01
  8.00000000E-01  8.50000000E-01  8.50000000E-01  8.50000000E-01  8.00000000E-01
  8.50000000E-01  8.50000000E-01  8.50000000E-01  8.00000000E-01  8.50000000E-01
  8.50000000E-01  8.50000000E-01  8.00000000E-01  8.50000000E-01  8.50000000E-01
  8.50000000E-01  8.00000000E-01  8.50000000E-01  8.50000000E-01  8.50000000E-01
  8.00000000E-01  8.50000000E-01  8.50000000E-01  8.50000000E-01  8.00000000E-01
  8.50000000E-01  8.50000000E-01  8.50000000E-01  8.00000000E-01  8.50000000E-01
  8.50000000E-01  8.50000000E-01  8.00000000E-01  8.50000000E-01  8.50000000E-01
  8.50000000E-01  8.00000000E-01  8.50000000E-01  8.50000000E-01  8.50000000E-01
  8.00000000E-01  8.50000000E-01  8.50000000E-01  8.50000000E-01  8.00000000E-01
  8.50000000E-01  8.50000000E-01  8.50000000E-01  8.00000000E-01  8.50000000E-01
  8.50000000E-01  8.50000000E-01  8.00000000E-01  8.50000000E-01  8.50000000E-01
  8.50000000E-01  8.00000000E-01  8.50000000E-01  8.50000000E-01  8.50000000E-01
  8.00000000E-01  8.50000000E-01  8.50000000E-01  8.50000000E-01  8.00000000E-01
  8.50000000E-01  8.50000000E-01  8.50000000E-01  8.00000000E-01  8.50000000E-01
  8.50000000E-01  8.50000000E-01  8.00000000E-01  8.50000000E-01  8.50000000E-01
  8.50000000E-01  8.00000000E-01  8.50000000E-01  8.50000000E-01  8.50000000E-01
  8.00000000E-01  8.50000000E-01  8.50000000E-01  8.50000000E-01  8.00000000E-01
  8.50000000E-01  8.50000000E-01  8.50000000E-01  8.00000000E-01  8.50000000E-01
  8.50000000E-01  8.50000000E-01  8.00000000E-01  8.50000000E-01  8.50000000E-01
  8.50000000E-01  8.00000000E-01  8.50000000E-01  8.50000000E-01  8.50000000E-01
  8.00000000E-01  8.50000000E-01  8.50000000E-01  8.50000000E-01  8.00000000E-01
  8.50000000E-01  8.50000000E-01  8.50000000E-01  8.00000000E-01  8.50000000E-01
  8.50000000E-01  8.50000000E-01  8.00000000E-01  8.50000000E-01  8.50000000E-01
  8.50000000E-01  8.00000000E-01  8.50000000E-01  8.50000000E-01  8.50000000E-01
  8.00000000E-01  8.50000000E-01  8.50000000E-01  8.50000000E-01  8.00000000E-01
  8.50000000E-01  8.50000000E-01  8.50000000E-01  8.00000000E-01  8.50000000E-01
  8.50000000E-01  8.50000000E-01  8.00000000E-01  8.50000000E-01  8.50000000E-01
  8.50000000E-01  8.00000000E-01  8.50000000E-01  8.50000000E-01  8.50000000E-01
  8.00000000E-01  8.50000000E-01  8.50000000E-01  8.50000000E-01  8.00000000E-01
  8.50000000E-01  8.50000000E-01  8.50000000E-01  8.00000000E-01  8.50000000E-01
  8.50000000E-01  8.50000000E-01  8.00000000E-01  8.50000000E-01  8.50000000E-01
  8.50000000E-01  8.00000000E-01  8.50000000E-01  8.50000000E-01  8.50000000E-01
  8.00000000E-01  8.50000000E-01  8.50000000E-01  8.50000000E-01  8.00000000E-01
  8.50000000E-01  8.50000000E-01  8.50000000E-01  8.00000000E-01  8.50000000E-01
  8.50000000E-01  8.50000000E-01  8.00000000E-01  8.50000000E-01  8.50000000E-01
  8.50000000E-01  8.00000000E-01  8.50000000E-01  8.50000000E-01  8.50000000E-01
  8.00000000E-01  8.50000000E-01  8.50000000E-01  8.50000000E-01  8.00000000E-01
  8.50000000E-01  8.50000000E-01  8.50000000E-01  8.00000000E-01  8.50000000E-01
  8.50000000E-01  8.50000000E-01  8.00000000E-01  8.50000000E-01  8.50000000E-01
  8.50000000E-01  8.00000000E-01  8.50000000E-01  8.50000000E-01  8.50000000E-01
  8.00000000E-01  8.50000000E-01  8.50000000E-01  8.50000000E-01  8.00000000E-01
  8.50000000E-01  8.50000000E-01  8.50000000E-01  8.00000000E-01  8.50000000E-01
  8.50000000E-01  8.50000000E-01  8.00000000E-01  8.50000000E-01  8.50000000E-01
  8.50000000E-01  8.00000000E-01  8.50000000E-01  8.50000000E-01  8.50000000E-01
  8.00000000E-01  8.50000000E-01  8.50000000E-01  8.50000000E-01  8.00000000E-01
  8.50000000E-01  8.50000000E-01  8.50000000E-01  8.00000000E-01  8.50000000E-01
  8.50000000E-01  8.50000000E-01  8.00000000E-01  8.50000000E-01  8.50000000E-01
  8.50000000E-01  8.00000000E-01  8.50000000E-01  8.50000000E-01  8.50000000E-01
  8.00000000E-01  8.50000000E-01  8.50000000E-01  8.50000000E-01  8.00000000E-01
  8.50000000E-01  8.50000000E-01  8.50000000E-01  8.00000000E-01  8.50000000E-01
  8.50000000E-01  8.50000000E-01  8.00000000E-01  8.50000000E-01  8.50000000E-01
  8.50000000E-01  8.00000000E-01  8.50000000E-01  8.50000000E-01  8.50000000E-01
  8.00000000E-01  8.50000000E-01  8.50000000E-01  8.50000000E-01  8.00000000E-01
  8.50000000E-01  8.50000000E-01  8.50000000E-01  8.00000000E-01  8.50000000E-01
  8.50000000E-01  8.50000000E-01  8.00000000E-01  8.50000000E-01  8.50000000E-01
  8.50000000E-01  8.00000000E-01  8.50000000E-01  8.50000000E-01  8.50000000E-01
  8.00000000E-01  8.50000000E-01  8.50000000E-01  8.50000000E-01  8.00000000E-01
  8.50000000E-01  8.50000000E-01  8.50000000E-01  8.00000000E-01  8.50000000E-01
  8.50000000E-01  8.50000000E-01  8.00000000E-01  8.50000000E-01  8.50000000E-01
  8.50000000E-01  8.00000000E-01  8.50000000E-01  8.50000000E-01  8.50000000E-01
  8.00000000E-01  8.50000000E-01  8.50000000E-01  8.50000000E-01  8.00000000E-01
  8.50000000E-01  8.50000000E-01  8.50000000E-01  8.00000000E-01  8.50000000E-01
  8.50000000E-01  8.50000000E-01  8.00000000E-01  8.50000000E-01  8.50000000E-01
  8.50000000E-01  8.00000000E-01  8.50000000E-01  8.50000000E-01  8.50000000E-01
  8.00000000E-01  8.50000000E-01  8.50000000E-01  8.50000000E-01  8.00000000E-01
  8.50000000E-01  8.50000000E-01  8.50000000E-01  8.00000000E-01  8.50000000E-01
  8.50000000E-01  8.50000000E-01  8.00000000E-01  8.50000000E-01  8.50000000E-01
  8.50000000E-01  8.00000000E-01  8.50000000E-01  8.50000000E-01  8.50000000E-01
  8.00000000E-01  8.50000000E-01  8.50000000E-01  8.50000000E-01  8.00000000E-01
  8.50000000E-01  8.50000000E-01  8.50000000E-01  8.00000000E-01  8.50000000E-01
  8.50000000E-01  8.50000000E-01  8.00000000E-01  8.50000000E-01  8.50000000E-01
  8.50000000E-01  8.00000000E-01  8.50000000E-01  8.50000000E-01  8.50000000E-01
  8.00000000E-01  8.50000000E-01  8.50000000E-01  8.50000000E-01  8.00000000E-01
  8.50000000E-01  8.50000000E-01  8.50000000E-01  8.00000000E-01  8.50000000E-01
  8.50000000E-01  8.50000000E-01  8.00000000E-01  8.50000000E-01  8.50000000E-01
  8.50000000E-01  8.00000000E-01  8.50000000E-01  8.50000000E-01  8.50000000E-01
  8.00000000E-01  8.50000000E-01  8.50000000E-01  8.50000000E-01  8.00000000E-01
  8.50000000E-01  8.50000000E-01  8.50000000E-01  8.00000000E-01  8.50000000E-01
  8.50000000E-01  8.50000000E-01  8.00000000E-01  8.50000000E-01  8.50000000E-01
  8.50000000E-01  8.00000000E-01  8.50000000E-01  8.50000000E-01  8.50000000E-01
  8.00000000E-01  8.50000000E-01  8.50000000E-01  8.50000000E-01  8.00000000E-01
  8.50000000E-01  8.50000000E-01  8.50000000E-01  8.00000000E-01  8.50000000E-01
  8.50000000E-01  8.50000000E-01  8.00000000E-01  8.50000000E-01  8.50000000E-01
  8.50000000E-01  8.00000000E-01  8.50000000E-01  8.50000000E-01  8.50000000E-01
  8.00000000E-01  8.50000000E-01  8.50000000E-01  8.50000000E-01  8.00000000E-01
  8.50000000E-01  8.50000000E-01  8.50000000E-01  8.00000000E-01  8.50000000E-01
  8.50000000E-01  8.50000000E-01  8.00000000E-01  8.50000000E-01  8.50000000E-01
  8.50000000E-01  8.00000000E-01  8.50000000E-01  8.50000000E-01  8.50000000E-01
  8.00000000E-01  8.50000000E-01  8.50000000E-01  8.50000000E-01  8.00000000E-01
  8.50000000E-01  8.50000000E-01  8.50000000E-01  8.00000000E-01  8.50000000E-01
  8.50000000E-01  8.50000000E-01  8.00000000E-01  8.50000000E-01  8.50000000E-01
  8.50000000E-01  8.00000000E-01  8.50000000E-01  8.50000000E-01  8.50000000E-01
  8.00000000E-01  8.50000000E-01  8.50000000E-01  8.50000000E-01  8.00000000E-01
  8.50000000E-01  8.50000000E-01  8.50000000E-01  8.00000000E-01  8.50000000E-01
  8.50000000E-01  8.50000000E-01  8.00000000E-01  8.50000000E-01  8.50000000E-01
  8.50000000E-01  8.00000000E-01  8.50000000E-01  8.50000000E-01  8.50000000E-01
  8.00000000E-01  8.50000000E-01  8.50000000E-01  8.50000000E-01  8.00000000E-01
  8.50000000E-01  8.50000000E-01  8.50000000E-01  8.00000000E-01  8.50000000E-01
  8.50000000E-01  8.50000000E-01  8.00000000E-01  8.50000000E-01  8.50000000E-01
  8.50000000E-01  8.00000000E-01  8.50000000E-01  8.50000000E-01  8.50000000E-01
  8.00000000E-01  8.50000000E-01  8.50000000E-01  8.50000000E-01  8.00000000E-01
  8.50000000E-01  8.50000000E-01  8.50000000E-01  8.00000000E-01  8.50000000E-01
  8.50000000E-01  8.50000000E-01  8.00000000E-01  8.50000000E-01  8.50000000E-01
  8.50000000E-01  8.00000000E-01  8.50000000E-01  8.50000000E-01  8.50000000E-01
  8.00000000E-01  8.50000000E-01  8.50000000E-01  8.50000000E-01  8.00000000E-01
  8.50000000E-01  8.50000000E-01  8.50000000E-01  8.00000000E-01  8.50000000E-01
  8.50000000E-01  8.50000000E-01  8.00000000E-01  8.50000000E-01  8.50000000E-01
  8.50000000E-01  8.00000000E-01  8.50000000E-01  8.50000000E-01  8.50000000E-01
  8.00000000E-01  8.50000000E-01  8.50000000E-01  8.50000000E-01  8.00000000E-01
  8.50000000E-01  8.50000000E-01  8.50000000E-01  8.00000000E-01  8.50000000E-01
  8.50000000E-01  8.50000000E-01  8.00000000E-01  8.50000000E-01  8.50000000E-01
  8.50000000E-01  8.00000000E-01  8.50000000E-01  8.50000000E-01  8.50000000E-01
  8.00000000E-01  8.50000000E-01  8.50000000E-01  8.50000000E-01  8.00000000E-01
  8.50000000E-01  8.50000000E-01  8.50000000E-01  8.00000000E-01  8.50000000E-01
  8.50000000E-01  8.50000000E-01  8.00000000E-01  8.50000000E-01  8.50000000E-01
  8.50000000E-01  8.00000000E-01  8.50000000E-01  8.50000000E-01  8.50000000E-01
  8.00000000E-01  8.50000000E-01  8.50000000E-01  8.50000000E-01  8.00000000E-01
  8.50000000E-01  8.50000000E-01  8.50000000E-01  8.00000000E-01  8.50000000E-01
  8.50000000E-01  8.50000000E-01  8.00000000E-01  8.50000000E-01  8.50000000E-01
  8.50000000E-01  8.00000000E-01  8.50000000E-01  8.50000000E-01  8.50000000E-01
  8.00000000E-01  8.50000000E-01  8.50000000E-01  8.50000000E-01  8.00000000E-01
  8.50000000E-01  8.50000000E-01  8.50000000E-01  8.00000000E-01  8.50000000E-01
  8.50000000E-01  8.50000000E-01  8.00000000E-01  8.50000000E-01  8.50000000E-01
  8.50000000E-01  8.00000000E-01  8.50000000E-01  8.50000000E-01  8.50000000E-01
  8.00000000E-01  8.50000000E-01  8.50000000E-01  8.50000000E-01  8.00000000E-01
  8.50000000E-01  8.50000000E-01  8.50000000E-01  8.00000000E-01  8.50000000E-01
  8.50000000E-01  8.50000000E-01  8.00000000E-01  8.50000000E-01  8.50000000E-01
  8.50000000E-01  8.00000000E-01  8.50000000E-01  8.50000000E-01  8.50000000E-01
  8.00000000E-01  8.50000000E-01  8.50000000E-01  8.50000000E-01  8.00000000E-01
  8.50000000E-01  8.50000000E-01  8.50000000E-01  8.00000000E-01  8.50000000E-01
  8.50000000E-01  8.50000000E-01  8.00000000E-01  8.50000000E-01  8.50000000E-01
  8.50000000E-01  8.00000000E-01  8.50000000E-01  8.50000000E-01  8.50000000E-01
  8.00000000E-01  8.50000000E-01  8.50000000E-01  8.50000000E-01  8.00000000E-01
  8.50000000E-01  8.50000000E-01  8.50000000E-01  8.00000000E-01  8.50000000E-01
  8.50000000E-01  8.50000000E-01  8.00000000E-01  8.50000000E-01  8.50000000E-01
  8.50000000E-01  8.00000000E-01  8.50000000E-01  8.50000000E-01  8.50000000E-01
  8.00000000E-01  8.50000000E-01  8.50000000E-01  8.50000000E-01  8.00000000E-01
  8.50000000E-01  8.50000000E-01  8.50000000E-01  8.00000000E-01  8.50000000E-01
  8.50000000E-01  8.50000000E-01  8.00000000E-01  8.50000000E-01  8.50000000E-01
  8.50000000E-01  8.00000000E-01  8.50000000E-01  8.50000000E-01  8.50000000E-01
  8.00000000E-01  8.50000000E-01  8.50000000E-01  8.50000000E-01  8.00000000E-01
  8.50000000E-01  8.50000000E-01  8.50000000E-01  8.00000000E-01  8.50000000E-01
  8.50000000E-01  8.50000000E-01  8.00000000E-01  8.50000000E-01  8.50000000E-01
  8.50000000E-01  8.00000000E-01  8.50000000E-01  8.50000000E-01  8.50000000E-01
  8.00000000E-01  8.50000000E-01  8.50000000E-01  8.50000000E-01  8.00000000E-01
  8.50000000E-01  8.50000000E-01  8.50000000E-01  8.00000000E-01  8.50000000E-01
  8.50000000E-01  8.50000000E-01  8.00000000E-01  8.50000000E-01  8.50000000E-01
  8.50000000E-01  8.00000000E-01  8.50000000E-01  8.50000000E-01  8.50000000E-01
  8.00000000E-01  8.50000000E-01  8.50000000E-01  8.50000000E-01  8.00000000E-01
  8.50000000E-01  8.50000000E-01  8.50000000E-01  8.00000000E-01  8.50000000E-01
  8.50000000E-01  8.50000000E-01  8.00000000E-01  8.50000000E-01  8.50000000E-01
  8.50000000E-01  8.00000000E-01  8.50000000E-01  8.50000000E-01  8.50000000E-01
  8.00000000E-01  8.50000000E-01  8.50000000E-01  8.50000000E-01  8.00000000E-01
  8.50000000E-01  8.50000000E-01  8.50000000E-01  8.00000000E-01  8.50000000E-01
  8.50000000E-01  8.50000000E-01  8.00000000E-01  8.50000000E-01  8.50000000E-01
  8.50000000E-01  8.00000000E-01  8.50000000E-01  8.50000000E-01  8.50000000E-01
  8.00000000E-01  8.50000000E-01  8.50000000E-01  8.50000000E-01  8.00000000E-01
  8.50000000E-01  8.50000000E-01  8.50000000E-01  8.00000000E-01  8.50000000E-01
  8.50000000E-01  8.50000000E-01  8.00000000E-01  8.50000000E-01  8.50000000E-01
  8.50000000E-01  8.00000000E-01  8.50000000E-01  8.50000000E-01  8.50000000E-01
  8.00000000E-01  8.50000000E-01  8.50000000E-01  8.50000000E-01  8.00000000E-01
  8.50000000E-01  8.50000000E-01  8.50000000E-01  8.00000000E-01  8.50000000E-01
  8.50000000E-01  8.50000000E-01  8.00000000E-01  8.50000000E-01  8.50000000E-01
  8.50000000E-01  8.00000000E-01  8.50000000E-01  8.50000000E-01  8.50000000E-01
  8.00000000E-01  8.50000000E-01  8.50000000E-01  8.50000000E-01  8.00000000E-01
  8.50000000E-01  8.50000000E-01  8.50000000E-01  8.00000000E-01  8.50000000E-01
  8.50000000E-01  8.50000000E-01  8.00000000E-01  8.50000000E-01  8.50000000E-01
  8.50000000E-01  8.00000000E-01  8.50000000E-01  8.50000000E-01  8.50000000E-01
  8.00000000E-01  8.50000000E-01  8.50000000E-01  8.50000000E-01  8.00000000E-01
  8.50000000E-01  8.50000000E-01  8.50000000E-01  8.00000000E-01  8.50000000E-01
  8.50000000E-01  8.50000000E-01  8.00000000E-01  8.50000000E-01  8.50000000E-01
  8.50000000E-01  8.00000000E-01  8.50000000E-01  8.50000000E-01  8.50000000E-01
  8.00000000E-01  8.50000000E-01  8.50000000E-01  8.50000000E-01  8.00000000E-01
  8.50000000E-01  8.50000000E-01  8.50000000E-01  8.00000000E-01  8.50000000E-01
  8.50000000E-01  8.50000000E-01  8.00000000E-01  8.50000000E-01  8.50000000E-01
  8.50000000E-01  8.00000000E-01  8.50000000E-01  8.50000000E-01  8.50000000E-01
  8.00000000E-01  8.50000000E-01  8.50000000E-01  8.50000000E-01  8.00000000E-01
  8.50000000E-01  8.50000000E-01  8.50000000E-01  8.00000000E-01  8.50000000E-01
  8.50000000E-01  8.50000000E-01  8.00000000E-01  8.50000000E-01  8.50000000E-01
  8.50000000E-01  8.00000000E-01  8.50000000E-01  8.50000000E-01  8.50000000E-01
  8.00000000E-01  8.50000000E-01  8.50000000E-01  8.50000000E-01  8.00000000E-01
  8.50000000E-01  8.50000000E-01  8.50000000E-01  8.00000000E-01  8.50000000E-01
  8.50000000E-01  8.50000000E-01  8.00000000E-01  8.50000000E-01  8.50000000E-01
  8.50000000E-01  8.00000000E-01  8.50000000E-01  8.50000000E-01  8.50000000E-01
  8.00000000E-01  8.50000000E-01  8.50000000E-01  8.50000000E-01  8.00000000E-01
  8.50000000E-01  8.50000000E-01  8.50000000E-01  8.00000000E-01  8.50000000E-01
  8.50000000E-01  8.50000000E-01  8.00000000E-01  8.50000000E-01  8.50000000E-01
  8.50000000E-01  8.00000000E-01  8.50000000E-01  8.50000000E-01  8.50000000E-01
  8.00000000E-01  8.50000000E-01  8.50000000E-01  8.50000000E-01  8.00000000E-01
  8.50000000E-01  8.50000000E-01  8.50000000E-01  8.00000000E-01  8.50000000E-01
  8.50000000E-01  8.50000000E-01  8.00000000E-01  8.50000000E-01  8.50000000E-01
  8.50000000E-01  8.00000000E-01  8.50000000E-01  8.50000000E-01  8.50000000E-01
  8.00000000E-01  8.50000000E-01  8.50000000E-01  8.50000000E-01  8.00000000E-01
  8.50000000E-01  8.50000000E-01  8.50000000E-01  8.00000000E-01  8.50000000E-01
  8.50000000E-01  8.50000000E-01  8.00000000E-01  8.50000000E-01  8.50000000E-01
  8.50000000E-01  8.00000000E-01  8.50000000E-01  8.50000000E-01  8.50000000E-01
  8.00000000E-01  8.50000000E-01  8.50000000E-01  8.50000000E-01  8.00000000E-01
  8.50000000E-01  8.50000000E-01  8.50000000E-01  8.00000000E-01  8.50000000E-01
  8.50000000E-01  8.50000000E-01  8.00000000E-01  8.50000000E-01  8.50000000E-01
  8.50000000E-01  8.00000000E-01  8.50000000E-01  8.50000000E-01  8.50000000E-01
  8.00000000E-01  8.50000000E-01  8.50000000E-01  8.50000000E-01  8.00000000E-01
  8.50000000E-01  8.50000000E-01  8.50000000E-01  8.00000000E-01  8.50000000E-01
  8.50000000E-01  8.50000000E-01  8.00000000E-01  8.50000000E-01  8.50000000E-01
  8.50000000E-01  8.00000000E-01  8.50000000E-01  8.50000000E-01  8.50000000E-01
  8.00000000E-01  8.50000000E-01  8.50000000E-01  8.50000000E-01  8.00000000E-01
  8.50000000E-01  8.50000000E-01  8.50000000E-01  8.00000000E-01  8.50000000E-01
  8.50000000E-01  8.50000000E-01  8.00000000E-01  8.50000000E-01  8.50000000E-01
  8.50000000E-01  8.00000000E-01  8.50000000E-01  8.50000000E-01  8.50000000E-01
  8.00000000E-01  8.50000000E-01  8.50000000E-01  8.50000000E-01  8.00000000E-01
  8.50000000E-01  8.50000000E-01  8.50000000E-01  8.00000000E-01  8.50000000E-01
  8.50000000E-01  8.50000000E-01  8.00000000E-01  8.50000000E-01  8.50000000E-01
  8.50000000E-01  8.00000000E-01  8.50000000E-01  8.50000000E-01  8.50000000E-01
  8.00000000E-01  8.50000000E-01  8.50000000E-01  8.50000000E-01  8.00000000E-01
  8.50000000E-01  8.50000000E-01  8.50000000E-01  8.00000000E-01  8.50000000E-01
  8.50000000E-01  8.50000000E-01  8.00000000E-01  8.50000000E-01  8.50000000E-01
  8.50000000E-01  8.00000000E-01  8.50000000E-01  8.50000000E-01  8.50000000E-01
  8.00000000E-01  8.50000000E-01  8.50000000E-01  8.50000000E-01  8.00000000E-01
  8.50000000E-01  8.50000000E-01  8.50000000E-01  8.00000000E-01  8.50000000E-01
  8.50000000E-01  8.50000000E-01  8.00000000E-01  8.50000000E-01  8.50000000E-01
  8.50000000E-01  8.00000000E-01  8.50000000E-01  8.50000000E-01  8.50000000E-01
  8.00000000E-01  8.50000000E-01  8.50000000E-01  8.50000000E-01  8.00000000E-01
  8.50000000E-01  8.50000000E-01  8.50000000E-01  8.00000000E-01  8.50000000E-01
  8.50000000E-01  8.50000000E-01  8.00000000E-01  8.50000000E-01  8.50000000E-01
  8.50000000E-01  8.00000000E-01  8.50000000E-01  8.50000000E-01  8.50000000E-01
  8.00000000E-01  8.50000000E-01  8.50000000E-01  8.50000000E-01  8.00000000E-01
  8.50000000E-01  8.50000000E-01  8.50000000E-01  8.00000000E-01  8.50000000E-01
  8.50000000E-01  8.50000000E-01  8.00000000E-01  8.50000000E-01  8.50000000E-01
  8.50000000E-01  8.00000000E-01  8.50000000E-01  8.50000000E-01  8.50000000E-01
  8.00000000E-01  8.50000000E-01  8.50000000E-01  8.50000000E-01  8.00000000E-01
  8.50000000E-01  8.50000000E-01  8.50000000E-01  8.00000000E-01  8.50000000E-01
  8.50000000E-01  8.50000000E-01  8.00000000E-01  8.50000000E-01  8.50000000E-01
  8.50000000E-01  8.00000000E-01  8.50000000E-01  8.50000000E-01  8.50000000E-01
  8.00000000E-01  8.50000000E-01  8.50000000E-01  8.50000000E-01  8.00000000E-01
  8.50000000E-01  8.50000000E-01  8.50000000E-01  8.00000000E-01  8.50000000E-01
  8.50000000E-01  8.50000000E-01  8.00000000E-01  8.50000000E-01  8.50000000E-01
  8.50000000E-01  8.00000000E-01  8.50000000E-01  8.50000000E-01  8.50000000E-01
  8.00000000E-01  8.50000000E-01  8.50000000E-01  8.50000000E-01  8.00000000E-01
  8.50000000E-01  8.50000000E-01  8.50000000E-01  8.00000000E-01  8.50000000E-01
  8.50000000E-01  8.50000000E-01  8.00000000E-01  8.50000000E-01  8.50000000E-01
  8.50000000E-01  8.00000000E-01  8.50000000E-01  8.50000000E-01  8.50000000E-01
  8.00000000E-01  8.50000000E-01  8.50000000E-01  8.50000000E-01  8.00000000E-01
  8.50000000E-01  8.50000000E-01  8.50000000E-01  8.00000000E-01  8.50000000E-01
  8.50000000E-01  8.50000000E-01  8.00000000E-01  8.50000000E-01  8.50000000E-01
  8.50000000E-01  8.00000000E-01  8.50000000E-01  8.50000000E-01  8.50000000E-01
  8.00000000E-01  8.50000000E-01  8.50000000E-01  8.50000000E-01  8.00000000E-01
  8.50000000E-01  8.50000000E-01  8.50000000E-01  8.00000000E-01  8.50000000E-01
  8.50000000E-01  8.50000000E-01  8.00000000E-01  8.50000000E-01  8.50000000E-01
  8.50000000E-01  8.00000000E-01  8.50000000E-01  8.50000000E-01  8.50000000E-01
  8.00000000E-01  8.50000000E-01  8.50000000E-01  8.50000000E-01  8.00000000E-01
  8.50000000E-01  8.50000000E-01  8.50000000E-01  8.00000000E-01  8.50000000E-01
  8.50000000E-01  8.50000000E-01  8.00000000E-01  8.50000000E-01  8.50000000E-01
  8.50000000E-01  8.00000000E-01  8.50000000E-01  8.50000000E-01  8.50000000E-01
  8.00000000E-01  8.50000000E-01  8.50000000E-01  8.50000000E-01  8.00000000E-01
  8.50000000E-01  8.50000000E-01  8.50000000E-01  8.00000000E-01  8.50000000E-01
  8.50000000E-01  8.50000000E-01  8.00000000E-01  8.50000000E-01  8.50000000E-01
  8.50000000E-01  8.00000000E-01  8.50000000E-01  8.50000000E-01  8.50000000E-01
  8.00000000E-01  8.50000000E-01  8.50000000E-01  8.50000000E-01  8.00000000E-01
  8.50000000E-01  8.50000000E-01  8.50000000E-01  8.00000000E-01  8.50000000E-01
  8.50000000E-01  8.50000000E-01  8.00000000E-01  8.50000000E-01  8.50000000E-01
  8.50000000E-01  8.00000000E-01  8.50000000E-01  8.50000000E-01  8.50000000E-01
  8.00000000E-01  8.50000000E-01  8.50000000E-01  8.50000000E-01  8.00000000E-01
  8.50000000E-01  8.50000000E-01  8.50000000E-01  8.00000000E-01  8.50000000E-01
  8.50000000E-01  8.50000000E-01  8.00000000E-01  8.50000000E-01  8.50000000E-01
  8.50000000E-01  8.00000000E-01  8.50000000E-01  8.50000000E-01  8.50000000E-01
  8.00000000E-01  8.50000000E-01  8.50000000E-01  8.50000000E-01  8.00000000E-01
  8.50000000E-01  8.50000000E-01  8.50000000E-01  8.00000000E-01  8.50000000E-01
  8.50000000E-01  8.50000000E-01  8.00000000E-01  8.50000000E-01  8.50000000E-01
  8.50000000E-01  8.00000000E-01  8.50000000E-01  8.50000000E-01  8.50000000E-01
  8.00000000E-01  8.50000000E-01  8.50000000E-01  8.50000000E-01  8.00000000E-01
  8.50000000E-01  8.50000000E-01  8.50000000E-01  8.00000000E-01  8.50000000E-01
  8.50000000E-01  8.50000000E-01  8.00000000E-01  8.50000000E-01  8.50000000E-01
  8.50000000E-01  8.00000000E-01  8.50000000E-01  8.50000000E-01  8.50000000E-01
  8.00000000E-01  8.50000000E-01  8.50000000E-01  8.50000000E-01  8.00000000E-01
  8.50000000E-01  8.50000000E-01  8.50000000E-01  8.00000000E-01  8.50000000E-01
  8.50000000E-01  8.50000000E-01  8.00000000E-01  8.50000000E-01  8.50000000E-01
  8.50000000E-01  8.00000000E-01  8.50000000E-01  8.50000000E-01  8.50000000E-01
  8.00000000E-01  8.50000000E-01  8.50000000E-01  8.50000000E-01  8.00000000E-01
  8.50000000E-01  8.50000000E-01  8.50000000E-01  8.00000000E-01  8.50000000E-01
  8.50000000E-01  8.50000000E-01  8.00000000E-01  8.50000000E-01  8.50000000E-01
  8.50000000E-01  8.00000000E-01  8.50000000E-01  8.50000000E-01  8.50000000E-01
  8.00000000E-01  8.50000000E-01  8.50000000E-01  8.50000000E-01  8.00000000E-01
  8.50000000E-01  8.50000000E-01  8.50000000E-01  8.00000000E-01  8.50000000E-01
  8.50000000E-01  8.50000000E-01  8.00000000E-01  8.50000000E-01  8.50000000E-01
  8.50000000E-01  8.00000000E-01  8.50000000E-01  8.50000000E-01  8.50000000E-01
  8.00000000E-01  8.50000000E-01  8.50000000E-01  8.50000000E-01  8.00000000E-01
  8.50000000E-01  8.50000000E-01  8.50000000E-01  8.00000000E-01  8.50000000E-01
  8.50000000E-01  8.50000000E-01  8.00000000E-01  8.50000000E-01  8.50000000E-01
  8.50000000E-01  8.00000000E-01  8.50000000E-01  8.50000000E-01  8.50000000E-01
  8.00000000E-01  8.50000000E-01  8.50000000E-01  8.50000000E-01  8.00000000E-01
  8.50000000E-01  8.50000000E-01  8.50000000E-01  8.00000000E-01  8.50000000E-01
  8.50000000E-01  8.50000000E-01  8.00000000E-01  8.50000000E-01  8.50000000E-01
  8.50000000E-01  8.00000000E-01  8.50000000E-01  8.50000000E-01  8.50000000E-01
  8.00000000E-01  8.50000000E-01  8.50000000E-01  8.50000000E-01  8.00000000E-01
  8.50000000E-01  8.50000000E-01  8.50000000E-01  8.00000000E-01  8.50000000E-01
  8.50000000E-01  8.50000000E-01  8.00000000E-01  8.50000000E-01  8.50000000E-01
  8.50000000E-01  8.00000000E-01  8.50000000E-01  8.50000000E-01  8.50000000E-01
  8.00000000E-01  8.50000000E-01  8.50000000E-01  8.50000000E-01  8.00000000E-01
  8.50000000E-01  8.50000000E-01  8.50000000E-01  8.00000000E-01  8.50000000E-01
  8.50000000E-01  8.50000000E-01  8.00000000E-01  8.50000000E-01  8.50000000E-01
  8.50000000E-01  8.00000000E-01  8.50000000E-01  8.50000000E-01  8.50000000E-01
  8.00000000E-01  8.50000000E-01  8.50000000E-01  8.50000000E-01  8.00000000E-01
  8.50000000E-01  8.50000000E-01  8.50000000E-01  8.00000000E-01  8.50000000E-01
  8.50000000E-01  8.50000000E-01  8.00000000E-01  8.50000000E-01  8.50000000E-01
  8.50000000E-01  8.00000000E-01  8.50000000E-01  8.50000000E-01  8.50000000E-01
  8.00000000E-01  8.50000000E-01  8.50000000E-01  8.50000000E-01  8.00000000E-01
  8.50000000E-01  8.50000000E-01  8.50000000E-01  8.00000000E-01  8.50000000E-01
  8.50000000E-01  8.50000000E-01  8.00000000E-01  8.50000000E-01  8.50000000E-01
  8.50000000E-01  8.00000000E-01  8.50000000E-01  8.50000000E-01  8.50000000E-01
  8.00000000E-01  8.50000000E-01  8.50000000E-01  8.50000000E-01  8.00000000E-01
  8.50000000E-01  8.50000000E-01  8.50000000E-01  8.00000000E-01  8.50000000E-01
  8.50000000E-01  8.50000000E-01  8.00000000E-01  8.50000000E-01  8.50000000E-01
  8.50000000E-01  8.00000000E-01  8.50000000E-01  8.50000000E-01  8.50000000E-01
  8.00000000E-01  8.50000000E-01  8.50000000E-01  8.50000000E-01  8.00000000E-01
  8.50000000E-01  8.50000000E-01  8.50000000E-01  8.00000000E-01  8.50000000E-01
  8.50000000E-01  8.50000000E-01  8.00000000E-01  8.50000000E-01  8.50000000E-01
  8.50000000E-01  8.00000000E-01  8.50000000E-01  8.50000000E-01  8.50000000E-01
  8.00000000E-01  8.50000000E-01  8.50000000E-01  8.50000000E-01  8.00000000E-01
  8.50000000E-01  8.50000000E-01  8.50000000E-01  8.00000000E-01  8.50000000E-01
  8.50000000E-01  8.50000000E-01  8.00000000E-01  8.50000000E-01  8.50000000E-01
  8.50000000E-01  8.00000000E-01  8.50000000E-01  8.50000000E-01  8.50000000E-01
  8.00000000E-01  8.50000000E-01  8.50000000E-01  8.50000000E-01  8.00000000E-01
  8.50000000E-01  8.50000000E-01  8.50000000E-01  8.00000000E-01  8.50000000E-01
  8.50000000E-01  8.50000000E-01  8.00000000E-01  8.50000000E-01  8.50000000E-01
  8.50000000E-01  8.00000000E-01  8.50000000E-01  8.50000000E-01  8.50000000E-01
  8.00000000E-01  8.50000000E-01  8.50000000E-01  8.50000000E-01  8.00000000E-01
  8.50000000E-01  8.50000000E-01  8.50000000E-01  8.00000000E-01  8.50000000E-01
  8.50000000E-01  8.50000000E-01  8.00000000E-01  8.50000000E-01  8.50000000E-01
  8.50000000E-01  8.00000000E-01  8.50000000E-01  8.50000000E-01  8.50000000E-01
  8.00000000E-01  8.50000000E-01  8.50000000E-01  8.50000000E-01  8.00000000E-01
  8.50000000E-01  8.50000000E-01  8.50000000E-01  8.00000000E-01  8.50000000E-01
  8.50000000E-01  8.50000000E-01  8.00000000E-01  8.50000000E-01  8.50000000E-01
  8.50000000E-01  8.00000000E-01  8.50000000E-01  8.50000000E-01  8.50000000E-01
  8.00000000E-01  8.50000000E-01  8.50000000E-01  8.50000000E-01  8.00000000E-01
  8.50000000E-01  8.50000000E-01  8.50000000E-01  8.00000000E-01  8.50000000E-01
  8.50000000E-01  8.50000000E-01  8.00000000E-01  8.50000000E-01  8.50000000E-01
  8.50000000E-01  8.00000000E-01  8.50000000E-01  8.50000000E-01  8.50000000E-01
  8.00000000E-01  8.50000000E-01  8.50000000E-01  8.50000000E-01  8.00000000E-01
  8.50000000E-01  8.50000000E-01  8.50000000E-01  8.00000000E-01  8.50000000E-01
  8.50000000E-01  8.50000000E-01  8.00000000E-01  8.50000000E-01  8.50000000E-01
  8.50000000E-01  8.00000000E-01  8.50000000E-01  8.50000000E-01  8.50000000E-01
  8.00000000E-01  8.50000000E-01  8.50000000E-01  8.50000000E-01  8.00000000E-01
  8.50000000E-01  8.50000000E-01  8.50000000E-01  8.00000000E-01  8.50000000E-01
  8.50000000E-01  8.50000000E-01  8.00000000E-01  8.50000000E-01  8.50000000E-01
  8.50000000E-01  8.00000000E-01  8.50000000E-01  8.50000000E-01  8.50000000E-01
  8.00000000E-01  8.50000000E-01  8.50000000E-01  8.50000000E-01  8.00000000E-01
  8.50000000E-01  8.50000000E-01  8.50000000E-01  8.00000000E-01  8.50000000E-01
  8.50000000E-01  8.50000000E-01  8.00000000E-01  8.50000000E-01  8.50000000E-01
  8.50000000E-01  8.00000000E-01  8.50000000E-01  8.50000000E-01  8.50000000E-01
  8.00000000E-01  8.50000000E-01  8.50000000E-01  8.50000000E-01  8.00000000E-01
  8.50000000E-01  8.50000000E-01  8.50000000E-01  8.00000000E-01  8.50000000E-01
  8.50000000E-01  8.50000000E-01  8.00000000E-01  8.50000000E-01  8.50000000E-01
  8.50000000E-01  8.00000000E-01  8.50000000E-01  8.50000000E-01  8.50000000E-01
  8.00000000E-01  8.50000000E-01  8.50000000E-01  8.50000000E-01  8.00000000E-01
  8.50000000E-01  8.50000000E-01  8.50000000E-01  8.00000000E-01  8.50000000E-01
  8.50000000E-01  8.50000000E-01  8.00000000E-01  8.50000000E-01  8.50000000E-01
  8.50000000E-01  8.00000000E-01  8.50000000E-01  8.50000000E-01  8.50000000E-01
  8.00000000E-01  8.50000000E-01  8.50000000E-01  8.50000000E-01  8.00000000E-01
  8.50000000E-01  8.50000000E-01  8.50000000E-01  8.00000000E-01  8.50000000E-01
  8.50000000E-01  8.50000000E-01  8.00000000E-01  8.50000000E-01  8.50000000E-01
  8.50000000E-01  8.00000000E-01  8.50000000E-01  8.50000000E-01  8.50000000E-01
  8.00000000E-01  8.50000000E-01  8.50000000E-01  8.50000000E-01  8.00000000E-01
  8.50000000E-01  8.50000000E-01  8.50000000E-01  8.00000000E-01  8.50000000E-01
  8.50000000E-01  8.50000000E-01  8.00000000E-01  8.50000000E-01  8.50000000E-01
  8.50000000E-01  8.00000000E-01  8.50000000E-01  8.50000000E-01  8.50000000E-01
  8.00000000E-01  8.50000000E-01  8.50000000E-01  8.50000000E-01  8.00000000E-01
  8.50000000E-01  8.50000000E-01  8.50000000E-01  8.00000000E-01  8.50000000E-01
  8.50000000E-01  8.50000000E-01  8.00000000E-01  8.50000000E-01  8.50000000E-01
  8.50000000E-01  8.00000000E-01  8.50000000E-01  8.50000000E-01  8.50000000E-01
  8.00000000E-01  8.50000000E-01  8.50000000E-01  8.50000000E-01  8.00000000E-01
  8.50000000E-01  8.50000000E-01  8.50000000E-01  8.00000000E-01  8.50000000E-01
  8.50000000E-01  8.50000000E-01  8.00000000E-01  8.50000000E-01  8.50000000E-01
  8.50000000E-01  8.00000000E-01  8.50000000E-01  8.50000000E-01  8.50000000E-01
  8.00000000E-01  8.50000000E-01  8.50000000E-01  8.50000000E-01  8.00000000E-01
  8.50000000E-01  8.50000000E-01  8.50000000E-01  8.00000000E-01  8.50000000E-01
  8.50000000E-01  8.50000000E-01  8.00000000E-01  8.50000000E-01  8.50000000E-01
  8.50000000E-01  8.00000000E-01  8.50000000E-01  8.50000000E-01  8.50000000E-01
  8.00000000E-01  8.50000000E-01  8.50000000E-01  8.50000000E-01  8.00000000E-01
  8.50000000E-01  8.50000000E-01  8.50000000E-01  8.00000000E-01  8.50000000E-01
  8.50000000E-01  8.50000000E-01  8.00000000E-01  8.50000000E-01  8.50000000E-01
  8.50000000E-01  8.00000000E-01  8.50000000E-01  8.50000000E-01  8.50000000E-01
  8.00000000E-01  8.50000000E-01  8.50000000E-01  8.50000000E-01  8.00000000E-01
  8.50000000E-01  8.50000000E-01  8.50000000E-01  8.00000000E-01  8.50000000E-01
  8.50000000E-01  8.50000000E-01  8.00000000E-01  8.50000000E-01  8.50000000E-01
  8.50000000E-01  8.00000000E-01  8.50000000E-01  8.50000000E-01  8.50000000E-01
  8.00000000E-01  8.50000000E-01  8.50000000E-01  8.50000000E-01  8.00000000E-01
  8.50000000E-01  8.50000000E-01  8.50000000E-01  8.00000000E-01  8.50000000E-01
  8.50000000E-01  8.50000000E-01  8.00000000E-01  8.50000000E-01  8.50000000E-01
  8.50000000E-01  8.00000000E-01  8.50000000E-01  8.50000000E-01  8.50000000E-01
  8.00000000E-01  8.50000000E-01  8.50000000E-01  8.50000000E-01  8.00000000E-01
  8.50000000E-01  8.50000000E-01  8.50000000E-01  8.00000000E-01  8.50000000E-01
  8.50000000E-01  8.50000000E-01  8.00000000E-01  8.50000000E-01  8.50000000E-01
  8.50000000E-01  8.00000000E-01  8.50000000E-01  8.50000000E-01  8.50000000E-01
  8.00000000E-01  8.50000000E-01  8.50000000E-01  8.50000000E-01  8.00000000E-01
  8.50000000E-01  8.50000000E-01  8.50000000E-01  8.00000000E-01  8.50000000E-01
  8.50000000E-01  8.50000000E-01  8.00000000E-01  8.50000000E-01  8.50000000E-01
  8.50000000E-01  8.00000000E-01  8.50000000E-01  8.50000000E-01  8.50000000E-01
  8.00000000E-01  8.50000000E-01  8.50000000E-01  8.50000000E-01  8.00000000E-01
  8.50000000E-01  8.50000000E-01  8.50000000E-01  8.00000000E-01  8.50000000E-01
  8.50000000E-01  8.50000000E-01  8.00000000E-01  8.50000000E-01  8.50000000E-01
  8.50000000E-01  8.00000000E-01  8.50000000E-01  8.50000000E-01  8.50000000E-01
  8.00000000E-01  8.50000000E-01  8.50000000E-01  8.50000000E-01  8.00000000E-01
  8.50000000E-01  8.50000000E-01  8.50000000E-01  8.00000000E-01  8.50000000E-01
  8.50000000E-01  8.50000000E-01  8.00000000E-01  8.50000000E-01  8.50000000E-01
  8.50000000E-01  8.00000000E-01  8.50000000E-01  8.50000000E-01  8.50000000E-01
  8.00000000E-01  8.50000000E-01  8.50000000E-01  8.50000000E-01  8.00000000E-01
  8.50000000E-01  8.50000000E-01  8.50000000E-01  8.00000000E-01  8.50000000E-01
  8.50000000E-01  8.50000000E-01  8.00000000E-01  8.50000000E-01  8.50000000E-01
  8.50000000E-01  8.00000000E-01  8.50000000E-01  8.50000000E-01  8.50000000E-01
  8.00000000E-01  8.50000000E-01  8.50000000E-01  8.50000000E-01  8.00000000E-01
  8.50000000E-01  8.50000000E-01  8.50000000E-01  8.00000000E-01  8.50000000E-01
  8.50000000E-01  8.50000000E-01  8.00000000E-01  8.50000000E-01  8.50000000E-01
  8.50000000E-01  8.00000000E-01  8.50000000E-01  8.50000000E-01  8.50000000E-01
  8.00000000E-01  8.50000000E-01  8.50000000E-01  8.50000000E-01  8.00000000E-01
  8.50000000E-01  8.50000000E-01  8.50000000E-01  8.00000000E-01  8.50000000E-01
  8.50000000E-01  8.50000000E-01  8.00000000E-01  8.50000000E-01  8.50000000E-01
  8.50000000E-01  8.00000000E-01  8.50000000E-01  8.50000000E-01  8.50000000E-01
  8.00000000E-01  8.50000000E-01  8.50000000E-01  8.50000000E-01  8.00000000E-01
  8.50000000E-01  8.50000000E-01  8.50000000E-01  8.00000000E-01  8.50000000E-01
  8.50000000E-01  8.50000000E-01  8.00000000E-01  8.50000000E-01  8.50000000E-01
  8.50000000E-01  8.00000000E-01  8.50000000E-01  8.50000000E-01  8.50000000E-01
  8.00000000E-01  8.50000000E-01  8.50000000E-01  8.50000000E-01  8.00000000E-01
  8.50000000E-01  8.50000000E-01  8.50000000E-01  8.00000000E-01  8.50000000E-01
  8.50000000E-01  8.50000000E-01  8.00000000E-01  8.50000000E-01  8.50000000E-01
  8.50000000E-01  8.00000000E-01  8.50000000E-01  8.50000000E-01  8.50000000E-01
  8.00000000E-01  8.50000000E-01  8.50000000E-01  8.50000000E-01  8.00000000E-01
  8.50000000E-01  8.50000000E-01  8.50000000E-01  8.00000000E-01  8.50000000E-01
  8.50000000E-01  8.50000000E-01  8.00000000E-01  8.50000000E-01  8.50000000E-01
  8.50000000E-01  8.00000000E-01  8.50000000E-01  8.50000000E-01  8.50000000E-01
  8.00000000E-01  8.50000000E-01  8.50000000E-01  8.50000000E-01  8.00000000E-01
  8.50000000E-01  8.50000000E-01  8.50000000E-01  8.00000000E-01  8.50000000E-01
  8.50000000E-01  8.50000000E-01  8.00000000E-01  8.50000000E-01  8.50000000E-01
  8.50000000E-01  8.00000000E-01  8.50000000E-01  8.50000000E-01  8.50000000E-01
  8.00000000E-01  8.50000000E-01  8.50000000E-01  8.50000000E-01  8.00000000E-01
  8.50000000E-01  8.50000000E-01  8.50000000E-01  8.00000000E-01  8.50000000E-01
  8.50000000E-01  8.50000000E-01  8.00000000E-01  8.50000000E-01  8.50000000E-01
  8.50000000E-01  8.00000000E-01  8.50000000E-01  8.50000000E-01  8.50000000E-01
  8.00000000E-01  8.50000000E-01  8.50000000E-01  8.50000000E-01  8.00000000E-01
  8.50000000E-01  8.50000000E-01  8.50000000E-01  8.00000000E-01  8.50000000E-01
  8.50000000E-01  8.50000000E-01  8.00000000E-01  8.50000000E-01  8.50000000E-01
  8.50000000E-01  8.00000000E-01  8.50000000E-01  8.50000000E-01  8.50000000E-01
  8.00000000E-01  8.50000000E-01  8.50000000E-01  8.50000000E-01  8.00000000E-01
  8.50000000E-01  8.50000000E-01  8.50000000E-01  8.00000000E-01  8.50000000E-01
  8.50000000E-01  8.50000000E-01  8.00000000E-01  8.50000000E-01  8.50000000E-01
  8.50000000E-01  8.00000000E-01  8.50000000E-01  8.50000000E-01  8.50000000E-01
  8.00000000E-01  8.50000000E-01  8.50000000E-01  8.50000000E-01  8.00000000E-01
  8.50000000E-01  8.50000000E-01  8.50000000E-01  8.00000000E-01  8.50000000E-01
  8.50000000E-01  8.50000000E-01  8.00000000E-01  8.50000000E-01  8.50000000E-01
  8.50000000E-01  8.00000000E-01  8.50000000E-01  8.50000000E-01  8.50000000E-01
  8.00000000E-01  8.50000000E-01  8.50000000E-01  8.50000000E-01  8.00000000E-01
  8.50000000E-01  8.50000000E-01  8.50000000E-01  8.00000000E-01  8.50000000E-01
  8.50000000E-01  8.50000000E-01  8.00000000E-01  8.50000000E-01  8.50000000E-01
  8.50000000E-01  8.00000000E-01  8.50000000E-01  8.50000000E-01  8.50000000E-01
  8.00000000E-01  8.50000000E-01  8.50000000E-01  8.50000000E-01  8.00000000E-01
  8.50000000E-01  8.50000000E-01  8.50000000E-01  8.00000000E-01  8.50000000E-01
  8.50000000E-01  8.50000000E-01  8.00000000E-01  8.50000000E-01  8.50000000E-01
  8.50000000E-01  8.00000000E-01  8.50000000E-01  8.50000000E-01  8.50000000E-01
  8.00000000E-01  8.50000000E-01  8.50000000E-01  8.50000000E-01  8.00000000E-01
  8.50000000E-01  8.50000000E-01  8.50000000E-01  8.00000000E-01  8.50000000E-01
  8.50000000E-01  8.50000000E-01  8.00000000E-01  8.50000000E-01  8.50000000E-01
  8.50000000E-01  8.00000000E-01  8.50000000E-01  8.50000000E-01  8.50000000E-01
  8.00000000E-01  8.50000000E-01  8.50000000E-01  8.50000000E-01  8.00000000E-01
  8.50000000E-01  8.50000000E-01  8.50000000E-01  8.00000000E-01  8.50000000E-01
  8.50000000E-01  8.50000000E-01  8.00000000E-01  8.50000000E-01  8.50000000E-01
  8.50000000E-01  8.00000000E-01  8.50000000E-01  8.50000000E-01  8.50000000E-01
  8.00000000E-01  8.50000000E-01  8.50000000E-01  8.50000000E-01  8.00000000E-01
  8.50000000E-01  8.50000000E-01  8.50000000E-01  8.00000000E-01  8.50000000E-01
  8.50000000E-01  8.50000000E-01  8.00000000E-01  8.50000000E-01  8.50000000E-01
  8.50000000E-01  8.00000000E-01  8.50000000E-01  8.50000000E-01  8.50000000E-01
  8.00000000E-01  8.50000000E-01  8.50000000E-01  8.50000000E-01  8.00000000E-01
  8.50000000E-01  8.50000000E-01  8.50000000E-01  8.00000000E-01  8.50000000E-01
  8.50000000E-01  8.50000000E-01  8.00000000E-01  8.50000000E-01  8.50000000E-01
  8.50000000E-01  8.00000000E-01  8.50000000E-01  8.50000000E-01  8.50000000E-01
  8.00000000E-01  8.50000000E-01  8.50000000E-01  8.50000000E-01  8.00000000E-01
  8.50000000E-01  8.50000000E-01  8.50000000E-01  8.00000000E-01  8.50000000E-01
  8.50000000E-01  8.50000000E-01  8.00000000E-01  8.50000000E-01  8.50000000E-01
  8.50000000E-01  8.00000000E-01  8.50000000E-01  8.50000000E-01  8.50000000E-01
  8.00000000E-01  8.50000000E-01  8.50000000E-01  8.50000000E-01  8.00000000E-01
  8.50000000E-01  8.50000000E-01  8.50000000E-01  8.00000000E-01  8.50000000E-01
  8.50000000E-01  8.50000000E-01  8.00000000E-01  8.50000000E-01  8.50000000E-01
  8.50000000E-01  8.00000000E-01  8.50000000E-01  8.50000000E-01  8.50000000E-01
  8.00000000E-01  8.50000000E-01  8.50000000E-01  8.50000000E-01  8.00000000E-01
  8.50000000E-01  8.50000000E-01  8.50000000E-01  8.00000000E-01  8.50000000E-01
  8.50000000E-01  8.50000000E-01  8.00000000E-01  8.50000000E-01  8.50000000E-01
  8.50000000E-01  8.00000000E-01  8.50000000E-01  8.50000000E-01  8.50000000E-01
  8.00000000E-01  8.50000000E-01  8.50000000E-01  8.50000000E-01  8.00000000E-01
  8.50000000E-01  8.50000000E-01  8.50000000E-01  8.00000000E-01  8.50000000E-01
  8.50000000E-01  8.50000000E-01  8.00000000E-01  8.50000000E-01  8.50000000E-01
  8.50000000E-01  8.00000000E-01  8.50000000E-01  8.50000000E-01  8.50000000E-01
  8.00000000E-01  8.50000000E-01  8.50000000E-01  8.50000000E-01  8.00000000E-01
  8.50000000E-01  8.50000000E-01  8.50000000E-01  8.00000000E-01  8.50000000E-01
  8.50000000E-01  8.50000000E-01  8.00000000E-01  8.50000000E-01  8.50000000E-01
  8.50000000E-01  8.00000000E-01  8.50000000E-01  8.50000000E-01  8.50000000E-01
  8.00000000E-01  8.50000000E-01  8.50000000E-01  8.50000000E-01  8.00000000E-01
  8.50000000E-01  8.50000000E-01  8.50000000E-01  8.00000000E-01  8.50000000E-01
  8.50000000E-01  8.50000000E-01  8.00000000E-01  8.50000000E-01  8.50000000E-01
  8.50000000E-01  8.00000000E-01  8.50000000E-01  8.50000000E-01  8.50000000E-01
  8.00000000E-01  8.50000000E-01  8.50000000E-01  8.50000000E-01  8.00000000E-01
  8.50000000E-01  8.50000000E-01  8.50000000E-01  8.00000000E-01  8.50000000E-01
  8.50000000E-01  8.50000000E-01  8.00000000E-01  8.50000000E-01  8.50000000E-01
  8.50000000E-01  8.00000000E-01  8.50000000E-01  8.50000000E-01  8.50000000E-01
  8.00000000E-01  8.50000000E-01  8.50000000E-01  8.50000000E-01  8.00000000E-01
  8.50000000E-01  8.50000000E-01  8.50000000E-01  8.00000000E-01  8.50000000E-01
  8.50000000E-01  8.50000000E-01  8.00000000E-01  8.50000000E-01  8.50000000E-01
  8.50000000E-01  8.00000000E-01  8.50000000E-01  8.50000000E-01  8.50000000E-01
  8.00000000E-01  8.50000000E-01  8.50000000E-01  8.50000000E-01  8.00000000E-01
  8.50000000E-01  8.50000000E-01  8.50000000E-01  8.00000000E-01  8.50000000E-01
  8.50000000E-01  8.50000000E-01  8.00000000E-01  8.50000000E-01  8.50000000E-01
  8.50000000E-01  8.00000000E-01  8.50000000E-01  8.50000000E-01  8.50000000E-01
  8.00000000E-01  8.50000000E-01  8.50000000E-01  8.50000000E-01  8.00000000E-01
  8.50000000E-01  8.50000000E-01  8.50000000E-01  8.00000000E-01  8.50000000E-01
  8.50000000E-01  8.50000000E-01  8.00000000E-01  8.50000000E-01  8.50000000E-01
  8.50000000E-01  8.00000000E-01  8.50000000E-01  8.50000000E-01  8.50000000E-01
  8.00000000E-01  8.50000000E-01  8.50000000E-01  8.50000000E-01  8.00000000E-01
  8.50000000E-01  8.50000000E-01  8.50000000E-01  8.00000000E-01  8.50000000E-01
  8.50000000E-01  8.50000000E-01  8.00000000E-01  8.50000000E-01  8.50000000E-01
  8.50000000E-01  8.00000000E-01  8.50000000E-01  8.50000000E-01  8.50000000E-01
  8.00000000E-01  8.50000000E-01  8.50000000E-01  8.50000000E-01  8.00000000E-01
  8.50000000E-01  8.50000000E-01  8.50000000E-01  8.00000000E-01  8.50000000E-01
  8.50000000E-01  8.50000000E-01  8.00000000E-01  8.50000000E-01  8.50000000E-01
  8.50000000E-01  8.00000000E-01  8.50000000E-01  8.50000000E-01  8.50000000E-01
  8.00000000E-01  8.50000000E-01  8.50000000E-01  8.50000000E-01  8.00000000E-01
  8.50000000E-01  8.50000000E-01  8.50000000E-01  8.00000000E-01  8.50000000E-01
  8.50000000E-01  8.50000000E-01  8.00000000E-01  8.50000000E-01  8.50000000E-01
  8.50000000E-01  8.00000000E-01  8.50000000E-01  8.50000000E-01  8.50000000E-01
  8.00000000E-01  8.50000000E-01  8.50000000E-01  8.50000000E-01  8.00000000E-01
  8.50000000E-01  8.50000000E-01  8.50000000E-01  8.00000000E-01  8.50000000E-01
  8.50000000E-01  8.50000000E-01  8.00000000E-01  8.50000000E-01  8.50000000E-01
  8.50000000E-01  8.00000000E-01  8.50000000E-01  8.50000000E-01  8.50000000E-01
  8.00000000E-01  8.50000000E-01  8.50000000E-01  8.50000000E-01  8.00000000E-01
  8.50000000E-01  8.50000000E-01  8.50000000E-01  8.00000000E-01  8.50000000E-01
  8.50000000E-01  8.50000000E-01  8.00000000E-01  8.50000000E-01  8.50000000E-01
  8.50000000E-01  8.00000000E-01  8.50000000E-01  8.50000000E-01  8.50000000E-01
  8.00000000E-01  8.50000000E-01  8.50000000E-01  8.50000000E-01  8.00000000E-01
  8.50000000E-01  8.50000000E-01  8.50000000E-01  8.00000000E-01  8.50000000E-01
  8.50000000E-01  8.50000000E-01  8.00000000E-01  8.50000000E-01  8.50000000E-01
  8.50000000E-01  8.00000000E-01  8.50000000E-01  8.50000000E-01  8.50000000E-01
  8.00000000E-01  8.50000000E-01  8.50000000E-01  8.50000000E-01  8.00000000E-01
  8.50000000E-01  8.50000000E-01  8.50000000E-01  8.00000000E-01  8.50000000E-01
  8.50000000E-01  8.50000000E-01  8.00000000E-01  8.50000000E-01  8.50000000E-01
  8.50000000E-01  8.00000000E-01  8.50000000E-01  8.50000000E-01  8.50000000E-01
  8.00000000E-01  8.50000000E-01  8.50000000E-01  8.50000000E-01  8.00000000E-01
  8.50000000E-01  8.50000000E-01  8.50000000E-01  8.00000000E-01  8.50000000E-01
  8.50000000E-01  8.50000000E-01  8.00000000E-01  8.50000000E-01  8.50000000E-01
  8.50000000E-01  8.00000000E-01  8.50000000E-01  8.50000000E-01  8.50000000E-01
  8.00000000E-01  8.50000000E-01  8.50000000E-01  8.50000000E-01  8.00000000E-01
  8.50000000E-01  8.50000000E-01  8.50000000E-01  8.00000000E-01  8.50000000E-01
  8.50000000E-01  8.50000000E-01  8.00000000E-01  8.50000000E-01  8.50000000E-01
  8.50000000E-01  8.00000000E-01  8.50000000E-01  8.50000000E-01  8.50000000E-01
  8.00000000E-01  8.50000000E-01  8.50000000E-01  8.50000000E-01  8.00000000E-01
  8.50000000E-01  8.50000000E-01  8.50000000E-01  8.00000000E-01  8.50000000E-01
  8.50000000E-01  8.50000000E-01  8.00000000E-01  8.50000000E-01  8.50000000E-01
  8.50000000E-01  8.00000000E-01  8.50000000E-01  8.50000000E-01  8.50000000E-01
  8.00000000E-01  8.50000000E-01  8.50000000E-01  8.50000000E-01  8.00000000E-01
  8.50000000E-01  8.50000000E-01  8.50000000E-01  8.00000000E-01  8.50000000E-01
  8.50000000E-01  8.50000000E-01  8.00000000E-01  8.50000000E-01  8.50000000E-01
  8.50000000E-01  8.00000000E-01  8.50000000E-01  8.50000000E-01  8.50000000E-01
  8.00000000E-01  8.50000000E-01  8.50000000E-01  8.50000000E-01  8.00000000E-01
  8.50000000E-01  8.50000000E-01  8.50000000E-01  8.00000000E-01  8.50000000E-01
  8.50000000E-01  8.50000000E-01  8.00000000E-01  8.50000000E-01  8.50000000E-01
  8.50000000E-01  8.00000000E-01  8.50000000E-01  8.50000000E-01  8.50000000E-01
  8.00000000E-01  8.50000000E-01  8.50000000E-01  8.50000000E-01  8.00000000E-01
  8.50000000E-01  8.50000000E-01  8.50000000E-01  8.00000000E-01  8.50000000E-01
  8.50000000E-01  8.50000000E-01  8.00000000E-01  8.50000000E-01  8.50000000E-01
  8.50000000E-01  8.00000000E-01  8.50000000E-01  8.50000000E-01  8.50000000E-01
  8.00000000E-01  8.50000000E-01  8.50000000E-01  8.50000000E-01  8.00000000E-01
  8.50000000E-01  8.50000000E-01  8.50000000E-01  8.00000000E-01  8.50000000E-01
  8.50000000E-01  8.50000000E-01  8.00000000E-01  8.50000000E-01  8.50000000E-01
  8.50000000E-01  8.00000000E-01  8.50000000E-01  8.50000000E-01  8.50000000E-01
  8.00000000E-01  8.50000000E-01  8.50000000E-01  8.50000000E-01  8.00000000E-01
  8.50000000E-01  8.50000000E-01  8.50000000E-01  8.00000000E-01  8.50000000E-01
  8.50000000E-01  8.50000000E-01  8.00000000E-01  8.50000000E-01  8.50000000E-01
  8.50000000E-01  8.00000000E-01  8.50000000E-01  8.50000000E-01  8.50000000E-01
  8.00000000E-01  8.50000000E-01  8.50000000E-01  8.50000000E-01  8.00000000E-01
  8.50000000E-01  8.50000000E-01  8.50000000E-01  8.00000000E-01  8.50000000E-01
  8.50000000E-01  8.50000000E-01  8.00000000E-01  8.50000000E-01  8.50000000E-01
  8.50000000E-01  8.00000000E-01  8.50000000E-01  8.50000000E-01  8.50000000E-01
  8.00000000E-01  8.50000000E-01  8.50000000E-01  8.50000000E-01  8.00000000E-01
  8.50000000E-01  8.50000000E-01  8.50000000E-01  8.00000000E-01  8.50000000E-01
  8.50000000E-01  8.50000000E-01  8.00000000E-01  8.50000000E-01  8.50000000E-01
  8.50000000E-01  8.00000000E-01  8.50000000E-01  8.50000000E-01  8.50000000E-01
  8.00000000E-01  8.50000000E-01  8.50000000E-01  8.50000000E-01  8.00000000E-01
  8.50000000E-01  8.50000000E-01  8.50000000E-01  8.00000000E-01  8.50000000E-01
  8.50000000E-01  8.50000000E-01  8.00000000E-01  8.50000000E-01  8.50000000E-01
  8.50000000E-01  8.00000000E-01  8.50000000E-01  8.50000000E-01  8.50000000E-01
  8.00000000E-01  8.50000000E-01  8.50000000E-01  8.50000000E-01  8.00000000E-01
  8.50000000E-01  8.50000000E-01  8.50000000E-01  8.00000000E-01  8.50000000E-01
  8.50000000E-01  8.50000000E-01  8.00000000E-01  8.50000000E-01  8.50000000E-01
  8.50000000E-01  8.00000000E-01  8.50000000E-01  8.50000000E-01  8.50000000E-01
  8.00000000E-01  8.50000000E-01  8.50000000E-01  8.50000000E-01  8.00000000E-01
  8.50000000E-01  8.50000000E-01  8.50000000E-01  8.00000000E-01  8.50000000E-01
  8.50000000E-01  8.50000000E-01  8.00000000E-01  8.50000000E-01  8.50000000E-01
  8.50000000E-01  8.00000000E-01  8.50000000E-01  8.50000000E-01  8.50000000E-01
  8.00000000E-01  8.50000000E-01  8.50000000E-01  8.50000000E-01  8.00000000E-01
  8.50000000E-01  8.50000000E-01  8.50000000E-01  8.00000000E-01  8.50000000E-01
  8.50000000E-01  8.50000000E-01  8.00000000E-01  8.50000000E-01  8.50000000E-01
  8.50000000E-01  8.00000000E-01  8.50000000E-01  8.50000000E-01  8.50000000E-01
  8.00000000E-01  8.50000000E-01  8.50000000E-01  8.50000000E-01  8.00000000E-01
  8.50000000E-01  8.50000000E-01  8.50000000E-01  8.00000000E-01  8.50000000E-01
  8.50000000E-01  8.50000000E-01  8.00000000E-01  8.50000000E-01  8.50000000E-01
  8.50000000E-01  8.00000000E-01  8.50000000E-01  8.50000000E-01  8.50000000E-01
  8.00000000E-01  8.50000000E-01  8.50000000E-01  8.50000000E-01  8.00000000E-01
  8.50000000E-01  8.50000000E-01  8.50000000E-01  8.00000000E-01  8.50000000E-01
  8.50000000E-01  8.50000000E-01  8.00000000E-01  8.50000000E-01  8.50000000E-01
  8.50000000E-01  8.00000000E-01  8.50000000E-01  8.50000000E-01  8.50000000E-01
  8.00000000E-01  8.50000000E-01  8.50000000E-01  8.50000000E-01  8.00000000E-01
  8.50000000E-01  8.50000000E-01  8.50000000E-01  8.00000000E-01  8.50000000E-01
  8.50000000E-01  8.50000000E-01  8.00000000E-01  8.50000000E-01  8.50000000E-01
  8.50000000E-01  8.00000000E-01  8.50000000E-01  8.50000000E-01  8.50000000E-01
  8.00000000E-01  8.50000000E-01  8.50000000E-01  8.50000000E-01  8.00000000E-01
  8.50000000E-01  8.50000000E-01  8.50000000E-01  8.00000000E-01  8.50000000E-01
  8.50000000E-01  8.50000000E-01  8.00000000E-01  8.50000000E-01  8.50000000E-01
  8.50000000E-01  8.00000000E-01  8.50000000E-01  8.50000000E-01  8.50000000E-01
  8.00000000E-01  8.50000000E-01  8.50000000E-01  8.50000000E-01  8.00000000E-01
  8.50000000E-01  8.50000000E-01  8.50000000E-01  8.00000000E-01  8.50000000E-01
  8.50000000E-01  8.50000000E-01  8.00000000E-01  8.50000000E-01  8.50000000E-01
  8.50000000E-01  8.00000000E-01  8.50000000E-01  8.50000000E-01  8.50000000E-01
  8.00000000E-01  8.50000000E-01  8.50000000E-01  8.50000000E-01  8.00000000E-01
  8.50000000E-01  8.50000000E-01  8.50000000E-01  8.00000000E-01  8.50000000E-01
  8.50000000E-01  8.50000000E-01  8.00000000E-01  8.50000000E-01  8.50000000E-01
  8.50000000E-01  8.00000000E-01  8.50000000E-01  8.50000000E-01  8.50000000E-01
  8.00000000E-01  8.50000000E-01  8.50000000E-01  8.50000000E-01  8.00000000E-01
  8.50000000E-01  8.50000000E-01  8.50000000E-01  8.00000000E-01  8.50000000E-01
  8.50000000E-01  8.50000000E-01  8.00000000E-01  8.50000000E-01  8.50000000E-01
  8.50000000E-01  8.00000000E-01  8.50000000E-01  8.50000000E-01  8.50000000E-01
  8.00000000E-01  8.50000000E-01  8.50000000E-01  8.50000000E-01  8.00000000E-01
  8.50000000E-01  8.50000000E-01  8.50000000E-01  8.00000000E-01  8.50000000E-01
  8.50000000E-01  8.50000000E-01  8.00000000E-01  8.50000000E-01  8.50000000E-01
  8.50000000E-01  8.00000000E-01  8.50000000E-01  8.50000000E-01  8.50000000E-01
  8.00000000E-01  8.50000000E-01  8.50000000E-01  8.50000000E-01  8.00000000E-01
  8.50000000E-01  8.50000000E-01  8.50000000E-01  8.00000000E-01  8.50000000E-01
  8.50000000E-01  8.50000000E-01  8.00000000E-01  8.50000000E-01  8.50000000E-01
  8.50000000E-01  8.00000000E-01  8.50000000E-01  8.50000000E-01  8.50000000E-01
  8.00000000E-01  8.50000000E-01  8.50000000E-01  8.50000000E-01  8.00000000E-01
  8.50000000E-01  8.50000000E-01  8.50000000E-01  8.00000000E-01  8.50000000E-01
  8.50000000E-01  8.50000000E-01  8.00000000E-01  8.50000000E-01  8.50000000E-01
  8.50000000E-01  8.00000000E-01  8.50000000E-01  8.50000000E-01  8.50000000E-01
  8.00000000E-01  8.50000000E-01  8.50000000E-01  8.50000000E-01  8.00000000E-01
  8.50000000E-01  8.50000000E-01  8.50000000E-01  8.00000000E-01  8.50000000E-01
  8.50000000E-01  8.50000000E-01  8.00000000E-01  8.50000000E-01  8.50000000E-01
  8.50000000E-01  8.00000000E-01  8.50000000E-01  8.50000000E-01  8.50000000E-01
  8.00000000E-01  8.50000000E-01  8.50000000E-01  8.50000000E-01  8.00000000E-01
  8.50000000E-01  8.50000000E-01  8.50000000E-01  8.00000000E-01  8.50000000E-01
  8.50000000E-01  8.50000000E-01  8.00000000E-01  8.50000000E-01  8.50000000E-01
  8.50000000E-01  8.00000000E-01  8.50000000E-01  8.50000000E-01  8.50000000E-01
  8.00000000E-01  8.50000000E-01  8.50000000E-01  8.50000000E-01  8.00000000E-01
  8.50000000E-01  8.50000000E-01  8.50000000E-01  8.00000000E-01  8.50000000E-01
  8.50000000E-01  8.50000000E-01  8.00000000E-01  8.50000000E-01  8.50000000E-01
  8.50000000E-01  8.00000000E-01  8.50000000E-01  8.50000000E-01  8.50000000E-01
  8.00000000E-01  8.50000000E-01  8.50000000E-01  8.50000000E-01  8.00000000E-01
  8.50000000E-01  8.50000000E-01  8.50000000E-01  8.00000000E-01  8.50000000E-01
  8.50000000E-01  8.50000000E-01  8.00000000E-01  8.50000000E-01  8.50000000E-01
  8.50000000E-01  8.00000000E-01  8.50000000E-01  8.50000000E-01  8.50000000E-01
  8.00000000E-01  8.50000000E-01  8.50000000E-01  8.50000000E-01  8.00000000E-01
  8.50000000E-01  8.50000000E-01  8.50000000E-01  8.00000000E-01  8.50000000E-01
  8.50000000E-01  8.50000000E-01  8.00000000E-01  8.50000000E-01  8.50000000E-01
  8.50000000E-01  8.00000000E-01  8.50000000E-01  8.50000000E-01  8.50000000E-01
  8.00000000E-01  8.50000000E-01  8.50000000E-01  8.50000000E-01  8.00000000E-01
  8.50000000E-01  8.50000000E-01  8.50000000E-01  8.00000000E-01  8.50000000E-01
  8.50000000E-01  8.50000000E-01  8.00000000E-01  8.50000000E-01  8.50000000E-01
  8.50000000E-01  8.00000000E-01  8.50000000E-01  8.50000000E-01  8.50000000E-01
  8.00000000E-01  8.50000000E-01  8.50000000E-01  8.50000000E-01  8.00000000E-01
  8.50000000E-01  8.50000000E-01  8.50000000E-01  8.00000000E-01  8.50000000E-01
  8.50000000E-01  8.50000000E-01  8.00000000E-01  8.50000000E-01  8.50000000E-01
  8.50000000E-01  8.00000000E-01  8.50000000E-01  8.50000000E-01  8.50000000E-01
  8.00000000E-01  8.50000000E-01  8.50000000E-01  8.50000000E-01  8.00000000E-01
  8.50000000E-01  8.50000000E-01  8.50000000E-01  8.00000000E-01  8.50000000E-01
  8.50000000E-01  8.50000000E-01  8.00000000E-01  8.50000000E-01  8.50000000E-01
  8.50000000E-01  8.00000000E-01  8.50000000E-01  8.50000000E-01  8.50000000E-01
  8.00000000E-01  8.50000000E-01  8.50000000E-01  8.50000000E-01  8.00000000E-01
  8.50000000E-01  8.50000000E-01  8.50000000E-01  8.00000000E-01  8.50000000E-01
  8.50000000E-01  8.50000000E-01  8.00000000E-01  8.50000000E-01  8.50000000E-01
  8.50000000E-01  8.00000000E-01  8.50000000E-01  8.50000000E-01  8.50000000E-01
  8.00000000E-01  8.50000000E-01  8.50000000E-01  8.50000000E-01  8.00000000E-01
  8.50000000E-01  8.50000000E-01  8.50000000E-01  8.00000000E-01  8.50000000E-01
  8.50000000E-01  8.50000000E-01  8.00000000E-01  8.50000000E-01  8.50000000E-01
  8.50000000E-01  8.00000000E-01  8.50000000E-01  8.50000000E-01  8.50000000E-01
  8.00000000E-01  8.50000000E-01  8.50000000E-01  8.50000000E-01  8.00000000E-01
  8.50000000E-01  8.50000000E-01  8.50000000E-01  8.00000000E-01  8.50000000E-01
  8.50000000E-01  8.50000000E-01  8.00000000E-01  8.50000000E-01  8.50000000E-01
  8.50000000E-01  8.00000000E-01  8.50000000E-01  8.50000000E-01  8.50000000E-01
  8.00000000E-01  8.50000000E-01  8.50000000E-01  8.50000000E-01  8.00000000E-01
  8.50000000E-01  8.50000000E-01  8.50000000E-01  8.00000000E-01  8.50000000E-01
  8.50000000E-01  8.50000000E-01  8.00000000E-01  8.50000000E-01  8.50000000E-01
  8.50000000E-01  8.00000000E-01  8.50000000E-01  8.50000000E-01  8.50000000E-01
  8.00000000E-01  8.50000000E-01  8.50000000E-01  8.50000000E-01  8.00000000E-01
  8.50000000E-01  8.50000000E-01  8.50000000E-01  8.00000000E-01  8.50000000E-01
  8.50000000E-01  8.50000000E-01  8.00000000E-01  8.50000000E-01  8.50000000E-01
  8.50000000E-01  8.00000000E-01  8.50000000E-01  8.50000000E-01  8.50000000E-01
  8.00000000E-01  8.50000000E-01  8.50000000E-01  8.50000000E-01  8.00000000E-01
  8.50000000E-01  8.50000000E-01  8.50000000E-01  8.00000000E-01  8.50000000E-01
  8.50000000E-01  8.50000000E-01  8.00000000E-01  8.50000000E-01  8.50000000E-01
  8.50000000E-01  8.00000000E-01  8.50000000E-01  8.50000000E-01  8.50000000E-01
  8.00000000E-01  8.50000000E-01  8.50000000E-01  8.50000000E-01  8.00000000E-01
  8.50000000E-01  8.50000000E-01  8.50000000E-01  8.00000000E-01  8.50000000E-01
  8.50000000E-01  8.50000000E-01  8.00000000E-01  8.50000000E-01  8.50000000E-01
  8.50000000E-01  8.00000000E-01  8.50000000E-01  8.50000000E-01  8.50000000E-01
  8.00000000E-01  8.50000000E-01  8.50000000E-01  8.50000000E-01  8.00000000E-01
  8.50000000E-01  8.50000000E-01  8.50000000E-01  8.00000000E-01  8.50000000E-01
  8.50000000E-01  8.50000000E-01  8.00000000E-01  8.50000000E-01  8.50000000E-01
  8.50000000E-01  8.00000000E-01  8.50000000E-01  8.50000000E-01  8.50000000E-01
  8.00000000E-01  8.50000000E-01  8.50000000E-01  8.50000000E-01  8.00000000E-01
  8.50000000E-01  8.50000000E-01  8.50000000E-01  8.00000000E-01  8.50000000E-01
  8.50000000E-01  8.50000000E-01  8.00000000E-01  8.50000000E-01  8.50000000E-01
  8.50000000E-01  8.00000000E-01  8.50000000E-01  8.50000000E-01  8.50000000E-01
  8.00000000E-01  8.50000000E-01  8.50000000E-01  8.50000000E-01  8.00000000E-01
  8.50000000E-01  8.50000000E-01  8.50000000E-01  8.00000000E-01  8.50000000E-01
  8.50000000E-01  8.50000000E-01  8.00000000E-01  8.50000000E-01  8.50000000E-01
  8.50000000E-01  8.00000000E-01  8.50000000E-01  8.50000000E-01  8.50000000E-01
  8.00000000E-01  8.50000000E-01  8.50000000E-01  8.50000000E-01  8.00000000E-01
  8.50000000E-01  8.50000000E-01  8.50000000E-01  8.00000000E-01  8.50000000E-01
  8.50000000E-01  8.50000000E-01  8.00000000E-01  8.50000000E-01  8.50000000E-01
  8.50000000E-01  8.00000000E-01  8.50000000E-01  8.50000000E-01  8.50000000E-01
  8.00000000E-01  8.50000000E-01  8.50000000E-01  8.50000000E-01  8.00000000E-01
  8.50000000E-01  8.50000000E-01  8.50000000E-01  8.00000000E-01  8.50000000E-01
  8.50000000E-01  8.50000000E-01  8.00000000E-01  8.50000000E-01  8.50000000E-01
  8.50000000E-01  8.00000000E-01  8.50000000E-01  8.50000000E-01  8.50000000E-01
  8.00000000E-01  8.50000000E-01  8.50000000E-01  8.50000000E-01  8.00000000E-01
  8.50000000E-01  8.50000000E-01  8.50000000E-01  8.00000000E-01  8.50000000E-01
  8.50000000E-01  8.50000000E-01  8.00000000E-01  8.50000000E-01  8.50000000E-01
  8.50000000E-01  8.00000000E-01  8.50000000E-01  8.50000000E-01  8.50000000E-01
  8.00000000E-01  8.50000000E-01  8.50000000E-01  8.50000000E-01  8.00000000E-01
  8.50000000E-01  8.50000000E-01  8.50000000E-01  8.00000000E-01  8.50000000E-01
  8.50000000E-01  8.50000000E-01  8.00000000E-01  8.50000000E-01  8.50000000E-01
  8.50000000E-01  8.00000000E-01  8.50000000E-01  8.50000000E-01  8.50000000E-01
  8.00000000E-01  8.50000000E-01  8.50000000E-01  8.50000000E-01  8.00000000E-01
  8.50000000E-01  8.50000000E-01  8.50000000E-01  8.00000000E-01  8.50000000E-01
  8.50000000E-01  8.50000000E-01  8.00000000E-01  8.50000000E-01  8.50000000E-01
  8.50000000E-01  8.00000000E-01  8.50000000E-01  8.50000000E-01  8.50000000E-01
  8.00000000E-01  8.50000000E-01  8.50000000E-01  8.50000000E-01  8.00000000E-01
  8.50000000E-01  8.50000000E-01  8.50000000E-01  8.00000000E-01  8.50000000E-01
  8.50000000E-01  8.50000000E-01  8.00000000E-01  8.50000000E-01  8.50000000E-01
  8.50000000E-01  8.00000000E-01  8.50000000E-01  8.50000000E-01  8.50000000E-01
  8.00000000E-01  8.50000000E-01  8.50000000E-01  8.50000000E-01  8.00000000E-01
  8.50000000E-01  8.50000000E-01  8.50000000E-01  8.00000000E-01  8.50000000E-01
  8.50000000E-01  8.50000000E-01  8.00000000E-01  8.50000000E-01  8.50000000E-01
  8.50000000E-01  8.00000000E-01  8.50000000E-01  8.50000000E-01  8.50000000E-01
  8.00000000E-01  8.50000000E-01  8.50000000E-01  8.50000000E-01  8.00000000E-01
  8.50000000E-01  8.50000000E-01  8.50000000E-01  8.00000000E-01  8.50000000E-01
  8.50000000E-01  8.50000000E-01  8.00000000E-01  8.50000000E-01  8.50000000E-01
  8.50000000E-01  8.00000000E-01  8.50000000E-01  8.50000000E-01  8.50000000E-01
  8.00000000E-01  8.50000000E-01  8.50000000E-01  8.50000000E-01  8.00000000E-01
  8.50000000E-01  8.50000000E-01  8.50000000E-01  8.00000000E-01  8.50000000E-01
  8.50000000E-01  8.50000000E-01  8.00000000E-01  8.50000000E-01  8.50000000E-01
  8.50000000E-01  8.00000000E-01  8.50000000E-01  8.50000000E-01  8.50000000E-01
  8.00000000E-01  8.50000000E-01  8.50000000E-01  8.50000000E-01  8.00000000E-01
  8.50000000E-01  8.50000000E-01  8.50000000E-01  8.00000000E-01  8.50000000E-01
  8.50000000E-01  8.50000000E-01  8.00000000E-01  8.50000000E-01  8.50000000E-01
  8.50000000E-01  8.00000000E-01  8.50000000E-01  8.50000000E-01  8.50000000E-01
  8.00000000E-01  8.50000000E-01  8.50000000E-01  8.50000000E-01  8.00000000E-01
  8.50000000E-01  8.50000000E-01  8.50000000E-01  8.00000000E-01  8.50000000E-01
  8.50000000E-01  8.50000000E-01  8.00000000E-01  8.50000000E-01  8.50000000E-01
  8.50000000E-01  8.00000000E-01  8.50000000E-01  8.50000000E-01  8.50000000E-01
  8.00000000E-01  8.50000000E-01  8.50000000E-01  8.50000000E-01  8.00000000E-01
  8.50000000E-01  8.50000000E-01  8.50000000E-01  8.00000000E-01  8.50000000E-01
  8.50000000E-01  8.50000000E-01  8.00000000E-01  8.50000000E-01  8.50000000E-01
  8.50000000E-01  8.00000000E-01  8.50000000E-01  8.50000000E-01  8.50000000E-01
  8.00000000E-01  8.50000000E-01  8.50000000E-01  8.50000000E-01  8.00000000E-01
  8.50000000E-01  8.50000000E-01  8.50000000E-01  8.00000000E-01  8.50000000E-01
  8.50000000E-01  8.50000000E-01  8.00000000E-01  8.50000000E-01  8.50000000E-01
  8.50000000E-01  8.00000000E-01  8.50000000E-01  8.50000000E-01  8.50000000E-01
  8.00000000E-01  8.50000000E-01  8.50000000E-01  8.50000000E-01  8.00000000E-01
  8.50000000E-01  8.50000000E-01  8.50000000E-01  8.00000000E-01  8.50000000E-01
  8.50000000E-01  8.50000000E-01  8.00000000E-01  8.50000000E-01  8.50000000E-01
  8.50000000E-01  8.00000000E-01  8.50000000E-01  8.50000000E-01  8.50000000E-01
  8.00000000E-01  8.50000000E-01  8.50000000E-01  8.50000000E-01  8.00000000E-01
  8.50000000E-01  8.50000000E-01  8.50000000E-01  8.00000000E-01  8.50000000E-01
  8.50000000E-01  8.50000000E-01  8.00000000E-01  8.50000000E-01  8.50000000E-01
  8.50000000E-01  8.00000000E-01  8.50000000E-01  8.50000000E-01  8.50000000E-01
  8.00000000E-01  8.50000000E-01  8.50000000E-01  8.50000000E-01  8.00000000E-01
  8.50000000E-01  8.50000000E-01  8.50000000E-01  8.00000000E-01  8.50000000E-01
  8.50000000E-01  8.50000000E-01  8.00000000E-01  8.50000000E-01  8.50000000E-01
  8.50000000E-01  8.00000000E-01  8.50000000E-01  8.50000000E-01  8.50000000E-01
  8.00000000E-01  8.50000000E-01  8.50000000E-01  8.50000000E-01  8.00000000E-01
  8.50000000E-01  8.50000000E-01  8.50000000E-01  8.00000000E-01  8.50000000E-01
  8.50000000E-01  8.50000000E-01  8.00000000E-01  8.50000000E-01  8.50000000E-01
  8.50000000E-01  8.00000000E-01  8.50000000E-01  8.50000000E-01  8.50000000E-01
  8.00000000E-01  8.50000000E-01  8.50000000E-01  8.50000000E-01  8.00000000E-01
  8.50000000E-01  8.50000000E-01  8.50000000E-01  8.00000000E-01  8.50000000E-01
  8.50000000E-01  8.50000000E-01  8.00000000E-01  8.50000000E-01  8.50000000E-01
  8.50000000E-01  8.00000000E-01  8.50000000E-01  8.50000000E-01  8.50000000E-01
  8.00000000E-01  8.50000000E-01  8.50000000E-01  8.50000000E-01  8.00000000E-01
  8.50000000E-01  8.50000000E-01  8.50000000E-01  8.00000000E-01  8.50000000E-01
  8.50000000E-01  8.50000000E-01  8.00000000E-01  8.50000000E-01  8.50000000E-01
  8.50000000E-01  8.00000000E-01  8.50000000E-01  8.50000000E-01  8.50000000E-01
  8.00000000E-01  8.50000000E-01  8.50000000E-01  8.50000000E-01  8.00000000E-01
  8.50000000E-01  8.50000000E-01  8.50000000E-01  8.00000000E-01  8.50000000E-01
  8.50000000E-01  8.50000000E-01  8.00000000E-01  8.50000000E-01  8.50000000E-01
  8.50000000E-01  8.00000000E-01  8.50000000E-01  8.50000000E-01  8.50000000E-01
  8.00000000E-01  8.50000000E-01  8.50000000E-01  8.50000000E-01  8.00000000E-01
  8.50000000E-01  8.50000000E-01  8.50000000E-01  8.00000000E-01  8.50000000E-01
  8.50000000E-01  8.50000000E-01  8.00000000E-01  8.50000000E-01  8.50000000E-01
  8.50000000E-01  8.00000000E-01  8.50000000E-01  8.50000000E-01  8.50000000E-01
  8.00000000E-01  8.50000000E-01  8.50000000E-01  8.50000000E-01  8.00000000E-01
  8.50000000E-01  8.50000000E-01  8.50000000E-01  8.00000000E-01  8.50000000E-01
  8.50000000E-01  8.50000000E-01  8.00000000E-01  8.50000000E-01  8.50000000E-01
  8.50000000E-01  8.00000000E-01  8.50000000E-01  8.50000000E-01  8.50000000E-01
  8.00000000E-01  8.50000000E-01  8.50000000E-01  8.50000000E-01  8.00000000E-01
  8.50000000E-01  8.50000000E-01  8.50000000E-01  8.00000000E-01  8.50000000E-01
  8.50000000E-01  8.50000000E-01  8.00000000E-01  8.50000000E-01  8.50000000E-01
  8.50000000E-01  8.00000000E-01  8.50000000E-01  8.50000000E-01  8.50000000E-01
  8.00000000E-01  8.50000000E-01  8.50000000E-01  8.50000000E-01  8.00000000E-01
  8.50000000E-01  8.50000000E-01  8.50000000E-01  8.00000000E-01  8.50000000E-01
  8.50000000E-01  8.50000000E-01  8.00000000E-01  8.50000000E-01  8.50000000E-01
  8.50000000E-01  8.00000000E-01  8.50000000E-01  8.50000000E-01  8.50000000E-01
  8.00000000E-01  8.50000000E-01  8.50000000E-01  8.50000000E-01  8.00000000E-01
  8.50000000E-01  8.50000000E-01  8.50000000E-01  8.00000000E-01  8.50000000E-01
  8.50000000E-01  8.50000000E-01  8.00000000E-01  8.50000000E-01  8.50000000E-01
  8.50000000E-01  8.00000000E-01  8.50000000E-01  8.50000000E-01  8.50000000E-01
  8.00000000E-01  8.50000000E-01  8.50000000E-01  8.50000000E-01  8.00000000E-01
  8.50000000E-01  8.50000000E-01  8.50000000E-01  8.00000000E-01  8.50000000E-01
  8.50000000E-01  8.50000000E-01  8.00000000E-01  8.50000000E-01  8.50000000E-01
  8.50000000E-01  8.00000000E-01  8.50000000E-01  8.50000000E-01  8.50000000E-01
  8.00000000E-01  8.50000000E-01  8.50000000E-01  8.50000000E-01  8.00000000E-01
  8.50000000E-01  8.50000000E-01  8.50000000E-01  8.00000000E-01  8.50000000E-01
  8.50000000E-01  8.50000000E-01  8.00000000E-01  8.50000000E-01  8.50000000E-01
  8.50000000E-01  8.00000000E-01  8.50000000E-01  8.50000000E-01  8.50000000E-01
  8.00000000E-01  8.50000000E-01  8.50000000E-01  8.50000000E-01  8.00000000E-01
  8.50000000E-01  8.50000000E-01  8.50000000E-01  8.00000000E-01  8.50000000E-01
  8.50000000E-01  8.50000000E-01  8.00000000E-01  8.50000000E-01  8.50000000E-01
  8.50000000E-01  8.00000000E-01  8.50000000E-01  8.50000000E-01  8.50000000E-01
  8.00000000E-01  8.50000000E-01  8.50000000E-01  8.50000000E-01  8.00000000E-01
  8.50000000E-01  8.50000000E-01  8.50000000E-01  8.00000000E-01  8.50000000E-01
  8.50000000E-01  8.50000000E-01  8.00000000E-01  8.50000000E-01  8.50000000E-01
  8.50000000E-01  8.00000000E-01  8.50000000E-01  8.50000000E-01  8.50000000E-01
  8.00000000E-01  8.50000000E-01  8.50000000E-01  8.50000000E-01  8.00000000E-01
  8.50000000E-01  8.50000000E-01  8.50000000E-01  8.00000000E-01  8.50000000E-01
  8.50000000E-01  8.50000000E-01  8.00000000E-01  8.50000000E-01  8.50000000E-01
  8.50000000E-01  8.00000000E-01  8.50000000E-01  8.50000000E-01  8.50000000E-01
  8.00000000E-01  8.50000000E-01  8.50000000E-01  8.50000000E-01  8.00000000E-01
  8.50000000E-01  8.50000000E-01  8.50000000E-01  8.00000000E-01  8.50000000E-01
  8.50000000E-01  8.50000000E-01  8.00000000E-01  8.50000000E-01  8.50000000E-01
  8.50000000E-01  8.00000000E-01  8.50000000E-01  8.50000000E-01  8.50000000E-01
  8.00000000E-01  8.50000000E-01  8.50000000E-01  8.50000000E-01  8.00000000E-01
  8.50000000E-01  8.50000000E-01  8.50000000E-01  8.00000000E-01  8.50000000E-01
  8.50000000E-01  8.50000000E-01  8.00000000E-01  8.50000000E-01  8.50000000E-01
  8.50000000E-01  8.00000000E-01  8.50000000E-01  8.50000000E-01  8.50000000E-01
  8.00000000E-01  8.50000000E-01  8.50000000E-01  8.50000000E-01  8.00000000E-01
  8.50000000E-01  8.50000000E-01  8.50000000E-01  8.00000000E-01  8.50000000E-01
  8.50000000E-01  8.50000000E-01  8.00000000E-01  8.50000000E-01  8.50000000E-01
  8.50000000E-01  8.00000000E-01  8.50000000E-01  8.50000000E-01  8.50000000E-01
  8.00000000E-01  8.50000000E-01  8.50000000E-01  8.50000000E-01  8.00000000E-01
  8.50000000E-01  8.50000000E-01  8.50000000E-01  8.00000000E-01  8.50000000E-01
  8.50000000E-01  8.50000000E-01  8.00000000E-01  8.50000000E-01  8.50000000E-01
  8.50000000E-01  8.00000000E-01  8.50000000E-01  8.50000000E-01  8.50000000E-01
  8.00000000E-01  8.50000000E-01  8.50000000E-01  8.50000000E-01  8.00000000E-01
  8.50000000E-01  8.50000000E-01  8.50000000E-01  8.00000000E-01  8.50000000E-01
  8.50000000E-01  8.50000000E-01  8.00000000E-01  8.50000000E-01  8.50000000E-01
  8.50000000E-01  8.00000000E-01  8.50000000E-01  8.50000000E-01  8.50000000E-01
  8.00000000E-01  8.50000000E-01  8.50000000E-01  8.50000000E-01  8.00000000E-01
  8.50000000E-01  8.50000000E-01  8.50000000E-01  8.00000000E-01  8.50000000E-01
  8.50000000E-01  8.50000000E-01  8.00000000E-01  8.50000000E-01  8.50000000E-01
  8.50000000E-01  8.00000000E-01  8.50000000E-01  8.50000000E-01  8.50000000E-01
  8.00000000E-01  8.50000000E-01  8.50000000E-01  8.50000000E-01  8.00000000E-01
  8.50000000E-01  8.50000000E-01  8.50000000E-01  8.00000000E-01  8.50000000E-01
  8.50000000E-01  8.50000000E-01  8.00000000E-01  8.50000000E-01  8.50000000E-01
  8.50000000E-01  8.00000000E-01  8.50000000E-01  8.50000000E-01  8.50000000E-01
  8.00000000E-01  8.50000000E-01  8.50000000E-01  8.50000000E-01  8.00000000E-01
  8.50000000E-01  8.50000000E-01  8.50000000E-01  8.00000000E-01  8.50000000E-01
  8.50000000E-01  8.50000000E-01  8.00000000E-01  8.50000000E-01  8.50000000E-01
  8.50000000E-01  8.00000000E-01  8.50000000E-01  8.50000000E-01  8.50000000E-01
  8.00000000E-01  8.50000000E-01  8.50000000E-01  8.50000000E-01  8.00000000E-01
  8.50000000E-01  8.50000000E-01  8.50000000E-01  8.00000000E-01  8.50000000E-01
  8.50000000E-01  8.50000000E-01  8.00000000E-01  8.50000000E-01  8.50000000E-01
  8.50000000E-01  8.00000000E-01  8.50000000E-01  8.50000000E-01  8.50000000E-01
  8.00000000E-01  8.50000000E-01  8.50000000E-01  8.50000000E-01  8.00000000E-01
  8.50000000E-01  8.50000000E-01  8.50000000E-01  8.00000000E-01  8.50000000E-01
  8.50000000E-01  8.50000000E-01  8.00000000E-01  8.50000000E-01  8.50000000E-01
  8.50000000E-01  8.00000000E-01  8.50000000E-01  8.50000000E-01  8.50000000E-01
  8.00000000E-01  8.50000000E-01  8.50000000E-01  8.50000000E-01  8.00000000E-01
  8.50000000E-01  8.50000000E-01  8.50000000E-01  8.00000000E-01  8.50000000E-01
  8.50000000E-01  8.50000000E-01  8.00000000E-01  8.50000000E-01  8.50000000E-01
  8.50000000E-01  8.00000000E-01  8.50000000E-01  8.50000000E-01  8.50000000E-01
  8.00000000E-01  8.50000000E-01  8.50000000E-01  8.50000000E-01  8.00000000E-01
  8.50000000E-01  8.50000000E-01  8.50000000E-01  8.00000000E-01  8.50000000E-01
  8.50000000E-01  8.50000000E-01  8.00000000E-01  8.50000000E-01  8.50000000E-01
  8.50000000E-01  8.00000000E-01  8.50000000E-01  8.50000000E-01  8.50000000E-01
  8.00000000E-01  8.50000000E-01  8.50000000E-01  8.50000000E-01  8.00000000E-01
  8.50000000E-01  8.50000000E-01  8.50000000E-01  8.00000000E-01  8.50000000E-01
  8.50000000E-01  8.50000000E-01  8.00000000E-01  8.50000000E-01  8.50000000E-01
  8.50000000E-01  8.00000000E-01  8.50000000E-01  8.50000000E-01  8.50000000E-01
  8.00000000E-01  8.50000000E-01  8.50000000E-01  8.50000000E-01  8.00000000E-01
  8.50000000E-01  8.50000000E-01  8.50000000E-01  8.00000000E-01  8.50000000E-01
  8.50000000E-01  8.50000000E-01  8.00000000E-01  8.50000000E-01  8.50000000E-01
  8.50000000E-01  8.00000000E-01  8.50000000E-01  8.50000000E-01  8.50000000E-01
  8.00000000E-01  8.50000000E-01  8.50000000E-01  8.50000000E-01  8.00000000E-01
  8.50000000E-01  8.50000000E-01  8.50000000E-01  8.00000000E-01  8.50000000E-01
  8.50000000E-01  8.50000000E-01  8.00000000E-01  8.50000000E-01  8.50000000E-01
  8.50000000E-01  8.00000000E-01  8.50000000E-01  8.50000000E-01  8.50000000E-01
  8.00000000E-01  8.50000000E-01  8.50000000E-01  8.50000000E-01  8.00000000E-01
  8.50000000E-01  8.50000000E-01  8.50000000E-01  8.00000000E-01  8.50000000E-01
  8.50000000E-01  8.50000000E-01  8.00000000E-01  8.50000000E-01  8.50000000E-01
  8.50000000E-01  8.00000000E-01  8.50000000E-01  8.50000000E-01  8.50000000E-01
  8.00000000E-01  8.50000000E-01  8.50000000E-01  8.50000000E-01  8.00000000E-01
  8.50000000E-01  8.50000000E-01  8.50000000E-01  8.00000000E-01  8.50000000E-01
  8.50000000E-01  8.50000000E-01  8.00000000E-01  8.50000000E-01  8.50000000E-01
  8.50000000E-01  8.00000000E-01  8.50000000E-01  8.50000000E-01  8.50000000E-01
  8.00000000E-01  8.50000000E-01  8.50000000E-01  8.50000000E-01  8.00000000E-01
  8.50000000E-01  8.50000000E-01  8.50000000E-01  8.00000000E-01  8.50000000E-01
  8.50000000E-01  8.50000000E-01  8.00000000E-01  8.50000000E-01  8.50000000E-01
  8.50000000E-01  8.00000000E-01  8.50000000E-01  8.50000000E-01  8.50000000E-01
  8.00000000E-01  8.50000000E-01  8.50000000E-01  8.50000000E-01  8.00000000E-01
  8.50000000E-01  8.50000000E-01  8.50000000E-01  8.00000000E-01  8.50000000E-01
  8.50000000E-01  8.50000000E-01  8.00000000E-01  8.50000000E-01  8.50000000E-01
  8.50000000E-01  8.00000000E-01  8.50000000E-01  8.50000000E-01  8.50000000E-01
  8.00000000E-01  8.50000000E-01  8.50000000E-01  8.50000000E-01  8.00000000E-01
  8.50000000E-01  8.50000000E-01  8.50000000E-01  8.00000000E-01  8.50000000E-01
  8.50000000E-01  8.50000000E-01  8.00000000E-01  8.50000000E-01  8.50000000E-01
  8.50000000E-01  8.00000000E-01  8.50000000E-01  8.50000000E-01  8.50000000E-01
  8.00000000E-01  8.50000000E-01  8.50000000E-01  8.50000000E-01  8.00000000E-01
  8.50000000E-01  8.50000000E-01  8.50000000E-01  8.00000000E-01  8.50000000E-01
  8.50000000E-01  8.50000000E-01  8.00000000E-01  8.50000000E-01  8.50000000E-01
  8.50000000E-01  8.00000000E-01  8.50000000E-01  8.50000000E-01  8.50000000E-01
  8.00000000E-01  8.50000000E-01  8.50000000E-01  8.50000000E-01  8.00000000E-01
  8.50000000E-01  8.50000000E-01  8.50000000E-01  8.00000000E-01  8.50000000E-01
  8.50000000E-01  8.50000000E-01  8.00000000E-01  8.50000000E-01  8.50000000E-01
  8.50000000E-01  8.00000000E-01  8.50000000E-01  8.50000000E-01  8.50000000E-01
  8.00000000E-01  8.50000000E-01  8.50000000E-01  8.50000000E-01  8.00000000E-01
  8.50000000E-01  8.50000000E-01  8.50000000E-01  8.00000000E-01  8.50000000E-01
  8.50000000E-01  8.50000000E-01  8.00000000E-01  8.50000000E-01  8.50000000E-01
  8.50000000E-01  8.00000000E-01  8.50000000E-01  8.50000000E-01  8.50000000E-01
  8.00000000E-01  8.50000000E-01  8.50000000E-01  8.50000000E-01  8.00000000E-01
  8.50000000E-01  8.50000000E-01  8.50000000E-01  8.00000000E-01  8.50000000E-01
  8.50000000E-01  8.50000000E-01  8.00000000E-01  8.50000000E-01  8.50000000E-01
  8.50000000E-01  8.00000000E-01  8.50000000E-01  8.50000000E-01  8.50000000E-01
  8.00000000E-01  8.50000000E-01  8.50000000E-01  8.50000000E-01  8.00000000E-01
  8.50000000E-01  8.50000000E-01  8.50000000E-01  8.00000000E-01  8.50000000E-01
  8.50000000E-01  8.50000000E-01  8.00000000E-01  8.50000000E-01  8.50000000E-01
  8.50000000E-01  8.00000000E-01  8.50000000E-01  8.50000000E-01  8.50000000E-01
  8.00000000E-01  8.50000000E-01  8.50000000E-01  8.50000000E-01  8.00000000E-01
  8.50000000E-01  8.50000000E-01  8.50000000E-01  8.00000000E-01  8.50000000E-01
  8.50000000E-01  8.50000000E-01  8.00000000E-01  8.50000000E-01  8.50000000E-01
  8.50000000E-01  8.00000000E-01  8.50000000E-01  8.50000000E-01  8.50000000E-01
  8.00000000E-01  8.50000000E-01  8.50000000E-01  8.50000000E-01  8.00000000E-01
  8.50000000E-01  8.50000000E-01  8.50000000E-01  8.00000000E-01  8.50000000E-01
  8.50000000E-01  8.50000000E-01  8.00000000E-01  8.50000000E-01  8.50000000E-01
  8.50000000E-01  8.00000000E-01  8.50000000E-01  8.50000000E-01  8.50000000E-01
  8.00000000E-01  8.50000000E-01  8.50000000E-01  8.50000000E-01  8.00000000E-01
  8.50000000E-01  8.50000000E-01  8.50000000E-01  8.00000000E-01  8.50000000E-01
  8.50000000E-01  8.50000000E-01  8.00000000E-01  8.50000000E-01  8.50000000E-01
  8.50000000E-01  8.00000000E-01  8.50000000E-01  8.50000000E-01  8.50000000E-01
  8.00000000E-01  8.50000000E-01  8.50000000E-01  8.50000000E-01  8.00000000E-01
  8.50000000E-01  8.50000000E-01  8.50000000E-01  8.00000000E-01  8.50000000E-01
  8.50000000E-01  8.50000000E-01  8.00000000E-01  8.50000000E-01  8.50000000E-01
  8.50000000E-01  8.00000000E-01  8.50000000E-01  8.50000000E-01  8.50000000E-01
  8.00000000E-01  8.50000000E-01  8.50000000E-01  8.50000000E-01  8.00000000E-01
  8.50000000E-01  8.50000000E-01  8.50000000E-01  8.00000000E-01  8.50000000E-01
  8.50000000E-01  8.50000000E-01  8.00000000E-01  8.50000000E-01  8.50000000E-01
  8.50000000E-01  8.00000000E-01  8.50000000E-01  8.50000000E-01  8.50000000E-01
  8.00000000E-01  8.50000000E-01  8.50000000E-01  8.50000000E-01  8.00000000E-01
  8.50000000E-01  8.50000000E-01  8.50000000E-01  8.00000000E-01  8.50000000E-01
  8.50000000E-01  8.50000000E-01  8.00000000E-01  8.50000000E-01  8.50000000E-01
  8.50000000E-01  8.00000000E-01  8.50000000E-01  8.50000000E-01  8.50000000E-01
  8.00000000E-01  8.50000000E-01  8.50000000E-01  8.50000000E-01  8.00000000E-01
  8.50000000E-01  8.50000000E-01  8.50000000E-01  8.00000000E-01  8.50000000E-01
  8.50000000E-01  8.50000000E-01  8.00000000E-01  8.50000000E-01  8.50000000E-01
  8.50000000E-01  8.00000000E-01  8.50000000E-01  8.50000000E-01  8.50000000E-01
  8.00000000E-01  8.50000000E-01  8.50000000E-01  8.50000000E-01  8.00000000E-01
  8.50000000E-01  8.50000000E-01  8.50000000E-01  8.00000000E-01  8.50000000E-01
  8.50000000E-01  8.50000000E-01  8.00000000E-01  8.50000000E-01  8.50000000E-01
  8.50000000E-01  8.00000000E-01  8.50000000E-01  8.50000000E-01  8.50000000E-01
  8.00000000E-01  8.50000000E-01  8.50000000E-01  8.50000000E-01  8.00000000E-01
  8.50000000E-01  8.50000000E-01  8.50000000E-01  8.00000000E-01  8.50000000E-01
  8.50000000E-01  8.50000000E-01  8.00000000E-01  8.50000000E-01  8.50000000E-01
  8.50000000E-01  8.00000000E-01  8.50000000E-01  8.50000000E-01  8.50000000E-01
  8.00000000E-01  8.50000000E-01  8.50000000E-01  8.50000000E-01  8.00000000E-01
  8.50000000E-01  8.50000000E-01  8.50000000E-01  8.00000000E-01  8.50000000E-01
  8.50000000E-01  8.50000000E-01  8.00000000E-01  8.50000000E-01  8.50000000E-01
  8.50000000E-01  8.00000000E-01  8.50000000E-01  8.50000000E-01  8.50000000E-01
  8.00000000E-01  8.50000000E-01  8.50000000E-01  8.50000000E-01  8.00000000E-01
  8.50000000E-01  8.50000000E-01  8.50000000E-01  8.00000000E-01  8.50000000E-01
  8.50000000E-01  8.50000000E-01  8.00000000E-01  8.50000000E-01  8.50000000E-01
  8.50000000E-01  8.00000000E-01  8.50000000E-01  8.50000000E-01  8.50000000E-01
  8.00000000E-01  8.50000000E-01  8.50000000E-01  8.50000000E-01  8.00000000E-01
  8.50000000E-01  8.50000000E-01  8.50000000E-01  8.00000000E-01  8.50000000E-01
  8.50000000E-01  8.50000000E-01  8.00000000E-01  8.50000000E-01  8.50000000E-01
  8.50000000E-01  8.00000000E-01  8.50000000E-01  8.50000000E-01  8.50000000E-01
  8.00000000E-01  8.50000000E-01  8.50000000E-01  8.50000000E-01  8.00000000E-01
  8.50000000E-01  8.50000000E-01  8.50000000E-01  8.00000000E-01  8.50000000E-01
  8.50000000E-01  8.50000000E-01  8.00000000E-01  8.50000000E-01  8.50000000E-01
  8.50000000E-01  8.00000000E-01  8.50000000E-01  8.50000000E-01  8.50000000E-01
  8.00000000E-01  8.50000000E-01  8.50000000E-01  8.50000000E-01  8.00000000E-01
  8.50000000E-01  8.50000000E-01  8.50000000E-01  8.00000000E-01  8.50000000E-01
  8.50000000E-01  8.50000000E-01  8.00000000E-01  8.50000000E-01  8.50000000E-01
  8.50000000E-01  8.00000000E-01  8.50000000E-01  8.50000000E-01  8.50000000E-01
  8.00000000E-01  8.50000000E-01  8.50000000E-01  8.50000000E-01  8.00000000E-01
  8.50000000E-01  8.50000000E-01  8.50000000E-01  8.00000000E-01  8.50000000E-01
  8.50000000E-01  8.50000000E-01  8.00000000E-01  8.50000000E-01  8.50000000E-01
  8.50000000E-01  8.00000000E-01  8.50000000E-01  8.50000000E-01  8.50000000E-01
  8.00000000E-01  8.50000000E-01  8.50000000E-01  8.50000000E-01  8.00000000E-01
  8.50000000E-01  8.50000000E-01  8.50000000E-01  8.00000000E-01  8.50000000E-01
  8.50000000E-01  8.50000000E-01  8.00000000E-01  8.50000000E-01  8.50000000E-01
  8.50000000E-01  8.00000000E-01  8.50000000E-01  8.50000000E-01  8.50000000E-01
  8.00000000E-01  8.50000000E-01  8.50000000E-01  8.50000000E-01  8.00000000E-01
  8.50000000E-01  8.50000000E-01  8.50000000E-01  8.00000000E-01  8.50000000E-01
  8.50000000E-01  8.50000000E-01  8.00000000E-01  8.50000000E-01  8.50000000E-01
  8.50000000E-01  8.00000000E-01  8.50000000E-01  8.50000000E-01  8.50000000E-01
  8.00000000E-01  8.50000000E-01  8.50000000E-01  8.50000000E-01  8.00000000E-01
  8.50000000E-01  8.50000000E-01  8.50000000E-01  8.00000000E-01  8.50000000E-01
  8.50000000E-01  8.50000000E-01  8.00000000E-01  8.50000000E-01  8.50000000E-01
  8.50000000E-01  8.00000000E-01  8.50000000E-01  8.50000000E-01  8.50000000E-01
  8.00000000E-01  8.50000000E-01  8.50000000E-01  8.50000000E-01  8.00000000E-01
  8.50000000E-01  8.50000000E-01  8.50000000E-01  8.00000000E-01  8.50000000E-01
  8.50000000E-01  8.50000000E-01  8.00000000E-01  8.50000000E-01  8.50000000E-01
  8.50000000E-01  8.00000000E-01  8.50000000E-01  8.50000000E-01  8.50000000E-01
  8.00000000E-01  8.50000000E-01  8.50000000E-01  8.50000000E-01  8.00000000E-01
  8.50000000E-01  8.50000000E-01  8.50000000E-01  8.00000000E-01  8.50000000E-01
  8.50000000E-01  8.50000000E-01  8.00000000E-01  8.50000000E-01  8.50000000E-01
  8.50000000E-01  8.00000000E-01  8.50000000E-01  8.50000000E-01  8.50000000E-01
  8.00000000E-01  8.50000000E-01  8.50000000E-01  8.50000000E-01  8.00000000E-01
  8.50000000E-01  8.50000000E-01  8.50000000E-01  8.00000000E-01  8.50000000E-01
  8.50000000E-01  8.50000000E-01  8.00000000E-01  8.50000000E-01  8.50000000E-01
  8.50000000E-01  8.00000000E-01  8.50000000E-01  8.50000000E-01  8.50000000E-01
  8.00000000E-01  8.50000000E-01  8.50000000E-01  8.50000000E-01  8.00000000E-01
  8.50000000E-01  8.50000000E-01  8.50000000E-01  8.00000000E-01  8.50000000E-01
  8.50000000E-01  8.50000000E-01  8.00000000E-01  8.50000000E-01  8.50000000E-01
  8.50000000E-01  8.00000000E-01  8.50000000E-01  8.50000000E-01  8.50000000E-01
  8.00000000E-01  8.50000000E-01  8.50000000E-01  8.50000000E-01  8.00000000E-01
  8.50000000E-01  8.50000000E-01  8.50000000E-01  8.00000000E-01  8.50000000E-01
  8.50000000E-01  8.50000000E-01  8.00000000E-01  8.50000000E-01  8.50000000E-01
  8.50000000E-01  8.00000000E-01  8.50000000E-01  8.50000000E-01  8.50000000E-01
  8.00000000E-01  8.50000000E-01  8.50000000E-01  8.50000000E-01  8.00000000E-01
  8.50000000E-01  8.50000000E-01  8.50000000E-01  8.00000000E-01  8.50000000E-01
  8.50000000E-01  8.50000000E-01  8.00000000E-01  8.50000000E-01  8.50000000E-01
  8.50000000E-01  8.00000000E-01  8.50000000E-01  8.50000000E-01  8.50000000E-01
  8.00000000E-01  8.50000000E-01  8.50000000E-01  8.50000000E-01  8.00000000E-01
  8.50000000E-01  8.50000000E-01  8.50000000E-01  8.00000000E-01  8.50000000E-01
  8.50000000E-01  8.50000000E-01  8.00000000E-01  8.50000000E-01  8.50000000E-01
  8.50000000E-01  8.00000000E-01  8.50000000E-01  8.50000000E-01  8.50000000E-01
  8.00000000E-01  8.50000000E-01  8.50000000E-01  8.50000000E-01  8.00000000E-01
  8.50000000E-01  8.50000000E-01  8.50000000E-01  8.00000000E-01  8.50000000E-01
  8.50000000E-01  8.50000000E-01  8.00000000E-01  8.50000000E-01  8.50000000E-01
  8.50000000E-01  8.00000000E-01  8.50000000E-01  8.50000000E-01  8.50000000E-01
  8.00000000E-01  8.50000000E-01  8.50000000E-01  8.50000000E-01  8.00000000E-01
  8.50000000E-01  8.50000000E-01  8.50000000E-01  8.00000000E-01  8.50000000E-01
  8.50000000E-01  8.50000000E-01  8.00000000E-01  8.50000000E-01  8.50000000E-01
  8.50000000E-01  8.00000000E-01  8.50000000E-01  8.50000000E-01  8.50000000E-01
  8.00000000E-01  8.50000000E-01  8.50000000E-01  8.50000000E-01  8.00000000E-01
  8.50000000E-01  8.50000000E-01  8.50000000E-01  8.00000000E-01  8.50000000E-01
  8.50000000E-01  8.50000000E-01  8.00000000E-01  8.50000000E-01  8.50000000E-01
  8.50000000E-01  8.00000000E-01  8.50000000E-01  8.50000000E-01  8.50000000E-01
  8.00000000E-01  8.50000000E-01  8.50000000E-01  8.50000000E-01  8.00000000E-01
  8.50000000E-01  8.50000000E-01  8.50000000E-01  8.00000000E-01  8.50000000E-01
  8.50000000E-01  8.50000000E-01  8.00000000E-01  8.50000000E-01  8.50000000E-01
  8.50000000E-01  8.00000000E-01  8.50000000E-01  8.50000000E-01  8.50000000E-01
  8.00000000E-01  8.50000000E-01  8.50000000E-01  8.50000000E-01  8.00000000E-01
  8.50000000E-01  8.50000000E-01  8.50000000E-01  8.00000000E-01  8.50000000E-01
  8.50000000E-01  8.50000000E-01  8.00000000E-01  8.50000000E-01  8.50000000E-01
  8.50000000E-01  8.00000000E-01  8.50000000E-01  8.50000000E-01  8.50000000E-01
  8.00000000E-01  8.50000000E-01  8.50000000E-01  8.50000000E-01  8.00000000E-01
  8.50000000E-01  8.50000000E-01  8.50000000E-01  8.00000000E-01  8.50000000E-01
  8.50000000E-01  8.50000000E-01  8.00000000E-01  8.50000000E-01  8.50000000E-01
  8.50000000E-01  8.00000000E-01  8.50000000E-01  8.50000000E-01  8.50000000E-01
  8.00000000E-01  8.50000000E-01  8.50000000E-01  8.50000000E-01  8.00000000E-01
  8.50000000E-01  8.50000000E-01  8.50000000E-01  8.00000000E-01  8.50000000E-01
  8.50000000E-01  8.50000000E-01  8.00000000E-01  8.50000000E-01  8.50000000E-01
  8.50000000E-01  8.00000000E-01  8.50000000E-01  8.50000000E-01  8.50000000E-01
  8.00000000E-01  8.50000000E-01  8.50000000E-01  8.50000000E-01  8.00000000E-01
  8.50000000E-01  8.50000000E-01  8.50000000E-01  8.00000000E-01  8.50000000E-01
  8.50000000E-01  8.50000000E-01  8.00000000E-01  8.50000000E-01  8.50000000E-01
  8.50000000E-01  8.00000000E-01  8.50000000E-01  8.50000000E-01  8.50000000E-01
  8.00000000E-01  8.50000000E-01  8.50000000E-01  8.50000000E-01  8.00000000E-01
  8.50000000E-01  8.50000000E-01  8.50000000E-01  8.00000000E-01  8.50000000E-01
  8.50000000E-01  8.50000000E-01  8.00000000E-01  8.50000000E-01  8.50000000E-01
  8.50000000E-01  8.00000000E-01  8.50000000E-01  8.50000000E-01  8.50000000E-01
  8.00000000E-01  8.50000000E-01  8.50000000E-01  8.50000000E-01  8.00000000E-01
  8.50000000E-01  8.50000000E-01  8.50000000E-01  8.00000000E-01  8.50000000E-01
  8.50000000E-01  8.50000000E-01  8.00000000E-01  8.50000000E-01  8.50000000E-01
  8.50000000E-01  8.00000000E-01  8.50000000E-01  8.50000000E-01  8.50000000E-01
  8.00000000E-01  8.50000000E-01  8.50000000E-01  8.50000000E-01  8.00000000E-01
  8.50000000E-01  8.50000000E-01  8.50000000E-01  8.00000000E-01  8.50000000E-01
  8.50000000E-01  8.50000000E-01  8.00000000E-01  8.50000000E-01  8.50000000E-01
  8.50000000E-01  8.00000000E-01  8.50000000E-01  8.50000000E-01  8.50000000E-01
  8.00000000E-01  8.50000000E-01  8.50000000E-01  8.50000000E-01  8.00000000E-01
  8.50000000E-01  8.50000000E-01  8.50000000E-01  8.00000000E-01  8.50000000E-01
  8.50000000E-01  8.50000000E-01  8.00000000E-01  8.50000000E-01  8.50000000E-01
  8.50000000E-01  8.00000000E-01  8.50000000E-01  8.50000000E-01  8.50000000E-01
  8.00000000E-01  8.50000000E-01  8.50000000E-01  8.50000000E-01  8.00000000E-01
  8.50000000E-01  8.50000000E-01  8.50000000E-01  8.00000000E-01  8.50000000E-01
  8.50000000E-01  8.50000000E-01  8.00000000E-01  8.50000000E-01  8.50000000E-01
  8.50000000E-01  8.00000000E-01  8.50000000E-01  8.50000000E-01  8.50000000E-01
  8.00000000E-01  8.50000000E-01  8.50000000E-01  8.50000000E-01  8.00000000E-01
  8.50000000E-01  8.50000000E-01  8.50000000E-01  8.00000000E-01  8.50000000E-01
  8.50000000E-01  8.50000000E-01  8.00000000E-01  8.50000000E-01  8.50000000E-01
  8.50000000E-01  8.00000000E-01  8.50000000E-01  8.50000000E-01  8.50000000E-01
  8.00000000E-01  8.50000000E-01  8.50000000E-01  8.50000000E-01  8.00000000E-01
  8.50000000E-01  8.50000000E-01  8.50000000E-01  8.00000000E-01  8.50000000E-01
  8.50000000E-01  8.50000000E-01  8.00000000E-01  8.50000000E-01  8.50000000E-01
  8.50000000E-01  8.00000000E-01  8.50000000E-01  8.50000000E-01  8.50000000E-01
  8.00000000E-01  8.50000000E-01  8.50000000E-01  8.50000000E-01  8.00000000E-01
  8.50000000E-01  8.50000000E-01  8.50000000E-01  8.00000000E-01  8.50000000E-01
  8.50000000E-01  8.50000000E-01  8.00000000E-01  8.50000000E-01  8.50000000E-01
  8.50000000E-01  8.00000000E-01  8.50000000E-01  8.50000000E-01  8.50000000E-01
  8.00000000E-01  8.50000000E-01  8.50000000E-01  8.50000000E-01  8.00000000E-01
  8.50000000E-01  8.50000000E-01  8.50000000E-01  8.00000000E-01  8.50000000E-01
  8.50000000E-01  8.50000000E-01  8.00000000E-01  8.50000000E-01  8.50000000E-01
  8.50000000E-01  8.00000000E-01  8.50000000E-01  8.50000000E-01  8.50000000E-01
  8.00000000E-01  8.50000000E-01  8.50000000E-01  8.50000000E-01  8.00000000E-01
  8.50000000E-01  8.50000000E-01  8.50000000E-01  8.00000000E-01  8.50000000E-01
  8.50000000E-01  8.50000000E-01  8.00000000E-01  8.50000000E-01  8.50000000E-01
  8.50000000E-01  8.00000000E-01  8.50000000E-01  8.50000000E-01  8.50000000E-01
  8.00000000E-01  8.50000000E-01  8.50000000E-01  8.50000000E-01  8.00000000E-01
  8.50000000E-01  8.50000000E-01  8.50000000E-01  8.00000000E-01  8.50000000E-01
  8.50000000E-01  8.50000000E-01  8.00000000E-01  8.50000000E-01  8.50000000E-01
  8.50000000E-01  8.00000000E-01  8.50000000E-01  8.50000000E-01  8.50000000E-01
  8.00000000E-01  8.50000000E-01  8.50000000E-01  8.50000000E-01  8.00000000E-01
  8.50000000E-01  8.50000000E-01  8.50000000E-01  8.00000000E-01  8.50000000E-01
  8.50000000E-01  8.50000000E-01  8.00000000E-01  8.50000000E-01  8.50000000E-01
  8.50000000E-01  8.00000000E-01  8.50000000E-01  8.50000000E-01  8.50000000E-01
  8.00000000E-01  8.50000000E-01  8.50000000E-01  8.50000000E-01  8.00000000E-01
  8.50000000E-01  8.50000000E-01  8.50000000E-01  8.00000000E-01  8.50000000E-01
  8.50000000E-01  8.50000000E-01  8.00000000E-01  8.50000000E-01  8.50000000E-01
  8.50000000E-01  8.00000000E-01  8.50000000E-01  8.50000000E-01  8.50000000E-01
  8.00000000E-01  8.50000000E-01  8.50000000E-01  8.50000000E-01  8.00000000E-01
  8.50000000E-01  8.50000000E-01  8.50000000E-01  8.00000000E-01  8.50000000E-01
  8.50000000E-01  8.50000000E-01  8.00000000E-01  8.50000000E-01  8.50000000E-01
  8.50000000E-01  8.00000000E-01  8.50000000E-01  8.50000000E-01  8.50000000E-01
  8.00000000E-01  8.50000000E-01  8.50000000E-01  8.50000000E-01  8.00000000E-01
  8.50000000E-01  8.50000000E-01  8.50000000E-01  8.00000000E-01  8.50000000E-01
  8.50000000E-01  8.50000000E-01  8.00000000E-01  8.50000000E-01  8.50000000E-01
  8.50000000E-01  8.00000000E-01  8.50000000E-01  8.50000000E-01  8.50000000E-01
  8.00000000E-01  8.50000000E-01  8.50000000E-01  8.50000000E-01  8.00000000E-01
  8.50000000E-01  8.50000000E-01  8.50000000E-01  8.00000000E-01  8.50000000E-01
  8.50000000E-01  8.50000000E-01  8.00000000E-01  8.50000000E-01  8.50000000E-01
  8.50000000E-01  8.00000000E-01  8.50000000E-01  8.50000000E-01  8.50000000E-01
  8.00000000E-01  8.50000000E-01  8.50000000E-01  8.50000000E-01  8.00000000E-01
  8.50000000E-01  8.50000000E-01  8.50000000E-01  8.00000000E-01  8.50000000E-01
  8.50000000E-01  8.50000000E-01  8.00000000E-01  8.50000000E-01  8.50000000E-01
  8.50000000E-01  8.00000000E-01  8.50000000E-01  8.50000000E-01  8.50000000E-01
  8.00000000E-01  8.50000000E-01  8.50000000E-01  8.50000000E-01  8.00000000E-01
  8.50000000E-01  8.50000000E-01  8.50000000E-01  8.00000000E-01  8.50000000E-01
  8.50000000E-01  8.50000000E-01  8.00000000E-01  8.50000000E-01  8.50000000E-01
  8.50000000E-01  8.00000000E-01  8.50000000E-01  8.50000000E-01  8.50000000E-01
  8.00000000E-01  8.50000000E-01  8.50000000E-01  8.50000000E-01  8.00000000E-01
  8.50000000E-01  8.50000000E-01  8.50000000E-01  8.00000000E-01  8.50000000E-01
  8.50000000E-01  8.50000000E-01  8.00000000E-01  8.50000000E-01  8.50000000E-01
  8.50000000E-01  8.00000000E-01  8.50000000E-01  8.50000000E-01  8.50000000E-01
  8.00000000E-01  8.50000000E-01  8.50000000E-01  8.50000000E-01  8.00000000E-01
  8.50000000E-01  8.50000000E-01  8.50000000E-01  8.00000000E-01  8.50000000E-01
  8.50000000E-01  8.50000000E-01  8.00000000E-01  8.50000000E-01  8.50000000E-01
  8.50000000E-01  8.00000000E-01  8.50000000E-01  8.50000000E-01  8.50000000E-01
  8.00000000E-01  8.50000000E-01  8.50000000E-01  8.50000000E-01  8.00000000E-01
  8.50000000E-01  8.50000000E-01  8.50000000E-01  8.00000000E-01  8.50000000E-01
  8.50000000E-01  8.50000000E-01  8.00000000E-01  8.50000000E-01  8.50000000E-01
  8.50000000E-01  8.00000000E-01  8.50000000E-01  8.50000000E-01  8.50000000E-01
  8.00000000E-01  8.50000000E-01  8.50000000E-01  8.50000000E-01  8.00000000E-01
  8.50000000E-01  8.50000000E-01  8.50000000E-01  8.00000000E-01  8.50000000E-01
  8.50000000E-01  8.50000000E-01  8.00000000E-01  8.50000000E-01  8.50000000E-01
  8.50000000E-01  8.00000000E-01  8.50000000E-01  8.50000000E-01  8.50000000E-01
  8.00000000E-01  8.50000000E-01  8.50000000E-01  8.50000000E-01  8.00000000E-01
  8.50000000E-01  8.50000000E-01  8.50000000E-01  8.00000000E-01  8.50000000E-01
  8.50000000E-01  8.50000000E-01  8.00000000E-01  8.50000000E-01  8.50000000E-01
  8.50000000E-01  8.00000000E-01  8.50000000E-01  8.50000000E-01  8.50000000E-01
  8.00000000E-01  8.50000000E-01  8.50000000E-01  8.50000000E-01  8.00000000E-01
  8.50000000E-01  8.50000000E-01  8.50000000E-01  8.00000000E-01  8.50000000E-01
  8.50000000E-01  8.50000000E-01  8.00000000E-01  8.50000000E-01  8.50000000E-01
  8.50000000E-01  8.00000000E-01  8.50000000E-01  8.50000000E-01  8.50000000E-01
  8.00000000E-01  8.50000000E-01  8.50000000E-01  8.50000000E-01  8.00000000E-01
  8.50000000E-01  8.50000000E-01  8.50000000E-01  8.00000000E-01  8.50000000E-01
  8.50000000E-01  8.50000000E-01  8.00000000E-01  8.50000000E-01  8.50000000E-01
  8.50000000E-01  8.00000000E-01  8.50000000E-01  8.50000000E-01  8.50000000E-01
  8.00000000E-01  8.50000000E-01  8.50000000E-01  8.50000000E-01  8.00000000E-01
  8.50000000E-01  8.50000000E-01  8.50000000E-01  8.00000000E-01  8.50000000E-01
  8.50000000E-01  8.50000000E-01  8.00000000E-01  8.50000000E-01  8.50000000E-01
  8.50000000E-01  8.00000000E-01  8.50000000E-01  8.50000000E-01  8.50000000E-01
  8.00000000E-01  8.50000000E-01  8.50000000E-01  8.50000000E-01  8.00000000E-01
  8.50000000E-01  8.50000000E-01  8.50000000E-01  8.00000000E-01  8.50000000E-01
  8.50000000E-01  8.50000000E-01  8.00000000E-01  8.50000000E-01  8.50000000E-01
  8.50000000E-01  8.00000000E-01  8.50000000E-01  8.50000000E-01  8.50000000E-01
  8.00000000E-01  8.50000000E-01  8.50000000E-01  8.50000000E-01  8.00000000E-01
  8.50000000E-01  8.50000000E-01  8.50000000E-01  8.00000000E-01  8.50000000E-01
  8.50000000E-01  8.50000000E-01  8.00000000E-01  8.50000000E-01  8.50000000E-01
  8.50000000E-01  8.00000000E-01  8.50000000E-01  8.50000000E-01  8.50000000E-01
  8.00000000E-01  8.50000000E-01  8.50000000E-01  8.50000000E-01  8.00000000E-01
  8.50000000E-01  8.50000000E-01  8.50000000E-01  8.00000000E-01  8.50000000E-01
  8.50000000E-01  8.50000000E-01  8.00000000E-01  8.50000000E-01  8.50000000E-01
  8.50000000E-01  8.00000000E-01  8.50000000E-01  8.50000000E-01  8.50000000E-01
  8.00000000E-01  8.50000000E-01  8.50000000E-01  8.50000000E-01  8.00000000E-01
  8.50000000E-01  8.50000000E-01  8.50000000E-01  8.00000000E-01  8.50000000E-01
  8.50000000E-01  8.50000000E-01  8.00000000E-01  8.50000000E-01  8.50000000E-01
  8.50000000E-01  8.00000000E-01  8.50000000E-01  8.50000000E-01  8.50000000E-01
  8.00000000E-01  8.50000000E-01  8.50000000E-01  8.50000000E-01  8.00000000E-01
  8.50000000E-01  8.50000000E-01  8.50000000E-01  8.00000000E-01  8.50000000E-01
  8.50000000E-01  8.50000000E-01  8.00000000E-01  8.50000000E-01  8.50000000E-01
  8.50000000E-01  8.00000000E-01  8.50000000E-01  8.50000000E-01  8.50000000E-01
  8.00000000E-01  8.50000000E-01  8.50000000E-01  8.50000000E-01  8.00000000E-01
  8.50000000E-01  8.50000000E-01  8.50000000E-01  8.00000000E-01  8.50000000E-01
  8.50000000E-01  8.50000000E-01  8.00000000E-01  8.50000000E-01  8.50000000E-01
  8.50000000E-01  8.00000000E-01  8.50000000E-01  8.50000000E-01  8.50000000E-01
  8.00000000E-01  8.50000000E-01  8.50000000E-01  8.50000000E-01  8.00000000E-01
  8.50000000E-01  8.50000000E-01  8.50000000E-01  8.00000000E-01  8.50000000E-01
  8.50000000E-01  8.50000000E-01  8.00000000E-01  8.50000000E-01  8.50000000E-01
  8.50000000E-01  8.00000000E-01  8.50000000E-01  8.50000000E-01  8.50000000E-01
  8.00000000E-01  8.50000000E-01  8.50000000E-01  8.50000000E-01  8.00000000E-01
  8.50000000E-01  8.50000000E-01  8.50000000E-01  8.00000000E-01  8.50000000E-01
  8.50000000E-01  8.50000000E-01  8.00000000E-01  8.50000000E-01  8.50000000E-01
  8.50000000E-01  8.00000000E-01  8.50000000E-01  8.50000000E-01  8.50000000E-01
  8.00000000E-01  8.50000000E-01  8.50000000E-01  8.50000000E-01  8.00000000E-01
  8.50000000E-01  8.50000000E-01  8.50000000E-01  8.00000000E-01  8.50000000E-01
  8.50000000E-01  8.50000000E-01  8.00000000E-01  8.50000000E-01  8.50000000E-01
  8.50000000E-01  8.00000000E-01  8.50000000E-01  8.50000000E-01  8.50000000E-01
  8.00000000E-01  8.50000000E-01  8.50000000E-01  8.50000000E-01  8.00000000E-01
  8.50000000E-01  8.50000000E-01  8.50000000E-01  8.00000000E-01  8.50000000E-01
  8.50000000E-01  8.50000000E-01  8.00000000E-01  8.50000000E-01  8.50000000E-01
  8.50000000E-01  8.00000000E-01  8.50000000E-01  8.50000000E-01  8.50000000E-01
  8.00000000E-01  8.50000000E-01  8.50000000E-01  8.50000000E-01  8.00000000E-01
  8.50000000E-01  8.50000000E-01  8.50000000E-01  8.00000000E-01  8.50000000E-01
  8.50000000E-01  8.50000000E-01  8.00000000E-01  8.50000000E-01  8.50000000E-01
  8.50000000E-01  8.00000000E-01  8.50000000E-01  8.50000000E-01  8.50000000E-01
  8.00000000E-01  8.50000000E-01  8.50000000E-01  8.50000000E-01  8.00000000E-01
  8.50000000E-01  8.50000000E-01  8.50000000E-01  8.00000000E-01  8.50000000E-01
  8.50000000E-01  8.50000000E-01  8.00000000E-01  8.50000000E-01  8.50000000E-01
  8.50000000E-01  8.00000000E-01  8.50000000E-01  8.50000000E-01  8.50000000E-01
  8.00000000E-01  8.50000000E-01  8.50000000E-01  8.50000000E-01  8.00000000E-01
  8.50000000E-01  8.50000000E-01  8.50000000E-01  8.00000000E-01  8.50000000E-01
  8.50000000E-01  8.50000000E-01  8.00000000E-01  8.50000000E-01  8.50000000E-01
  8.50000000E-01  8.00000000E-01  8.50000000E-01  8.50000000E-01  8.50000000E-01
  8.00000000E-01  8.50000000E-01  8.50000000E-01  8.50000000E-01  8.00000000E-01
  8.50000000E-01  8.50000000E-01  8.50000000E-01  8.00000000E-01  8.50000000E-01
  8.50000000E-01  8.50000000E-01  8.00000000E-01  8.50000000E-01  8.50000000E-01
  8.50000000E-01  8.00000000E-01  8.50000000E-01  8.50000000E-01  8.50000000E-01
  8.00000000E-01  8.50000000E-01  8.50000000E-01  8.50000000E-01  8.00000000E-01
  8.50000000E-01  8.50000000E-01  8.50000000E-01  8.00000000E-01  8.50000000E-01
  8.50000000E-01  8.50000000E-01  8.00000000E-01  8.50000000E-01  8.50000000E-01
  8.50000000E-01  8.00000000E-01  8.50000000E-01  8.50000000E-01  8.50000000E-01
  8.00000000E-01  8.50000000E-01  8.50000000E-01  8.50000000E-01  8.00000000E-01
  8.50000000E-01  8.50000000E-01  8.50000000E-01  8.00000000E-01  8.50000000E-01
  8.50000000E-01  8.50000000E-01  8.00000000E-01  8.50000000E-01  8.50000000E-01
  8.50000000E-01  8.00000000E-01  8.50000000E-01  8.50000000E-01  8.50000000E-01
  8.00000000E-01  8.50000000E-01  8.50000000E-01  8.50000000E-01  8.00000000E-01
  8.50000000E-01  8.50000000E-01  8.50000000E-01  8.00000000E-01  8.50000000E-01
  8.50000000E-01  8.50000000E-01  8.00000000E-01  8.50000000E-01  8.50000000E-01
  8.50000000E-01  8.00000000E-01  8.50000000E-01  8.50000000E-01  8.50000000E-01
  8.00000000E-01  8.50000000E-01  8.50000000E-01  8.50000000E-01  8.00000000E-01
  8.50000000E-01  8.50000000E-01  8.50000000E-01  8.00000000E-01  8.50000000E-01
  8.50000000E-01  8.50000000E-01  8.00000000E-01  8.50000000E-01  8.50000000E-01
  8.50000000E-01  8.00000000E-01  8.50000000E-01  8.50000000E-01  8.50000000E-01
  8.00000000E-01  8.50000000E-01  8.50000000E-01  8.50000000E-01  8.00000000E-01
  8.50000000E-01  8.50000000E-01  8.50000000E-01  8.00000000E-01  8.50000000E-01
  8.50000000E-01  8.50000000E-01  8.00000000E-01  8.50000000E-01  8.50000000E-01
  8.50000000E-01  8.00000000E-01  8.50000000E-01  8.50000000E-01  8.50000000E-01
  8.00000000E-01  8.50000000E-01  8.50000000E-01  8.50000000E-01  8.00000000E-01
  8.50000000E-01  8.50000000E-01  8.50000000E-01  8.00000000E-01  8.50000000E-01
  8.50000000E-01  8.50000000E-01  8.00000000E-01  8.50000000E-01  8.50000000E-01
  8.50000000E-01  8.00000000E-01  8.50000000E-01  8.50000000E-01  8.50000000E-01
  8.00000000E-01  8.50000000E-01  8.50000000E-01  8.50000000E-01  8.00000000E-01
  8.50000000E-01  8.50000000E-01  8.50000000E-01  8.00000000E-01  8.50000000E-01
  8.50000000E-01  8.50000000E-01  8.00000000E-01  8.50000000E-01  8.50000000E-01
  8.50000000E-01  8.00000000E-01  8.50000000E-01  8.50000000E-01  8.50000000E-01
  8.00000000E-01  8.50000000E-01  8.50000000E-01  8.50000000E-01  8.00000000E-01
  8.50000000E-01  8.50000000E-01  8.50000000E-01  8.00000000E-01  8.50000000E-01
  8.50000000E-01  8.50000000E-01  8.00000000E-01  8.50000000E-01  8.50000000E-01
  8.50000000E-01  8.00000000E-01  8.50000000E-01  8.50000000E-01  8.50000000E-01
  8.00000000E-01  8.50000000E-01  8.50000000E-01  8.50000000E-01  8.00000000E-01
  8.50000000E-01  8.50000000E-01  8.50000000E-01  8.00000000E-01  8.50000000E-01
  8.50000000E-01  8.50000000E-01  8.00000000E-01  8.50000000E-01  8.50000000E-01
  8.50000000E-01  8.00000000E-01  8.50000000E-01  8.50000000E-01  8.50000000E-01
  8.00000000E-01  8.50000000E-01  8.50000000E-01  8.50000000E-01  8.00000000E-01
  8.50000000E-01  8.50000000E-01  8.50000000E-01  8.00000000E-01  8.50000000E-01
  8.50000000E-01  8.50000000E-01  8.00000000E-01  8.50000000E-01  8.50000000E-01
  8.50000000E-01  8.00000000E-01  8.50000000E-01  8.50000000E-01  8.50000000E-01
  8.00000000E-01  8.50000000E-01  8.50000000E-01  8.50000000E-01  8.00000000E-01
  8.50000000E-01  8.50000000E-01  8.50000000E-01  8.00000000E-01  8.50000000E-01
  8.50000000E-01  8.50000000E-01  8.00000000E-01  8.50000000E-01  8.50000000E-01
  8.50000000E-01  8.00000000E-01  8.50000000E-01  8.50000000E-01  8.50000000E-01
  8.00000000E-01  8.50000000E-01  8.50000000E-01  8.50000000E-01  8.00000000E-01
  8.50000000E-01  8.50000000E-01  8.50000000E-01  8.00000000E-01  8.50000000E-01
  8.50000000E-01  8.50000000E-01  8.00000000E-01  8.50000000E-01  8.50000000E-01
  8.50000000E-01  8.00000000E-01  8.50000000E-01  8.50000000E-01  8.50000000E-01
  8.00000000E-01  8.50000000E-01  8.50000000E-01  8.50000000E-01  8.00000000E-01
  8.50000000E-01  8.50000000E-01  8.50000000E-01  8.00000000E-01  8.50000000E-01
  8.50000000E-01  8.50000000E-01  8.00000000E-01  8.50000000E-01  8.50000000E-01
  8.50000000E-01  8.00000000E-01  8.50000000E-01  8.50000000E-01  8.50000000E-01
  8.00000000E-01  8.50000000E-01  8.50000000E-01  8.50000000E-01  8.00000000E-01
  8.50000000E-01  8.50000000E-01  8.50000000E-01  8.00000000E-01  8.50000000E-01
  8.50000000E-01  8.50000000E-01  8.00000000E-01  8.50000000E-01  8.50000000E-01
  8.50000000E-01  8.00000000E-01  8.50000000E-01  8.50000000E-01  8.50000000E-01
  8.00000000E-01  8.50000000E-01  8.50000000E-01  8.50000000E-01  8.00000000E-01
  8.50000000E-01  8.50000000E-01  8.50000000E-01  8.00000000E-01  8.50000000E-01
  8.50000000E-01  8.50000000E-01  8.00000000E-01  8.50000000E-01  8.50000000E-01
  8.50000000E-01  8.00000000E-01  8.50000000E-01  8.50000000E-01  8.50000000E-01
  8.00000000E-01  8.50000000E-01  8.50000000E-01  8.50000000E-01  8.00000000E-01
  8.50000000E-01  8.50000000E-01  8.50000000E-01  8.00000000E-01  8.50000000E-01
  8.50000000E-01  8.50000000E-01  8.00000000E-01  8.50000000E-01  8.50000000E-01
  8.50000000E-01  8.00000000E-01  8.50000000E-01  8.50000000E-01  8.50000000E-01
  8.00000000E-01  8.50000000E-01  8.50000000E-01  8.50000000E-01  8.00000000E-01
  8.50000000E-01  8.50000000E-01  8.50000000E-01  8.00000000E-01  8.50000000E-01
  8.50000000E-01  8.50000000E-01  8.00000000E-01  8.50000000E-01  8.50000000E-01
  8.50000000E-01  8.00000000E-01  8.50000000E-01  8.50000000E-01  8.50000000E-01
  8.00000000E-01  8.50000000E-01  8.50000000E-01  8.50000000E-01  8.00000000E-01
  8.50000000E-01  8.50000000E-01  8.50000000E-01  8.00000000E-01  8.50000000E-01
  8.50000000E-01  8.50000000E-01  8.00000000E-01  8.50000000E-01  8.50000000E-01
  8.50000000E-01  8.00000000E-01  8.50000000E-01  8.50000000E-01  8.50000000E-01
  8.00000000E-01  8.50000000E-01  8.50000000E-01  8.50000000E-01  8.00000000E-01
  8.50000000E-01  8.50000000E-01  8.50000000E-01  8.00000000E-01  8.50000000E-01
  8.50000000E-01  8.50000000E-01  8.00000000E-01  8.50000000E-01  8.50000000E-01
  8.50000000E-01  8.00000000E-01  8.50000000E-01  8.50000000E-01  8.50000000E-01
  8.00000000E-01  8.50000000E-01  8.50000000E-01  8.50000000E-01  8.00000000E-01
  8.50000000E-01  8.50000000E-01  8.50000000E-01  8.00000000E-01  8.50000000E-01
  8.50000000E-01  8.50000000E-01  8.00000000E-01  8.50000000E-01  8.50000000E-01
  8.50000000E-01  8.00000000E-01  8.50000000E-01  8.50000000E-01  8.50000000E-01
  8.00000000E-01  8.50000000E-01  8.50000000E-01  8.50000000E-01  8.00000000E-01
  8.50000000E-01  8.50000000E-01  8.50000000E-01  8.00000000E-01  8.50000000E-01
  8.50000000E-01  8.50000000E-01  8.00000000E-01  8.50000000E-01  8.50000000E-01
  8.50000000E-01  8.00000000E-01  8.50000000E-01  8.50000000E-01  8.50000000E-01
  8.00000000E-01  8.50000000E-01  8.50000000E-01  8.50000000E-01  8.00000000E-01
  8.50000000E-01  8.50000000E-01  8.50000000E-01  8.00000000E-01  8.50000000E-01
  8.50000000E-01  8.50000000E-01  8.00000000E-01  8.50000000E-01  8.50000000E-01
  8.50000000E-01  8.00000000E-01  8.50000000E-01  8.50000000E-01  8.50000000E-01
  8.00000000E-01  8.50000000E-01  8.50000000E-01  8.50000000E-01  8.00000000E-01
  8.50000000E-01  8.50000000E-01  8.50000000E-01  8.00000000E-01  8.50000000E-01
  8.50000000E-01  8.50000000E-01  8.00000000E-01  8.50000000E-01  8.50000000E-01
  8.50000000E-01  8.00000000E-01  8.50000000E-01  8.50000000E-01  8.50000000E-01
  8.00000000E-01  8.50000000E-01  8.50000000E-01  8.50000000E-01  8.00000000E-01
  8.50000000E-01  8.50000000E-01  8.50000000E-01  8.00000000E-01  8.50000000E-01
  8.50000000E-01  8.50000000E-01  8.00000000E-01  8.50000000E-01  8.50000000E-01
  8.50000000E-01  8.00000000E-01  8.50000000E-01  8.50000000E-01  8.50000000E-01
  8.00000000E-01  8.50000000E-01  8.50000000E-01  8.50000000E-01  8.00000000E-01
  8.50000000E-01  8.50000000E-01  8.50000000E-01  8.00000000E-01  8.50000000E-01
  8.50000000E-01  8.50000000E-01  8.00000000E-01  8.50000000E-01  8.50000000E-01
  8.50000000E-01  8.00000000E-01  8.50000000E-01  8.50000000E-01  8.50000000E-01
  8.00000000E-01  8.50000000E-01  8.50000000E-01  8.50000000E-01  8.00000000E-01
  8.50000000E-01  8.50000000E-01  8.50000000E-01  8.00000000E-01  8.50000000E-01
  8.50000000E-01  8.50000000E-01  8.00000000E-01  8.50000000E-01  8.50000000E-01
  8.50000000E-01  8.00000000E-01  8.50000000E-01  8.50000000E-01  8.50000000E-01
  8.00000000E-01  8.50000000E-01  8.50000000E-01  8.50000000E-01  8.00000000E-01
  8.50000000E-01  8.50000000E-01  8.50000000E-01  8.00000000E-01  8.50000000E-01
  8.50000000E-01  8.50000000E-01  8.00000000E-01  8.50000000E-01  8.50000000E-01
  8.50000000E-01  8.00000000E-01  8.50000000E-01  8.50000000E-01  8.50000000E-01
  8.00000000E-01  8.50000000E-01  8.50000000E-01  8.50000000E-01  8.00000000E-01
  8.50000000E-01  8.50000000E-01  8.50000000E-01  8.00000000E-01  8.50000000E-01
  8.50000000E-01  8.50000000E-01  8.00000000E-01  8.50000000E-01  8.50000000E-01
  8.50000000E-01  8.00000000E-01  8.50000000E-01  8.50000000E-01  8.50000000E-01
  8.00000000E-01  8.50000000E-01  8.50000000E-01  8.50000000E-01  8.00000000E-01
  8.50000000E-01  8.50000000E-01  8.50000000E-01  8.00000000E-01  8.50000000E-01
  8.50000000E-01  8.50000000E-01  8.00000000E-01  8.50000000E-01  8.50000000E-01
  8.50000000E-01  8.00000000E-01  8.50000000E-01  8.50000000E-01  8.50000000E-01
  8.00000000E-01  8.50000000E-01  8.50000000E-01  8.50000000E-01  8.00000000E-01
  8.50000000E-01  8.50000000E-01  8.50000000E-01  8.00000000E-01  8.50000000E-01
  8.50000000E-01  8.50000000E-01  8.00000000E-01  8.50000000E-01  8.50000000E-01
  8.50000000E-01  8.00000000E-01  8.50000000E-01  8.50000000E-01  8.50000000E-01
  8.00000000E-01  8.50000000E-01  8.50000000E-01  8.50000000E-01  8.00000000E-01
  8.50000000E-01  8.50000000E-01  8.50000000E-01  8.00000000E-01  8.50000000E-01
  8.50000000E-01  8.50000000E-01  8.00000000E-01  8.50000000E-01  8.50000000E-01
  8.50000000E-01  8.00000000E-01  8.50000000E-01  8.50000000E-01  8.50000000E-01
  8.00000000E-01  8.50000000E-01  8.50000000E-01  8.50000000E-01  8.00000000E-01
  8.50000000E-01  8.50000000E-01  8.50000000E-01  8.00000000E-01  8.50000000E-01
  8.50000000E-01  8.50000000E-01  8.00000000E-01  8.50000000E-01  8.50000000E-01
  8.50000000E-01  8.00000000E-01  8.50000000E-01  8.50000000E-01  8.50000000E-01
  8.00000000E-01  8.50000000E-01  8.50000000E-01  8.50000000E-01  8.00000000E-01
  8.50000000E-01  8.50000000E-01  8.50000000E-01  8.00000000E-01  8.50000000E-01
  8.50000000E-01  8.50000000E-01  8.00000000E-01  8.50000000E-01  8.50000000E-01
  8.50000000E-01  8.00000000E-01  8.50000000E-01  8.50000000E-01  8.50000000E-01
  8.00000000E-01  8.50000000E-01  8.50000000E-01  8.50000000E-01  8.00000000E-01
  8.50000000E-01  8.50000000E-01  8.50000000E-01  8.00000000E-01  8.50000000E-01
  8.50000000E-01  8.50000000E-01  8.00000000E-01  8.50000000E-01  8.50000000E-01
  8.50000000E-01  8.00000000E-01  8.50000000E-01  8.50000000E-01  8.50000000E-01
  8.00000000E-01  8.50000000E-01  8.50000000E-01  8.50000000E-01  8.00000000E-01
  8.50000000E-01  8.50000000E-01  8.50000000E-01  8.00000000E-01  8.50000000E-01
  8.50000000E-01  8.50000000E-01  8.00000000E-01  8.50000000E-01  8.50000000E-01
  8.50000000E-01  8.00000000E-01  8.50000000E-01  8.50000000E-01  8.50000000E-01
  8.00000000E-01  8.50000000E-01  8.50000000E-01  8.50000000E-01  8.00000000E-01
  8.50000000E-01  8.50000000E-01  8.50000000E-01  8.00000000E-01  8.50000000E-01
  8.50000000E-01  8.50000000E-01  8.00000000E-01  8.50000000E-01  8.50000000E-01
  8.50000000E-01  8.00000000E-01  8.50000000E-01  8.50000000E-01  8.50000000E-01
  8.00000000E-01  8.50000000E-01  8.50000000E-01  8.50000000E-01  8.00000000E-01
  8.50000000E-01  8.50000000E-01  8.50000000E-01  8.00000000E-01  8.50000000E-01
  8.50000000E-01  8.50000000E-01  8.00000000E-01  8.50000000E-01  8.50000000E-01
  8.50000000E-01  8.00000000E-01  8.50000000E-01  8.50000000E-01  8.50000000E-01
  8.00000000E-01  8.50000000E-01  8.50000000E-01  8.50000000E-01  8.00000000E-01
  8.50000000E-01  8.50000000E-01  8.50000000E-01  8.00000000E-01  8.50000000E-01
  8.50000000E-01  8.50000000E-01  8.00000000E-01  8.50000000E-01  8.50000000E-01
  8.50000000E-01  8.00000000E-01  8.50000000E-01  8.50000000E-01  8.50000000E-01
  8.00000000E-01  8.50000000E-01  8.50000000E-01  8.50000000E-01  8.00000000E-01
  8.50000000E-01  8.50000000E-01  8.50000000E-01  8.00000000E-01  8.50000000E-01
  8.50000000E-01  8.50000000E-01  8.00000000E-01  8.50000000E-01  8.50000000E-01
  8.50000000E-01  8.00000000E-01  8.50000000E-01  8.50000000E-01  8.50000000E-01
  8.00000000E-01  8.50000000E-01  8.50000000E-01  8.50000000E-01  8.00000000E-01
  8.50000000E-01  8.50000000E-01  8.50000000E-01  8.00000000E-01  8.50000000E-01
  8.50000000E-01  8.50000000E-01  8.00000000E-01  8.50000000E-01  8.50000000E-01
  8.50000000E-01  8.00000000E-01  8.50000000E-01  8.50000000E-01  8.50000000E-01
  8.00000000E-01  8.50000000E-01  8.50000000E-01  8.50000000E-01  8.00000000E-01
  8.50000000E-01  8.50000000E-01  8.50000000E-01  8.00000000E-01  8.50000000E-01
  8.50000000E-01  8.50000000E-01  8.00000000E-01  8.50000000E-01  8.50000000E-01
  8.50000000E-01  8.00000000E-01  8.50000000E-01  8.50000000E-01  8.50000000E-01
  8.00000000E-01  8.50000000E-01  8.50000000E-01  8.50000000E-01  8.00000000E-01
  8.50000000E-01  8.50000000E-01  8.50000000E-01  8.00000000E-01  8.50000000E-01
  8.50000000E-01  8.50000000E-01  8.00000000E-01  8.50000000E-01  8.50000000E-01
  8.50000000E-01  8.00000000E-01  8.50000000E-01  8.50000000E-01  8.50000000E-01
  8.00000000E-01  8.50000000E-01  8.50000000E-01  8.50000000E-01  8.00000000E-01
  8.50000000E-01  8.50000000E-01  8.50000000E-01  8.00000000E-01  8.50000000E-01
  8.50000000E-01  8.50000000E-01  8.00000000E-01  8.50000000E-01  8.50000000E-01
  8.50000000E-01  8.00000000E-01  8.50000000E-01  8.50000000E-01  8.50000000E-01
  8.00000000E-01  8.50000000E-01  8.50000000E-01  8.50000000E-01  8.00000000E-01
  8.50000000E-01  8.50000000E-01  8.50000000E-01  8.00000000E-01  8.50000000E-01
  8.50000000E-01  8.50000000E-01  8.00000000E-01  8.50000000E-01  8.50000000E-01
  8.50000000E-01  8.00000000E-01  8.50000000E-01  8.50000000E-01  8.50000000E-01
  8.00000000E-01  8.50000000E-01  8.50000000E-01  8.50000000E-01  8.00000000E-01
  8.50000000E-01  8.50000000E-01  8.50000000E-01  8.00000000E-01  8.50000000E-01
  8.50000000E-01  8.50000000E-01  8.00000000E-01  8.50000000E-01  8.50000000E-01
  8.50000000E-01  8.00000000E-01  8.50000000E-01  8.50000000E-01  8.50000000E-01
  8.00000000E-01  8.50000000E-01  8.50000000E-01  8.50000000E-01  8.00000000E-01
  8.50000000E-01  8.50000000E-01  8.50000000E-01  8.00000000E-01  8.50000000E-01
  8.50000000E-01  8.50000000E-01  8.00000000E-01  8.50000000E-01  8.50000000E-01
  8.50000000E-01  8.00000000E-01  8.50000000E-01  8.50000000E-01  8.50000000E-01
  8.00000000E-01  8.50000000E-01  8.50000000E-01  8.50000000E-01  8.00000000E-01
  8.50000000E-01  8.50000000E-01  8.50000000E-01  8.00000000E-01  8.50000000E-01
  8.50000000E-01  8.50000000E-01  8.00000000E-01  8.50000000E-01  8.50000000E-01
  8.50000000E-01  8.00000000E-01  8.50000000E-01  8.50000000E-01  8.50000000E-01
  8.00000000E-01  8.50000000E-01  8.50000000E-01  8.50000000E-01  8.00000000E-01
  8.50000000E-01  8.50000000E-01  8.50000000E-01  8.00000000E-01  8.50000000E-01
  8.50000000E-01  8.50000000E-01  8.00000000E-01  8.50000000E-01  8.50000000E-01
  8.50000000E-01  8.00000000E-01  8.50000000E-01  8.50000000E-01  8.50000000E-01
  8.00000000E-01  8.50000000E-01  8.50000000E-01  8.50000000E-01  8.00000000E-01
  8.50000000E-01  8.50000000E-01  8.50000000E-01  8.00000000E-01  8.50000000E-01
  8.50000000E-01  8.50000000E-01  8.00000000E-01  8.50000000E-01  8.50000000E-01
  8.50000000E-01  8.00000000E-01  8.50000000E-01  8.50000000E-01  8.50000000E-01
  8.00000000E-01  8.50000000E-01  8.50000000E-01  8.50000000E-01  8.00000000E-01
  8.50000000E-01  8.50000000E-01  8.50000000E-01  8.00000000E-01  8.50000000E-01
  8.50000000E-01  8.50000000E-01  8.00000000E-01  8.50000000E-01  8.50000000E-01
  8.50000000E-01  8.00000000E-01  8.50000000E-01  8.50000000E-01  8.50000000E-01
  8.00000000E-01  8.50000000E-01  8.50000000E-01  8.50000000E-01  8.00000000E-01
  8.50000000E-01  8.50000000E-01  8.50000000E-01  8.00000000E-01  8.50000000E-01
  8.50000000E-01  8.50000000E-01  8.00000000E-01  8.50000000E-01  8.50000000E-01
  8.50000000E-01  8.00000000E-01  8.50000000E-01  8.50000000E-01  8.50000000E-01
  8.00000000E-01  8.50000000E-01  8.50000000E-01  8.50000000E-01  8.00000000E-01
  8.50000000E-01  8.50000000E-01  8.50000000E-01  8.00000000E-01  8.50000000E-01
  8.50000000E-01  8.50000000E-01  8.00000000E-01  8.50000000E-01  8.50000000E-01
  8.50000000E-01  8.00000000E-01  8.50000000E-01  8.50000000E-01  8.50000000E-01
  8.00000000E-01  8.50000000E-01  8.50000000E-01  8.50000000E-01  8.00000000E-01
  8.50000000E-01  8.50000000E-01  8.50000000E-01  8.00000000E-01  8.50000000E-01
  8.50000000E-01  8.50000000E-01  8.00000000E-01  8.50000000E-01  8.50000000E-01
  8.50000000E-01  8.00000000E-01  8.50000000E-01  8.50000000E-01  8.50000000E-01
  8.00000000E-01  8.50000000E-01  8.50000000E-01  8.50000000E-01  8.00000000E-01
  8.50000000E-01  8.50000000E-01  8.50000000E-01  8.00000000E-01  8.50000000E-01
  8.50000000E-01  8.50000000E-01  8.00000000E-01  8.50000000E-01  8.50000000E-01
  8.50000000E-01  8.00000000E-01  8.50000000E-01  8.50000000E-01  8.50000000E-01
  8.00000000E-01  8.50000000E-01  8.50000000E-01  8.50000000E-01  8.00000000E-01
  8.50000000E-01  8.50000000E-01  8.50000000E-01  8.00000000E-01  8.50000000E-01
  8.50000000E-01  8.50000000E-01  8.00000000E-01  8.50000000E-01  8.50000000E-01
  8.50000000E-01  8.00000000E-01  8.50000000E-01  8.50000000E-01  8.50000000E-01
  8.00000000E-01  8.50000000E-01  8.50000000E-01  8.50000000E-01  8.00000000E-01
  8.50000000E-01  8.50000000E-01  8.50000000E-01  8.00000000E-01  8.50000000E-01
  8.50000000E-01  8.50000000E-01  8.00000000E-01  8.50000000E-01  8.50000000E-01
  8.50000000E-01  8.00000000E-01  8.50000000E-01  8.50000000E-01  8.50000000E-01
  8.00000000E-01  8.50000000E-01  8.50000000E-01  8.50000000E-01  8.00000000E-01
  8.50000000E-01  8.50000000E-01  8.50000000E-01  8.00000000E-01  8.50000000E-01
  8.50000000E-01  8.50000000E-01  8.00000000E-01  8.50000000E-01  8.50000000E-01
  8.50000000E-01  8.00000000E-01  8.50000000E-01  8.50000000E-01  8.50000000E-01
  8.00000000E-01  8.50000000E-01  8.50000000E-01  8.50000000E-01  8.00000000E-01
  8.50000000E-01  8.50000000E-01  8.50000000E-01  8.00000000E-01  8.50000000E-01
  8.50000000E-01  8.50000000E-01  8.00000000E-01  8.50000000E-01  8.50000000E-01
  8.50000000E-01  8.00000000E-01  8.50000000E-01  8.50000000E-01  8.50000000E-01
  8.00000000E-01  8.50000000E-01  8.50000000E-01  8.50000000E-01  8.00000000E-01
  8.50000000E-01  8.50000000E-01  8.50000000E-01  8.00000000E-01  8.50000000E-01
  8.50000000E-01  8.50000000E-01  8.00000000E-01  8.50000000E-01  8.50000000E-01
  8.50000000E-01  8.00000000E-01  8.50000000E-01  8.50000000E-01  8.50000000E-01
  8.00000000E-01  8.50000000E-01  8.50000000E-01  8.50000000E-01  8.00000000E-01
  8.50000000E-01  8.50000000E-01  8.50000000E-01  8.00000000E-01  8.50000000E-01
  8.50000000E-01  8.50000000E-01  8.00000000E-01  8.50000000E-01  8.50000000E-01
  8.50000000E-01  8.00000000E-01  8.50000000E-01  8.50000000E-01  8.50000000E-01
  8.00000000E-01  8.50000000E-01  8.50000000E-01  8.50000000E-01  8.00000000E-01
  8.50000000E-01  8.50000000E-01  8.50000000E-01  8.00000000E-01  8.50000000E-01
  8.50000000E-01  8.50000000E-01  8.00000000E-01  8.50000000E-01  8.50000000E-01
  8.50000000E-01  8.00000000E-01  8.50000000E-01  8.50000000E-01  8.50000000E-01
  8.00000000E-01  8.50000000E-01  8.50000000E-01  8.50000000E-01  8.00000000E-01
  8.50000000E-01  8.50000000E-01  8.50000000E-01  8.00000000E-01  8.50000000E-01
  8.50000000E-01  8.50000000E-01  8.00000000E-01  8.50000000E-01  8.50000000E-01
  8.50000000E-01  8.00000000E-01  8.50000000E-01  8.50000000E-01  8.50000000E-01
  8.00000000E-01  8.50000000E-01  8.50000000E-01  8.50000000E-01  8.00000000E-01
  8.50000000E-01  8.50000000E-01  8.50000000E-01  8.00000000E-01  8.50000000E-01
  8.50000000E-01  8.50000000E-01  8.00000000E-01  8.50000000E-01  8.50000000E-01
  8.50000000E-01  8.00000000E-01  8.50000000E-01  8.50000000E-01  8.50000000E-01
  8.00000000E-01  8.50000000E-01  8.50000000E-01  8.50000000E-01  8.00000000E-01
  8.50000000E-01  8.50000000E-01  8.50000000E-01  8.00000000E-01  8.50000000E-01
  8.50000000E-01  8.50000000E-01  8.00000000E-01  8.50000000E-01  8.50000000E-01
  8.50000000E-01  8.00000000E-01  8.50000000E-01  8.50000000E-01  8.50000000E-01
  8.00000000E-01  8.50000000E-01  8.50000000E-01  8.50000000E-01  8.00000000E-01
  8.50000000E-01  8.50000000E-01  8.50000000E-01  8.00000000E-01  8.50000000E-01
  8.50000000E-01  8.50000000E-01  8.00000000E-01  8.50000000E-01  8.50000000E-01
  8.50000000E-01  8.00000000E-01  8.50000000E-01  8.50000000E-01  8.50000000E-01
  8.00000000E-01  8.50000000E-01  8.50000000E-01  8.50000000E-01  8.00000000E-01
  8.50000000E-01  8.50000000E-01  8.50000000E-01  8.00000000E-01  8.50000000E-01
  8.50000000E-01  8.50000000E-01  8.00000000E-01  8.50000000E-01  8.50000000E-01
  8.50000000E-01  8.00000000E-01  8.50000000E-01  8.50000000E-01  8.50000000E-01
  8.00000000E-01  8.50000000E-01  8.50000000E-01  8.50000000E-01  8.00000000E-01
  8.50000000E-01  8.50000000E-01  8.50000000E-01  8.00000000E-01  8.50000000E-01
  8.50000000E-01  8.50000000E-01  8.00000000E-01  8.50000000E-01  8.50000000E-01
  8.50000000E-01  8.00000000E-01  8.50000000E-01  8.50000000E-01  8.50000000E-01
  8.00000000E-01  8.50000000E-01  8.50000000E-01  8.50000000E-01  8.00000000E-01
  8.50000000E-01  8.50000000E-01  8.50000000E-01  8.00000000E-01  8.50000000E-01
  8.50000000E-01  8.50000000E-01  8.00000000E-01  8.50000000E-01  8.50000000E-01
  8.50000000E-01  8.00000000E-01  8.50000000E-01  8.50000000E-01  8.50000000E-01
  8.00000000E-01  8.50000000E-01  8.50000000E-01  8.50000000E-01  8.00000000E-01
  8.50000000E-01  8.50000000E-01  8.50000000E-01  8.00000000E-01  8.50000000E-01
  8.50000000E-01  8.50000000E-01  8.00000000E-01  8.50000000E-01  8.50000000E-01
  8.50000000E-01  8.00000000E-01  8.50000000E-01  8.50000000E-01  8.50000000E-01
  8.00000000E-01  8.50000000E-01  8.50000000E-01  8.50000000E-01  8.00000000E-01
  8.50000000E-01  8.50000000E-01  8.50000000E-01  8.00000000E-01  8.50000000E-01
  8.50000000E-01  8.50000000E-01  8.00000000E-01  8.50000000E-01  8.50000000E-01
  8.50000000E-01  8.00000000E-01  8.50000000E-01  8.50000000E-01  8.50000000E-01
  8.00000000E-01  8.50000000E-01  8.50000000E-01  8.50000000E-01  8.00000000E-01
  8.50000000E-01  8.50000000E-01  8.50000000E-01  8.00000000E-01  8.50000000E-01
  8.50000000E-01  8.50000000E-01  8.00000000E-01  8.50000000E-01  8.50000000E-01
  8.50000000E-01  8.00000000E-01  8.50000000E-01  8.50000000E-01  8.50000000E-01
  8.00000000E-01  8.50000000E-01  8.50000000E-01  8.50000000E-01  8.00000000E-01
  8.50000000E-01  8.50000000E-01  8.50000000E-01  8.00000000E-01  8.50000000E-01
  8.50000000E-01  8.50000000E-01  8.00000000E-01  8.50000000E-01  8.50000000E-01
  8.50000000E-01  8.00000000E-01  8.50000000E-01  8.50000000E-01  8.50000000E-01
  8.00000000E-01  8.50000000E-01  8.50000000E-01  8.50000000E-01  8.00000000E-01
  8.50000000E-01  8.50000000E-01  8.50000000E-01  8.00000000E-01  8.50000000E-01
  8.50000000E-01  8.50000000E-01  8.00000000E-01  8.50000000E-01  8.50000000E-01
  8.50000000E-01  8.00000000E-01  8.50000000E-01  8.50000000E-01  8.50000000E-01
  8.00000000E-01  8.50000000E-01  8.50000000E-01  8.50000000E-01  8.00000000E-01
  8.50000000E-01  8.50000000E-01  8.50000000E-01  8.00000000E-01  8.50000000E-01
  8.50000000E-01  8.50000000E-01  8.00000000E-01  8.50000000E-01  8.50000000E-01
  8.50000000E-01  8.00000000E-01  8.50000000E-01  8.50000000E-01  8.50000000E-01
  8.00000000E-01  8.50000000E-01  8.50000000E-01  8.50000000E-01  8.00000000E-01
  8.50000000E-01  8.50000000E-01  8.50000000E-01  8.00000000E-01  8.50000000E-01
  8.50000000E-01  8.50000000E-01  8.00000000E-01  8.50000000E-01  8.50000000E-01
  8.50000000E-01  8.00000000E-01  8.50000000E-01  8.50000000E-01  8.50000000E-01
  8.00000000E-01  8.50000000E-01  8.50000000E-01  8.50000000E-01  8.00000000E-01
  8.50000000E-01  8.50000000E-01  8.50000000E-01  8.00000000E-01  8.50000000E-01
  8.50000000E-01  8.50000000E-01  8.00000000E-01  8.50000000E-01  8.50000000E-01
  8.50000000E-01  8.00000000E-01  8.50000000E-01  8.50000000E-01  8.50000000E-01
  8.00000000E-01  8.50000000E-01  8.50000000E-01  8.50000000E-01  8.00000000E-01
  8.50000000E-01  8.50000000E-01  8.50000000E-01  8.00000000E-01  8.50000000E-01
  8.50000000E-01  8.50000000E-01  8.00000000E-01  8.50000000E-01  8.50000000E-01
  8.50000000E-01  8.00000000E-01  8.50000000E-01  8.50000000E-01  8.50000000E-01
  8.00000000E-01  8.50000000E-01  8.50000000E-01  8.50000000E-01  8.00000000E-01
  8.50000000E-01  8.50000000E-01  8.50000000E-01  8.00000000E-01  8.50000000E-01
  8.50000000E-01  8.50000000E-01  8.00000000E-01  8.50000000E-01  8.50000000E-01
  8.50000000E-01  8.00000000E-01  8.50000000E-01  8.50000000E-01  8.50000000E-01
  8.00000000E-01  8.50000000E-01  8.50000000E-01  8.50000000E-01  8.00000000E-01
  8.50000000E-01  8.50000000E-01  8.50000000E-01  8.00000000E-01  8.50000000E-01
  8.50000000E-01  8.50000000E-01  8.00000000E-01  8.50000000E-01  8.50000000E-01
  8.50000000E-01  8.00000000E-01  8.50000000E-01  8.50000000E-01  8.50000000E-01
  8.00000000E-01  8.50000000E-01  8.50000000E-01  8.50000000E-01  8.00000000E-01
  8.50000000E-01  8.50000000E-01  8.50000000E-01  8.00000000E-01  8.50000000E-01
  8.50000000E-01  8.50000000E-01  8.00000000E-01  8.50000000E-01  8.50000000E-01
  8.50000000E-01  8.00000000E-01  8.50000000E-01  8.50000000E-01  8.50000000E-01
  8.00000000E-01  8.50000000E-01  8.50000000E-01  8.50000000E-01  8.00000000E-01
  8.50000000E-01  8.50000000E-01  8.50000000E-01  8.00000000E-01  8.50000000E-01
  8.50000000E-01  8.50000000E-01  8.00000000E-01  8.50000000E-01  8.50000000E-01
  8.50000000E-01  8.00000000E-01  8.50000000E-01  8.50000000E-01  8.50000000E-01
  8.00000000E-01  8.50000000E-01  8.50000000E-01  8.50000000E-01  8.00000000E-01
  8.50000000E-01  8.50000000E-01  8.50000000E-01  8.00000000E-01  8.50000000E-01
  8.50000000E-01  8.50000000E-01  8.00000000E-01  8.50000000E-01  8.50000000E-01
  8.50000000E-01  8.00000000E-01  8.50000000E-01  8.50000000E-01  8.50000000E-01
  8.00000000E-01  8.50000000E-01  8.50000000E-01  8.50000000E-01  8.00000000E-01
  8.50000000E-01  8.50000000E-01  8.50000000E-01  8.00000000E-01  8.50000000E-01
  8.50000000E-01  8.50000000E-01  8.00000000E-01  8.50000000E-01  8.50000000E-01
  8.50000000E-01  8.00000000E-01  8.50000000E-01  8.50000000E-01  8.50000000E-01
  8.00000000E-01  8.50000000E-01  8.50000000E-01  8.50000000E-01  8.00000000E-01
  8.50000000E-01  8.50000000E-01  8.50000000E-01  8.00000000E-01  8.50000000E-01
  8.50000000E-01  8.50000000E-01  8.00000000E-01  8.50000000E-01  8.50000000E-01
  8.50000000E-01  8.00000000E-01  8.50000000E-01  8.50000000E-01  8.50000000E-01
  8.00000000E-01  8.50000000E-01  8.50000000E-01  8.50000000E-01  8.00000000E-01
  8.50000000E-01  8.50000000E-01  8.50000000E-01  8.00000000E-01  8.50000000E-01
  8.50000000E-01  8.50000000E-01  8.00000000E-01  8.50000000E-01  8.50000000E-01
  8.50000000E-01  8.00000000E-01  8.50000000E-01  8.50000000E-01  8.50000000E-01
  8.00000000E-01  8.50000000E-01  8.50000000E-01  8.50000000E-01  8.00000000E-01
  8.50000000E-01  8.50000000E-01  8.50000000E-01  8.00000000E-01  8.50000000E-01
  8.50000000E-01  8.50000000E-01  8.00000000E-01  8.50000000E-01  8.50000000E-01
  8.50000000E-01  8.00000000E-01  8.50000000E-01  8.50000000E-01  8.50000000E-01
  8.00000000E-01  8.50000000E-01  8.50000000E-01  8.50000000E-01  8.00000000E-01
  8.50000000E-01  8.50000000E-01  8.50000000E-01  8.00000000E-01  8.50000000E-01
  8.50000000E-01  8.50000000E-01  8.00000000E-01  8.50000000E-01  8.50000000E-01
  8.50000000E-01  8.00000000E-01  8.50000000E-01  8.50000000E-01  8.50000000E-01
  8.00000000E-01  8.50000000E-01  8.50000000E-01  8.50000000E-01  8.00000000E-01
  8.50000000E-01  8.50000000E-01  8.50000000E-01  8.00000000E-01  8.50000000E-01
  8.50000000E-01  8.50000000E-01  8.00000000E-01  8.50000000E-01  8.50000000E-01
  8.50000000E-01  8.00000000E-01  8.50000000E-01  8.50000000E-01  8.50000000E-01
  8.00000000E-01  8.50000000E-01  8.50000000E-01  8.50000000E-01  8.00000000E-01
  8.50000000E-01  8.50000000E-01  8.50000000E-01  8.00000000E-01  8.50000000E-01
  8.50000000E-01  8.50000000E-01  8.00000000E-01  8.50000000E-01  8.50000000E-01
  8.50000000E-01  8.00000000E-01  8.50000000E-01  8.50000000E-01  8.50000000E-01
  8.00000000E-01  8.50000000E-01  8.50000000E-01  8.50000000E-01  8.00000000E-01
  8.50000000E-01  8.50000000E-01  8.50000000E-01  8.00000000E-01  8.50000000E-01
  8.50000000E-01  8.50000000E-01  8.00000000E-01  8.50000000E-01  8.50000000E-01
  8.50000000E-01  8.00000000E-01  8.50000000E-01  8.50000000E-01  8.50000000E-01
  8.00000000E-01  8.50000000E-01  8.50000000E-01  8.50000000E-01  8.00000000E-01
  8.50000000E-01  8.50000000E-01  8.50000000E-01  8.00000000E-01  8.50000000E-01
  8.50000000E-01  8.50000000E-01  8.00000000E-01  8.50000000E-01  8.50000000E-01
  8.50000000E-01  8.00000000E-01  8.50000000E-01  8.50000000E-01  8.50000000E-01
  8.00000000E-01  8.50000000E-01  8.50000000E-01  8.50000000E-01  8.00000000E-01
  8.50000000E-01  8.50000000E-01  8.50000000E-01  8.00000000E-01  8.50000000E-01
  8.50000000E-01  8.50000000E-01  8.00000000E-01  8.50000000E-01  8.50000000E-01
  8.50000000E-01  8.00000000E-01  8.50000000E-01  8.50000000E-01  8.50000000E-01
  8.00000000E-01  8.50000000E-01  8.50000000E-01  8.50000000E-01  8.00000000E-01
  8.50000000E-01  8.50000000E-01  8.50000000E-01  8.00000000E-01  8.50000000E-01
  8.50000000E-01  8.50000000E-01  8.00000000E-01  8.50000000E-01  8.50000000E-01
  8.50000000E-01  8.00000000E-01  8.50000000E-01  8.50000000E-01  8.50000000E-01
  8.00000000E-01  8.50000000E-01  8.50000000E-01  8.50000000E-01  8.00000000E-01
  8.50000000E-01  8.50000000E-01  8.50000000E-01  8.00000000E-01  8.50000000E-01
  8.50000000E-01  8.50000000E-01  8.00000000E-01  8.50000000E-01  8.50000000E-01
  8.50000000E-01  8.00000000E-01  8.50000000E-01  8.50000000E-01  8.50000000E-01
  8.00000000E-01  8.50000000E-01  8.50000000E-01  8.50000000E-01  8.00000000E-01
  8.50000000E-01  8.50000000E-01  8.50000000E-01  8.00000000E-01  8.50000000E-01
  8.50000000E-01  8.50000000E-01  8.00000000E-01  8.50000000E-01  8.50000000E-01
  8.50000000E-01  8.00000000E-01  8.50000000E-01  8.50000000E-01  8.50000000E-01
  8.00000000E-01  8.50000000E-01  8.50000000E-01  8.50000000E-01  8.00000000E-01
  8.50000000E-01  8.50000000E-01  8.50000000E-01  8.00000000E-01  8.50000000E-01
  8.50000000E-01  8.50000000E-01  8.00000000E-01  8.50000000E-01  8.50000000E-01
  8.50000000E-01  8.00000000E-01  8.50000000E-01  8.50000000E-01  8.50000000E-01
  8.00000000E-01  8.50000000E-01  8.50000000E-01  8.50000000E-01  8.00000000E-01
  8.50000000E-01  8.50000000E-01  8.50000000E-01  8.00000000E-01  8.50000000E-01
  8.50000000E-01  8.50000000E-01  8.00000000E-01  8.50000000E-01  8.50000000E-01
  8.50000000E-01  8.00000000E-01  8.50000000E-01  8.50000000E-01  8.50000000E-01
  8.00000000E-01  8.50000000E-01  8.50000000E-01  8.50000000E-01  8.00000000E-01
  8.50000000E-01  8.50000000E-01  8.50000000E-01  8.00000000E-01  8.50000000E-01
  8.50000000E-01  8.50000000E-01  8.00000000E-01  8.50000000E-01  8.50000000E-01
  8.50000000E-01  8.00000000E-01  8.50000000E-01  8.50000000E-01  8.50000000E-01
  8.00000000E-01  8.50000000E-01  8.50000000E-01  8.50000000E-01  8.00000000E-01
  8.50000000E-01  8.50000000E-01  8.50000000E-01  8.00000000E-01  8.50000000E-01
  8.50000000E-01  8.50000000E-01  8.00000000E-01  8.50000000E-01  8.50000000E-01
  8.50000000E-01  8.00000000E-01  8.50000000E-01  8.50000000E-01  8.50000000E-01
  8.00000000E-01  8.50000000E-01  8.50000000E-01  8.50000000E-01  8.00000000E-01
  8.50000000E-01  8.50000000E-01  8.50000000E-01  8.00000000E-01  8.50000000E-01
  8.50000000E-01  8.50000000E-01  8.00000000E-01  8.50000000E-01  8.50000000E-01
  8.50000000E-01  8.00000000E-01  8.50000000E-01  8.50000000E-01  8.50000000E-01
  8.00000000E-01  8.50000000E-01  8.50000000E-01  8.50000000E-01  8.00000000E-01
  8.50000000E-01  8.50000000E-01  8.50000000E-01  8.00000000E-01  8.50000000E-01
  8.50000000E-01  8.50000000E-01  8.00000000E-01  8.50000000E-01  8.50000000E-01
  8.50000000E-01  8.00000000E-01  8.50000000E-01  8.50000000E-01  8.50000000E-01
  8.00000000E-01  8.50000000E-01  8.50000000E-01  8.50000000E-01  8.00000000E-01
  8.50000000E-01  8.50000000E-01  8.50000000E-01  8.00000000E-01  8.50000000E-01
  8.50000000E-01  8.50000000E-01  8.00000000E-01  8.50000000E-01  8.50000000E-01
  8.50000000E-01  8.00000000E-01  8.50000000E-01  8.50000000E-01  8.50000000E-01
  8.00000000E-01  8.50000000E-01  8.50000000E-01  8.50000000E-01  8.00000000E-01
  8.50000000E-01  8.50000000E-01  8.50000000E-01  8.00000000E-01  8.50000000E-01
  8.50000000E-01  8.50000000E-01  8.00000000E-01  8.50000000E-01  8.50000000E-01
  8.50000000E-01  8.00000000E-01  8.50000000E-01  8.50000000E-01  8.50000000E-01
  8.00000000E-01  8.50000000E-01  8.50000000E-01  8.50000000E-01  8.00000000E-01
  8.50000000E-01  8.50000000E-01  8.50000000E-01  8.00000000E-01  8.50000000E-01
  8.50000000E-01  8.50000000E-01  8.00000000E-01  8.50000000E-01  8.50000000E-01
  8.50000000E-01  8.00000000E-01  8.50000000E-01  8.50000000E-01  8.50000000E-01
  8.00000000E-01  8.50000000E-01  8.50000000E-01  8.50000000E-01  8.00000000E-01
  8.50000000E-01  8.50000000E-01  8.50000000E-01  8.00000000E-01  8.50000000E-01
  8.50000000E-01  8.50000000E-01  8.00000000E-01  8.50000000E-01  8.50000000E-01
  8.50000000E-01  8.00000000E-01  8.50000000E-01  8.50000000E-01  8.50000000E-01
  8.00000000E-01  8.50000000E-01  8.50000000E-01  8.50000000E-01  8.00000000E-01
  8.50000000E-01  8.50000000E-01  8.50000000E-01  8.00000000E-01  8.50000000E-01
  8.50000000E-01  8.50000000E-01  8.00000000E-01  8.50000000E-01  8.50000000E-01
  8.50000000E-01  8.00000000E-01  8.50000000E-01  8.50000000E-01  8.50000000E-01
  8.00000000E-01  8.50000000E-01  8.50000000E-01  8.50000000E-01  8.00000000E-01
  8.50000000E-01  8.50000000E-01  8.50000000E-01  8.00000000E-01  8.50000000E-01
  8.50000000E-01  8.50000000E-01  8.00000000E-01  8.50000000E-01  8.50000000E-01
  8.50000000E-01  8.00000000E-01  8.50000000E-01  8.50000000E-01  8.50000000E-01
  8.00000000E-01  8.50000000E-01  8.50000000E-01  8.50000000E-01  8.00000000E-01
  8.50000000E-01  8.50000000E-01  8.50000000E-01  8.00000000E-01  8.50000000E-01
  8.50000000E-01  8.50000000E-01  8.00000000E-01  8.50000000E-01  8.50000000E-01
  8.50000000E-01  8.00000000E-01  8.50000000E-01  8.50000000E-01  8.50000000E-01
  8.00000000E-01  8.50000000E-01  8.50000000E-01  8.50000000E-01  8.00000000E-01
  8.50000000E-01  8.50000000E-01  8.50000000E-01  8.00000000E-01  8.50000000E-01
  8.50000000E-01  8.50000000E-01  8.00000000E-01  8.50000000E-01  8.50000000E-01
  8.50000000E-01  8.00000000E-01  8.50000000E-01  8.50000000E-01  8.50000000E-01
  8.00000000E-01  8.50000000E-01  8.50000000E-01  8.50000000E-01  8.00000000E-01
  8.50000000E-01  8.50000000E-01  8.50000000E-01  8.00000000E-01  8.50000000E-01
  8.50000000E-01  8.50000000E-01  8.00000000E-01  8.50000000E-01  8.50000000E-01
  8.50000000E-01  8.00000000E-01  8.50000000E-01  8.50000000E-01  8.50000000E-01
  8.00000000E-01  8.50000000E-01  8.50000000E-01  8.50000000E-01  8.00000000E-01
  8.50000000E-01  8.50000000E-01  8.50000000E-01  8.00000000E-01  8.50000000E-01
  8.50000000E-01  8.50000000E-01  8.00000000E-01  8.50000000E-01  8.50000000E-01
  8.50000000E-01  8.00000000E-01  8.50000000E-01  8.50000000E-01  8.50000000E-01
  8.00000000E-01  8.50000000E-01  8.50000000E-01  8.50000000E-01  8.00000000E-01
  8.50000000E-01  8.50000000E-01  8.50000000E-01  8.00000000E-01  8.50000000E-01
  8.50000000E-01  8.50000000E-01  8.00000000E-01  8.50000000E-01  8.50000000E-01
  8.50000000E-01  8.00000000E-01  8.50000000E-01  8.50000000E-01  8.50000000E-01
  8.00000000E-01  8.50000000E-01  8.50000000E-01  8.50000000E-01  8.00000000E-01
  8.50000000E-01  8.50000000E-01  8.50000000E-01  8.00000000E-01  8.50000000E-01
  8.50000000E-01  8.50000000E-01  8.00000000E-01  8.50000000E-01  8.50000000E-01
  8.50000000E-01  8.00000000E-01  8.50000000E-01  8.50000000E-01  8.50000000E-01
  8.00000000E-01  8.50000000E-01  8.50000000E-01  8.50000000E-01  8.00000000E-01
  8.50000000E-01  8.50000000E-01  8.50000000E-01  8.00000000E-01  8.50000000E-01
  8.50000000E-01  8.50000000E-01  8.00000000E-01  8.50000000E-01  8.50000000E-01
  8.50000000E-01  8.00000000E-01  8.50000000E-01  8.50000000E-01  8.50000000E-01
  8.00000000E-01  8.50000000E-01  8.50000000E-01  8.50000000E-01  8.00000000E-01
  8.50000000E-01  8.50000000E-01  8.50000000E-01  8.00000000E-01  8.50000000E-01
  8.50000000E-01  8.50000000E-01  8.00000000E-01  8.50000000E-01  8.50000000E-01
  8.50000000E-01  8.00000000E-01  8.50000000E-01  8.50000000E-01  8.50000000E-01
  8.00000000E-01  8.50000000E-01  8.50000000E-01  8.50000000E-01  8.00000000E-01
  8.50000000E-01  8.50000000E-01  8.50000000E-01  8.00000000E-01  8.50000000E-01
  8.50000000E-01  8.50000000E-01  8.00000000E-01  8.50000000E-01  8.50000000E-01
  8.50000000E-01  8.00000000E-01  8.50000000E-01  8.50000000E-01  8.50000000E-01
  8.00000000E-01  8.50000000E-01  8.50000000E-01  8.50000000E-01  8.00000000E-01
  8.50000000E-01  8.50000000E-01  8.50000000E-01  8.00000000E-01  8.50000000E-01
  8.50000000E-01  8.50000000E-01  8.00000000E-01  8.50000000E-01  8.50000000E-01
  8.50000000E-01  8.00000000E-01  8.50000000E-01  8.50000000E-01  8.50000000E-01
  8.00000000E-01  8.50000000E-01  8.50000000E-01  8.50000000E-01  8.00000000E-01
  8.50000000E-01  8.50000000E-01  8.50000000E-01  8.00000000E-01  8.50000000E-01
  8.50000000E-01  8.50000000E-01  8.00000000E-01  8.50000000E-01  8.50000000E-01
  8.50000000E-01  8.00000000E-01  8.50000000E-01  8.50000000E-01  8.50000000E-01
  8.00000000E-01  8.50000000E-01  8.50000000E-01  8.50000000E-01  8.00000000E-01
  8.50000000E-01  8.50000000E-01  8.50000000E-01  8.00000000E-01  8.50000000E-01
  8.50000000E-01  8.50000000E-01  8.00000000E-01  8.50000000E-01  8.50000000E-01
  8.50000000E-01  8.00000000E-01  8.50000000E-01  8.50000000E-01  8.50000000E-01
  8.00000000E-01  8.50000000E-01  8.50000000E-01  8.50000000E-01  8.00000000E-01
  8.50000000E-01  8.50000000E-01  8.50000000E-01  8.00000000E-01  8.50000000E-01
  8.50000000E-01  8.50000000E-01  8.00000000E-01  8.50000000E-01  8.50000000E-01
  8.50000000E-01  8.00000000E-01  8.50000000E-01  8.50000000E-01  8.50000000E-01
  8.00000000E-01  8.50000000E-01  8.50000000E-01  8.50000000E-01  8.00000000E-01
  8.50000000E-01  8.50000000E-01  8.50000000E-01  8.00000000E-01  8.50000000E-01
  8.50000000E-01  8.50000000E-01  8.00000000E-01  8.50000000E-01  8.50000000E-01
  8.50000000E-01  8.00000000E-01  8.50000000E-01  8.50000000E-01  8.50000000E-01
  8.00000000E-01  8.50000000E-01  8.50000000E-01  8.50000000E-01  8.00000000E-01
  8.50000000E-01  8.50000000E-01  8.50000000E-01  8.00000000E-01  8.50000000E-01
  8.50000000E-01  8.50000000E-01  8.00000000E-01  8.50000000E-01  8.50000000E-01
  8.50000000E-01  8.00000000E-01  8.50000000E-01  8.50000000E-01  8.50000000E-01
  8.00000000E-01  8.50000000E-01  8.50000000E-01  8.50000000E-01  8.00000000E-01
  8.50000000E-01  8.50000000E-01  8.50000000E-01  8.00000000E-01  8.50000000E-01
  8.50000000E-01  8.50000000E-01  8.00000000E-01  8.50000000E-01  8.50000000E-01
  8.50000000E-01  8.00000000E-01  8.50000000E-01  8.50000000E-01  8.50000000E-01
  8.00000000E-01  8.50000000E-01  8.50000000E-01  8.50000000E-01  8.00000000E-01
  8.50000000E-01  8.50000000E-01  8.50000000E-01  8.00000000E-01  8.50000000E-01
  8.50000000E-01  8.50000000E-01  8.00000000E-01  8.50000000E-01  8.50000000E-01
  8.50000000E-01  8.00000000E-01  8.50000000E-01  8.50000000E-01  8.50000000E-01
  8.00000000E-01  8.50000000E-01  8.50000000E-01  8.50000000E-01  8.00000000E-01
  8.50000000E-01  8.50000000E-01  8.50000000E-01  8.00000000E-01  8.50000000E-01
  8.50000000E-01  8.50000000E-01  8.00000000E-01  8.50000000E-01  8.50000000E-01
  8.50000000E-01  8.00000000E-01  8.50000000E-01  8.50000000E-01  8.50000000E-01
  8.00000000E-01  8.50000000E-01  8.50000000E-01  8.50000000E-01  8.00000000E-01
  8.50000000E-01  8.50000000E-01  8.50000000E-01  8.00000000E-01  8.50000000E-01
  8.50000000E-01  8.50000000E-01  8.00000000E-01  8.50000000E-01  8.50000000E-01
  8.50000000E-01  8.00000000E-01  8.50000000E-01  8.50000000E-01  8.50000000E-01
  8.00000000E-01  8.50000000E-01  8.50000000E-01  8.50000000E-01  8.00000000E-01
  8.50000000E-01  8.50000000E-01  8.50000000E-01  8.00000000E-01  8.50000000E-01
  8.50000000E-01  8.50000000E-01  8.00000000E-01  8.50000000E-01  8.50000000E-01
  8.50000000E-01  8.00000000E-01  8.50000000E-01  8.50000000E-01  8.50000000E-01
  8.00000000E-01  8.50000000E-01  8.50000000E-01  8.50000000E-01  8.00000000E-01
  8.50000000E-01  8.50000000E-01  8.50000000E-01  8.00000000E-01  8.50000000E-01
  8.50000000E-01  8.50000000E-01  8.00000000E-01  8.50000000E-01  8.50000000E-01
  8.50000000E-01  8.00000000E-01  8.50000000E-01  8.50000000E-01  8.50000000E-01
  8.00000000E-01  8.50000000E-01  8.50000000E-01  8.50000000E-01  8.00000000E-01
  8.50000000E-01  8.50000000E-01  8.50000000E-01  8.00000000E-01  8.50000000E-01
  8.50000000E-01  8.50000000E-01  8.00000000E-01  8.50000000E-01  8.50000000E-01
  8.50000000E-01  8.00000000E-01  8.50000000E-01  8.50000000E-01  8.50000000E-01
  8.00000000E-01  8.50000000E-01  8.50000000E-01  8.50000000E-01  8.00000000E-01
  8.50000000E-01  8.50000000E-01  8.50000000E-01  8.00000000E-01  8.50000000E-01
  8.50000000E-01  8.50000000E-01  8.00000000E-01  8.50000000E-01  8.50000000E-01
  8.50000000E-01  8.00000000E-01  8.50000000E-01  8.50000000E-01  8.50000000E-01
  8.00000000E-01  8.50000000E-01  8.50000000E-01  8.50000000E-01  8.00000000E-01
  8.50000000E-01  8.50000000E-01  8.50000000E-01  8.00000000E-01  8.50000000E-01
  8.50000000E-01  8.50000000E-01  8.00000000E-01  8.50000000E-01  8.50000000E-01
  8.50000000E-01  8.00000000E-01  8.50000000E-01  8.50000000E-01  8.50000000E-01
  8.00000000E-01  8.50000000E-01  8.50000000E-01  8.50000000E-01  8.00000000E-01
  8.50000000E-01  8.50000000E-01  8.50000000E-01  8.00000000E-01  8.50000000E-01
  8.50000000E-01  8.50000000E-01  8.00000000E-01  8.50000000E-01  8.50000000E-01
  8.50000000E-01  8.00000000E-01  8.50000000E-01  8.50000000E-01  8.50000000E-01
  8.00000000E-01  8.50000000E-01  8.50000000E-01  8.50000000E-01  8.00000000E-01
  8.50000000E-01  8.50000000E-01  8.50000000E-01  8.00000000E-01  8.50000000E-01
  8.50000000E-01  8.50000000E-01  8.00000000E-01  8.50000000E-01  8.50000000E-01
  8.50000000E-01  8.00000000E-01  8.50000000E-01  8.50000000E-01  8.50000000E-01
  8.00000000E-01  8.50000000E-01  8.50000000E-01  8.50000000E-01  8.00000000E-01
  8.50000000E-01  8.50000000E-01  8.50000000E-01  8.00000000E-01  8.50000000E-01
  8.50000000E-01  8.50000000E-01  8.00000000E-01  8.50000000E-01  8.50000000E-01
  8.50000000E-01  8.00000000E-01  8.50000000E-01  8.50000000E-01  8.50000000E-01
  8.00000000E-01  8.50000000E-01  8.50000000E-01  8.50000000E-01  8.00000000E-01
  8.50000000E-01  8.50000000E-01  8.50000000E-01  8.00000000E-01  8.50000000E-01
  8.50000000E-01  8.50000000E-01  8.00000000E-01  8.50000000E-01  8.50000000E-01
  8.50000000E-01  8.00000000E-01  8.50000000E-01  8.50000000E-01  8.50000000E-01
  8.00000000E-01  8.50000000E-01  8.50000000E-01  8.50000000E-01  8.00000000E-01
  8.50000000E-01  8.50000000E-01  8.50000000E-01  8.00000000E-01  8.50000000E-01
  8.50000000E-01  8.50000000E-01  8.00000000E-01  8.50000000E-01  8.50000000E-01
  8.50000000E-01  8.00000000E-01  8.50000000E-01  8.50000000E-01  8.50000000E-01
  8.00000000E-01  8.50000000E-01  8.50000000E-01  8.50000000E-01  8.00000000E-01
  8.50000000E-01  8.50000000E-01  8.50000000E-01  8.00000000E-01  8.50000000E-01
  8.50000000E-01  8.50000000E-01  8.00000000E-01  8.50000000E-01  8.50000000E-01
  8.50000000E-01  8.00000000E-01  8.50000000E-01  8.50000000E-01  8.50000000E-01
  8.00000000E-01  8.50000000E-01  8.50000000E-01  8.50000000E-01  8.00000000E-01
  8.50000000E-01  8.50000000E-01  8.50000000E-01  8.00000000E-01  8.50000000E-01
  8.50000000E-01  8.50000000E-01  8.00000000E-01  8.50000000E-01  8.50000000E-01
  8.50000000E-01  8.00000000E-01  8.50000000E-01  8.50000000E-01  8.50000000E-01
  8.00000000E-01  8.50000000E-01  8.50000000E-01  8.50000000E-01  8.00000000E-01
  8.50000000E-01  8.50000000E-01  8.50000000E-01  8.00000000E-01  8.50000000E-01
  8.50000000E-01  8.50000000E-01  8.00000000E-01  8.50000000E-01  8.50000000E-01
  8.50000000E-01  8.00000000E-01  8.50000000E-01  8.50000000E-01  8.50000000E-01
  8.00000000E-01  8.50000000E-01  8.50000000E-01  8.50000000E-01  8.00000000E-01
  8.50000000E-01  8.50000000E-01  8.50000000E-01  8.00000000E-01  8.50000000E-01
  8.50000000E-01  8.50000000E-01  8.00000000E-01  8.50000000E-01  8.50000000E-01
  8.50000000E-01  8.00000000E-01  8.50000000E-01  8.50000000E-01  8.50000000E-01
  8.00000000E-01  8.50000000E-01  8.50000000E-01  8.50000000E-01  8.00000000E-01
  8.50000000E-01  8.50000000E-01  8.50000000E-01  8.00000000E-01  8.50000000E-01
  8.50000000E-01  8.50000000E-01  8.00000000E-01  8.50000000E-01  8.50000000E-01
  8.50000000E-01  8.00000000E-01  8.50000000E-01  8.50000000E-01  8.50000000E-01
  8.00000000E-01  8.50000000E-01  8.50000000E-01  8.50000000E-01  8.00000000E-01
  8.50000000E-01  8.50000000E-01  8.50000000E-01  8.00000000E-01  8.50000000E-01
  8.50000000E-01  8.50000000E-01  8.00000000E-01  8.50000000E-01  8.50000000E-01
  8.50000000E-01  8.00000000E-01  8.50000000E-01  8.50000000E-01  8.50000000E-01
  8.00000000E-01  8.50000000E-01  8.50000000E-01  8.50000000E-01  8.00000000E-01
  8.50000000E-01  8.50000000E-01  8.50000000E-01  8.00000000E-01  8.50000000E-01
  8.50000000E-01  8.50000000E-01  8.00000000E-01  8.50000000E-01  8.50000000E-01
  8.50000000E-01  8.00000000E-01  8.50000000E-01  8.50000000E-01  8.50000000E-01
  8.00000000E-01  8.50000000E-01  8.50000000E-01  8.50000000E-01  8.00000000E-01
  8.50000000E-01  8.50000000E-01  8.50000000E-01  8.00000000E-01  8.50000000E-01
  8.50000000E-01  8.50000000E-01  8.00000000E-01  8.50000000E-01  8.50000000E-01
  8.50000000E-01  8.00000000E-01  8.50000000E-01  8.50000000E-01  8.50000000E-01
  8.00000000E-01  8.50000000E-01  8.50000000E-01  8.50000000E-01  8.00000000E-01
  8.50000000E-01  8.50000000E-01  8.50000000E-01  8.00000000E-01  8.50000000E-01
  8.50000000E-01  8.50000000E-01  8.00000000E-01  8.50000000E-01  8.50000000E-01
  8.50000000E-01  8.00000000E-01  8.50000000E-01  8.50000000E-01  8.50000000E-01
  8.00000000E-01  8.50000000E-01  8.50000000E-01  8.50000000E-01  8.00000000E-01
  8.50000000E-01  8.50000000E-01  8.50000000E-01  8.00000000E-01  8.50000000E-01
  8.50000000E-01  8.50000000E-01  8.00000000E-01  8.50000000E-01  8.50000000E-01
  8.50000000E-01  8.00000000E-01  8.50000000E-01  8.50000000E-01  8.50000000E-01
  8.00000000E-01  8.50000000E-01  8.50000000E-01  8.50000000E-01  8.00000000E-01
  8.50000000E-01  8.50000000E-01  8.50000000E-01  8.00000000E-01  8.50000000E-01
  8.50000000E-01  8.50000000E-01  8.00000000E-01  8.50000000E-01  8.50000000E-01
  8.50000000E-01  8.00000000E-01  8.50000000E-01  8.50000000E-01  8.50000000E-01
  8.00000000E-01  8.50000000E-01  8.50000000E-01  8.50000000E-01  8.00000000E-01
  8.50000000E-01  8.50000000E-01  8.50000000E-01  8.00000000E-01  8.50000000E-01
  8.50000000E-01  8.50000000E-01  8.00000000E-01  8.50000000E-01  8.50000000E-01
  8.50000000E-01  8.00000000E-01  8.50000000E-01  8.50000000E-01  8.50000000E-01
  8.00000000E-01  8.50000000E-01  8.50000000E-01  8.50000000E-01  8.00000000E-01
  8.50000000E-01  8.50000000E-01  8.50000000E-01  8.00000000E-01  8.50000000E-01
  8.50000000E-01  8.50000000E-01  8.00000000E-01  8.50000000E-01  8.50000000E-01
  8.50000000E-01  8.00000000E-01  8.50000000E-01  8.50000000E-01  8.50000000E-01
  8.00000000E-01  8.50000000E-01  8.50000000E-01  8.50000000E-01  8.00000000E-01
  8.50000000E-01  8.50000000E-01  8.50000000E-01  8.00000000E-01  8.50000000E-01
  8.50000000E-01  8.50000000E-01  8.00000000E-01  8.50000000E-01  8.50000000E-01
  8.50000000E-01  8.00000000E-01  8.50000000E-01  8.50000000E-01  8.50000000E-01
  8.00000000E-01  8.50000000E-01  8.50000000E-01  8.50000000E-01  8.00000000E-01
  8.50000000E-01  8.50000000E-01  8.50000000E-01  8.00000000E-01  8.50000000E-01
  8.50000000E-01  8.50000000E-01  8.00000000E-01  8.50000000E-01  8.50000000E-01
  8.50000000E-01  8.00000000E-01  8.50000000E-01  8.50000000E-01  8.50000000E-01
  8.00000000E-01  8.50000000E-01  8.50000000E-01  8.50000000E-01  8.00000000E-01
  8.50000000E-01  8.50000000E-01  8.50000000E-01  8.00000000E-01  8.50000000E-01
  8.50000000E-01  8.50000000E-01  8.00000000E-01  8.50000000E-01  8.50000000E-01
  8.50000000E-01  8.00000000E-01  8.50000000E-01  8.50000000E-01  8.50000000E-01
  8.00000000E-01  8.50000000E-01  8.50000000E-01  8.50000000E-01  8.00000000E-01
  8.50000000E-01  8.50000000E-01  8.50000000E-01  8.00000000E-01  8.50000000E-01
  8.50000000E-01  8.50000000E-01  8.00000000E-01  8.50000000E-01  8.50000000E-01
  8.50000000E-01  8.00000000E-01  8.50000000E-01  8.50000000E-01  8.50000000E-01
  8.00000000E-01  8.50000000E-01  8.50000000E-01  8.50000000E-01  8.00000000E-01
  8.50000000E-01  8.50000000E-01  8.50000000E-01  8.00000000E-01  8.50000000E-01
  8.50000000E-01  8.50000000E-01  8.00000000E-01  8.50000000E-01  8.50000000E-01
  8.50000000E-01  8.00000000E-01  8.50000000E-01  8.50000000E-01  8.50000000E-01
  8.00000000E-01  8.50000000E-01  8.50000000E-01  8.50000000E-01  8.00000000E-01
  8.50000000E-01  8.50000000E-01  8.50000000E-01  8.00000000E-01  8.50000000E-01
  8.50000000E-01  8.50000000E-01  8.00000000E-01  8.50000000E-01  8.50000000E-01
  8.50000000E-01  8.00000000E-01  8.50000000E-01  8.50000000E-01  8.50000000E-01
  8.00000000E-01  8.50000000E-01  8.50000000E-01  8.50000000E-01  8.00000000E-01
  8.50000000E-01  8.50000000E-01  8.50000000E-01  8.00000000E-01  8.50000000E-01
  8.50000000E-01  8.50000000E-01  8.00000000E-01  8.50000000E-01  8.50000000E-01
  8.50000000E-01  8.00000000E-01  8.50000000E-01  8.50000000E-01  8.50000000E-01
  8.00000000E-01  8.50000000E-01  8.50000000E-01  8.50000000E-01  8.00000000E-01
  8.50000000E-01  8.50000000E-01  8.50000000E-01  8.00000000E-01  8.50000000E-01
  8.50000000E-01  8.50000000E-01  8.00000000E-01  8.50000000E-01  8.50000000E-01
  8.50000000E-01  8.00000000E-01  8.50000000E-01  8.50000000E-01  8.50000000E-01
  8.00000000E-01  8.50000000E-01  8.50000000E-01  8.50000000E-01  8.00000000E-01
  8.50000000E-01  8.50000000E-01  8.50000000E-01  8.00000000E-01  8.50000000E-01
  8.50000000E-01  8.50000000E-01  8.00000000E-01  8.50000000E-01  8.50000000E-01
  8.50000000E-01  8.00000000E-01  8.50000000E-01  8.50000000E-01  8.50000000E-01
  8.00000000E-01  8.50000000E-01  8.50000000E-01  8.50000000E-01  8.00000000E-01
  8.50000000E-01  8.50000000E-01  8.50000000E-01  8.00000000E-01  8.50000000E-01
  8.50000000E-01  8.50000000E-01  8.00000000E-01  8.50000000E-01  8.50000000E-01
  8.50000000E-01  8.00000000E-01  8.50000000E-01  8.50000000E-01  8.50000000E-01
  8.00000000E-01  8.50000000E-01  8.50000000E-01  8.50000000E-01  8.00000000E-01
  8.50000000E-01  8.50000000E-01  8.50000000E-01  8.00000000E-01  8.50000000E-01
  8.50000000E-01  8.50000000E-01  8.00000000E-01  8.50000000E-01  8.50000000E-01
  8.50000000E-01  8.00000000E-01  8.50000000E-01  8.50000000E-01  8.50000000E-01
  8.00000000E-01  8.50000000E-01  8.50000000E-01  8.50000000E-01  8.00000000E-01
  8.50000000E-01  8.50000000E-01  8.50000000E-01  8.00000000E-01  8.50000000E-01
  8.50000000E-01  8.50000000E-01  8.00000000E-01  8.50000000E-01  8.50000000E-01
  8.50000000E-01  8.00000000E-01  8.50000000E-01  8.50000000E-01  8.50000000E-01
  8.00000000E-01  8.50000000E-01  8.50000000E-01  8.50000000E-01  8.00000000E-01
  8.50000000E-01  8.50000000E-01  8.50000000E-01  8.00000000E-01  8.50000000E-01
  8.50000000E-01  8.50000000E-01  8.00000000E-01  8.50000000E-01  8.50000000E-01
  8.50000000E-01  8.00000000E-01  8.50000000E-01  8.50000000E-01  8.50000000E-01
  8.00000000E-01  8.50000000E-01  8.50000000E-01  8.50000000E-01  8.00000000E-01
  8.50000000E-01  8.50000000E-01  8.50000000E-01  8.00000000E-01  8.50000000E-01
  8.50000000E-01  8.50000000E-01  8.00000000E-01  8.50000000E-01  8.50000000E-01
  8.50000000E-01  8.00000000E-01  8.50000000E-01  8.50000000E-01  8.50000000E-01
  8.00000000E-01  8.50000000E-01  8.50000000E-01  8.50000000E-01  8.00000000E-01
  8.50000000E-01  8.50000000E-01  8.50000000E-01  8.00000000E-01  8.50000000E-01
  8.50000000E-01  8.50000000E-01  8.00000000E-01  8.50000000E-01  8.50000000E-01
  8.50000000E-01  8.00000000E-01  8.50000000E-01  8.50000000E-01  8.50000000E-01
  8.00000000E-01  8.50000000E-01  8.50000000E-01  8.50000000E-01  8.00000000E-01
  8.50000000E-01  8.50000000E-01  8.50000000E-01  8.00000000E-01  8.50000000E-01
  8.50000000E-01  8.50000000E-01  8.00000000E-01  8.50000000E-01  8.50000000E-01
  8.50000000E-01  8.00000000E-01  8.50000000E-01  8.50000000E-01  8.50000000E-01
  8.00000000E-01  8.50000000E-01  8.50000000E-01  8.50000000E-01  8.00000000E-01
  8.50000000E-01  8.50000000E-01  8.50000000E-01  8.00000000E-01  8.50000000E-01
  8.50000000E-01  8.50000000E-01  8.00000000E-01  8.50000000E-01  8.50000000E-01
  8.50000000E-01  8.00000000E-01  8.50000000E-01  8.50000000E-01  8.50000000E-01
  8.00000000E-01  8.50000000E-01  8.50000000E-01  8.50000000E-01  8.00000000E-01
  8.50000000E-01  8.50000000E-01  8.50000000E-01  8.00000000E-01  8.50000000E-01
  8.50000000E-01  8.50000000E-01  8.00000000E-01  8.50000000E-01  8.50000000E-01
  8.50000000E-01  8.00000000E-01  8.50000000E-01  8.50000000E-01  8.50000000E-01
  8.00000000E-01  8.50000000E-01  8.50000000E-01  8.50000000E-01  8.00000000E-01
  8.50000000E-01  8.50000000E-01  8.50000000E-01  8.00000000E-01  8.50000000E-01
  8.50000000E-01  8.50000000E-01  8.00000000E-01  8.50000000E-01  8.50000000E-01
  8.50000000E-01  8.00000000E-01  8.50000000E-01  8.50000000E-01  8.50000000E-01
  8.00000000E-01  8.50000000E-01  8.50000000E-01  8.50000000E-01  8.00000000E-01
  8.50000000E-01  8.50000000E-01  8.50000000E-01  8.00000000E-01  8.50000000E-01
  8.50000000E-01  8.50000000E-01  8.00000000E-01  8.50000000E-01  8.50000000E-01
  8.50000000E-01  8.00000000E-01  8.50000000E-01  8.50000000E-01  8.50000000E-01
  8.00000000E-01  8.50000000E-01  8.50000000E-01  8.50000000E-01  8.00000000E-01
  8.50000000E-01  8.50000000E-01  8.50000000E-01  8.00000000E-01  8.50000000E-01
  8.50000000E-01  8.50000000E-01  8.00000000E-01  8.50000000E-01  8.50000000E-01
  8.50000000E-01  8.00000000E-01  8.50000000E-01  8.50000000E-01  8.50000000E-01
  8.00000000E-01  8.50000000E-01  8.50000000E-01  8.50000000E-01  8.00000000E-01
  8.50000000E-01  8.50000000E-01  8.50000000E-01  8.00000000E-01  8.50000000E-01
  8.50000000E-01  8.50000000E-01  8.00000000E-01  8.50000000E-01  8.50000000E-01
  8.50000000E-01  8.00000000E-01  8.50000000E-01  8.50000000E-01  8.50000000E-01
  8.00000000E-01  8.50000000E-01  8.50000000E-01  8.50000000E-01  8.00000000E-01
  8.50000000E-01  8.50000000E-01  8.50000000E-01  8.00000000E-01  8.50000000E-01
  8.50000000E-01  8.50000000E-01  8.00000000E-01  8.50000000E-01  8.50000000E-01
  8.50000000E-01  8.00000000E-01  8.50000000E-01  8.50000000E-01  8.50000000E-01
  8.00000000E-01  8.50000000E-01  8.50000000E-01  8.50000000E-01  8.00000000E-01
  8.50000000E-01  8.50000000E-01  8.50000000E-01  8.00000000E-01  8.50000000E-01
  8.50000000E-01  8.50000000E-01  8.00000000E-01  8.50000000E-01  8.50000000E-01
  8.50000000E-01  8.00000000E-01  8.50000000E-01  8.50000000E-01  8.50000000E-01
  8.00000000E-01  8.50000000E-01  8.50000000E-01  8.50000000E-01  8.00000000E-01
  8.50000000E-01  8.50000000E-01  8.50000000E-01  8.00000000E-01  8.50000000E-01
  8.50000000E-01  8.50000000E-01  8.00000000E-01  8.50000000E-01  8.50000000E-01
  8.50000000E-01  8.00000000E-01  8.50000000E-01  8.50000000E-01  8.50000000E-01
  8.00000000E-01  8.50000000E-01  8.50000000E-01  8.50000000E-01  8.00000000E-01
  8.50000000E-01  8.50000000E-01  8.50000000E-01  8.00000000E-01  8.50000000E-01
  8.50000000E-01  8.50000000E-01  8.00000000E-01  8.50000000E-01  8.50000000E-01
  8.50000000E-01  8.00000000E-01  8.50000000E-01  8.50000000E-01  8.50000000E-01
  8.00000000E-01  8.50000000E-01  8.50000000E-01  8.50000000E-01  8.00000000E-01
  8.50000000E-01  8.50000000E-01  8.50000000E-01  8.00000000E-01  8.50000000E-01
  8.50000000E-01  8.50000000E-01  8.00000000E-01  8.50000000E-01  8.50000000E-01
  8.50000000E-01  8.00000000E-01  8.50000000E-01  8.50000000E-01  8.50000000E-01
  8.00000000E-01  8.50000000E-01  8.50000000E-01  8.50000000E-01  8.00000000E-01
  8.50000000E-01  8.50000000E-01  8.50000000E-01  8.00000000E-01  8.50000000E-01
  8.50000000E-01  8.50000000E-01  8.00000000E-01  8.50000000E-01  8.50000000E-01
  8.50000000E-01  8.00000000E-01  8.50000000E-01  8.50000000E-01  8.50000000E-01
  8.00000000E-01  8.50000000E-01  8.50000000E-01  8.50000000E-01  8.00000000E-01
  8.50000000E-01  8.50000000E-01  8.50000000E-01  8.00000000E-01  8.50000000E-01
  8.50000000E-01  8.50000000E-01  8.00000000E-01  8.50000000E-01  8.50000000E-01
  8.50000000E-01  8.00000000E-01  8.50000000E-01  8.50000000E-01  8.50000000E-01
  8.00000000E-01  8.50000000E-01  8.50000000E-01  8.50000000E-01  8.00000000E-01
  8.50000000E-01  8.50000000E-01  8.50000000E-01  8.00000000E-01  8.50000000E-01
  8.50000000E-01  8.50000000E-01  8.00000000E-01  8.50000000E-01  8.50000000E-01
  8.50000000E-01  8.00000000E-01  8.50000000E-01  8.50000000E-01  8.50000000E-01
  8.00000000E-01  8.50000000E-01  8.50000000E-01  8.50000000E-01  8.00000000E-01
  8.50000000E-01  8.50000000E-01  8.50000000E-01  8.00000000E-01  8.50000000E-01
  8.50000000E-01  8.50000000E-01  8.00000000E-01  8.50000000E-01  8.50000000E-01
  8.50000000E-01  8.00000000E-01  8.50000000E-01  8.50000000E-01  8.50000000E-01
  8.00000000E-01  8.50000000E-01  8.50000000E-01  8.50000000E-01  8.00000000E-01
  8.50000000E-01  8.50000000E-01  8.50000000E-01  8.00000000E-01  8.50000000E-01
  8.50000000E-01  8.50000000E-01  8.00000000E-01  8.50000000E-01  8.50000000E-01
  8.50000000E-01  8.00000000E-01  8.50000000E-01  8.50000000E-01  8.50000000E-01
  8.00000000E-01  8.50000000E-01  8.50000000E-01  8.50000000E-01  8.00000000E-01
  8.50000000E-01  8.50000000E-01  8.50000000E-01  8.00000000E-01  8.50000000E-01
  8.50000000E-01  8.50000000E-01  8.00000000E-01  8.50000000E-01  8.50000000E-01
  8.50000000E-01  8.00000000E-01  8.50000000E-01  8.50000000E-01  8.50000000E-01
  8.00000000E-01  8.50000000E-01  8.50000000E-01  8.50000000E-01  8.00000000E-01
  8.50000000E-01  8.50000000E-01  8.50000000E-01  8.00000000E-01  8.50000000E-01
  8.50000000E-01  8.50000000E-01  8.00000000E-01  8.50000000E-01  8.50000000E-01
  8.50000000E-01  8.00000000E-01  8.50000000E-01  8.50000000E-01  8.50000000E-01
  8.00000000E-01  8.50000000E-01  8.50000000E-01  8.50000000E-01  8.00000000E-01
  8.50000000E-01  8.50000000E-01  8.50000000E-01  8.00000000E-01  8.50000000E-01
  8.50000000E-01  8.50000000E-01  8.00000000E-01  8.50000000E-01  8.50000000E-01
  8.50000000E-01  8.00000000E-01  8.50000000E-01  8.50000000E-01  8.50000000E-01
  8.00000000E-01  8.50000000E-01  8.50000000E-01  8.50000000E-01  8.00000000E-01
  8.50000000E-01  8.50000000E-01  8.50000000E-01  8.00000000E-01  8.50000000E-01
  8.50000000E-01  8.50000000E-01  8.00000000E-01  8.50000000E-01  8.50000000E-01
  8.50000000E-01  8.00000000E-01  8.50000000E-01  8.50000000E-01  8.50000000E-01
  8.00000000E-01  8.50000000E-01  8.50000000E-01  8.50000000E-01  8.00000000E-01
  8.50000000E-01  8.50000000E-01  8.50000000E-01  8.00000000E-01  8.50000000E-01
  8.50000000E-01  8.50000000E-01  8.00000000E-01  8.50000000E-01  8.50000000E-01
  8.50000000E-01  8.00000000E-01  8.50000000E-01  8.50000000E-01  8.50000000E-01
  8.00000000E-01  8.50000000E-01  8.50000000E-01  8.50000000E-01  8.00000000E-01
  8.50000000E-01  8.50000000E-01  8.50000000E-01  8.00000000E-01  8.50000000E-01
  8.50000000E-01  8.50000000E-01  8.00000000E-01  8.50000000E-01  8.50000000E-01
  8.50000000E-01  8.00000000E-01  8.50000000E-01  8.50000000E-01  8.50000000E-01
  8.00000000E-01  8.50000000E-01  8.50000000E-01  8.50000000E-01  8.00000000E-01
  8.50000000E-01  8.50000000E-01  8.50000000E-01  8.00000000E-01  8.50000000E-01
  8.50000000E-01  8.50000000E-01  8.00000000E-01  8.50000000E-01  8.50000000E-01
  8.50000000E-01  8.00000000E-01  8.50000000E-01  8.50000000E-01  8.50000000E-01
  8.00000000E-01  8.50000000E-01  8.50000000E-01  8.50000000E-01  8.00000000E-01
  8.50000000E-01  8.50000000E-01  8.50000000E-01  8.00000000E-01  8.50000000E-01
  8.50000000E-01  8.50000000E-01  8.00000000E-01  8.50000000E-01  8.50000000E-01
  8.50000000E-01  8.00000000E-01  8.50000000E-01  8.50000000E-01  8.50000000E-01
  8.00000000E-01  8.50000000E-01  8.50000000E-01  8.50000000E-01  8.00000000E-01
  8.50000000E-01  8.50000000E-01  8.50000000E-01  8.00000000E-01  8.50000000E-01
  8.50000000E-01  8.50000000E-01  8.00000000E-01  8.50000000E-01  8.50000000E-01
  8.50000000E-01  8.00000000E-01  8.50000000E-01  8.50000000E-01  8.50000000E-01
  8.00000000E-01  8.50000000E-01  8.50000000E-01  8.50000000E-01  8.00000000E-01
  8.50000000E-01  8.50000000E-01  8.50000000E-01  8.00000000E-01  8.50000000E-01
  8.50000000E-01  8.50000000E-01  8.00000000E-01  8.50000000E-01  8.50000000E-01
  8.50000000E-01  8.00000000E-01  8.50000000E-01  8.50000000E-01  8.50000000E-01
  8.00000000E-01  8.50000000E-01  8.50000000E-01  8.50000000E-01  8.00000000E-01
  8.50000000E-01  8.50000000E-01  8.50000000E-01  8.00000000E-01  8.50000000E-01
  8.50000000E-01  8.50000000E-01  8.00000000E-01  8.50000000E-01  8.50000000E-01
  8.50000000E-01  8.00000000E-01  8.50000000E-01  8.50000000E-01  8.50000000E-01
  8.00000000E-01  8.50000000E-01  8.50000000E-01  8.50000000E-01  8.00000000E-01
  8.50000000E-01  8.50000000E-01  8.50000000E-01  8.00000000E-01  8.50000000E-01
  8.50000000E-01  8.50000000E-01  8.00000000E-01  8.50000000E-01  8.50000000E-01
  8.50000000E-01  8.00000000E-01  8.50000000E-01  8.50000000E-01  8.50000000E-01
  8.00000000E-01  8.50000000E-01  8.50000000E-01  8.50000000E-01  8.00000000E-01
  8.50000000E-01  8.50000000E-01  8.50000000E-01  8.00000000E-01  8.50000000E-01
  8.50000000E-01  8.50000000E-01  8.00000000E-01  8.50000000E-01  8.50000000E-01
  8.50000000E-01  8.00000000E-01  8.50000000E-01  8.50000000E-01  8.50000000E-01
  8.00000000E-01  8.50000000E-01  8.50000000E-01  8.50000000E-01  8.00000000E-01
  8.50000000E-01  8.50000000E-01  8.50000000E-01  8.00000000E-01  8.50000000E-01
  8.50000000E-01  8.50000000E-01  8.00000000E-01  8.50000000E-01  8.50000000E-01
  8.50000000E-01  8.00000000E-01  8.50000000E-01  8.50000000E-01  8.50000000E-01
  8.00000000E-01  8.50000000E-01  8.50000000E-01  8.50000000E-01  8.00000000E-01
  8.50000000E-01  8.50000000E-01  8.50000000E-01  8.00000000E-01  8.50000000E-01
  8.50000000E-01  8.50000000E-01  8.00000000E-01  8.50000000E-01  8.50000000E-01
  8.50000000E-01  8.00000000E-01  8.50000000E-01  8.50000000E-01  8.50000000E-01
  8.00000000E-01  8.50000000E-01  8.50000000E-01  8.50000000E-01  8.00000000E-01
  8.50000000E-01  8.50000000E-01  8.50000000E-01  8.00000000E-01  8.50000000E-01
  8.50000000E-01  8.50000000E-01  8.00000000E-01  8.50000000E-01  8.50000000E-01
  8.50000000E-01  8.00000000E-01  8.50000000E-01  8.50000000E-01  8.50000000E-01
  8.00000000E-01  8.50000000E-01  8.50000000E-01  8.50000000E-01  8.00000000E-01
  8.50000000E-01  8.50000000E-01  8.50000000E-01  8.00000000E-01  8.50000000E-01
  8.50000000E-01  8.50000000E-01  8.00000000E-01  8.50000000E-01  8.50000000E-01
  8.50000000E-01  8.00000000E-01  8.50000000E-01  8.50000000E-01  8.50000000E-01
  8.00000000E-01  8.50000000E-01  8.50000000E-01  8.50000000E-01  8.00000000E-01
  8.50000000E-01  8.50000000E-01  8.50000000E-01  8.00000000E-01  8.50000000E-01
  8.50000000E-01  8.50000000E-01  8.00000000E-01  8.50000000E-01  8.50000000E-01
  8.50000000E-01  8.00000000E-01  8.50000000E-01  8.50000000E-01  8.50000000E-01
  8.00000000E-01  8.50000000E-01  8.50000000E-01  8.50000000E-01  8.00000000E-01
  8.50000000E-01  8.50000000E-01  8.50000000E-01  8.00000000E-01  8.50000000E-01
  8.50000000E-01  8.50000000E-01  8.00000000E-01  8.50000000E-01  8.50000000E-01
  8.50000000E-01  8.00000000E-01  8.50000000E-01  8.50000000E-01  8.50000000E-01
  8.00000000E-01  8.50000000E-01  8.50000000E-01  8.50000000E-01  8.00000000E-01
  8.50000000E-01  8.50000000E-01  8.50000000E-01  8.00000000E-01  8.50000000E-01
  8.50000000E-01  8.50000000E-01  8.00000000E-01  8.50000000E-01  8.50000000E-01
  8.50000000E-01  8.00000000E-01  8.50000000E-01  8.50000000E-01  8.50000000E-01
  8.00000000E-01  8.50000000E-01  8.50000000E-01  8.50000000E-01  8.00000000E-01
  8.50000000E-01  8.50000000E-01  8.50000000E-01  8.00000000E-01  8.50000000E-01
  8.50000000E-01  8.50000000E-01  8.00000000E-01  8.50000000E-01  8.50000000E-01
  8.50000000E-01  8.00000000E-01  8.50000000E-01  8.50000000E-01  8.50000000E-01
  8.00000000E-01  8.50000000E-01  8.50000000E-01  8.50000000E-01  8.00000000E-01
  8.50000000E-01  8.50000000E-01  8.50000000E-01  8.00000000E-01  8.50000000E-01
  8.50000000E-01  8.50000000E-01  8.00000000E-01  8.50000000E-01  8.50000000E-01
  8.50000000E-01  8.00000000E-01  8.50000000E-01  8.50000000E-01  8.50000000E-01
  8.00000000E-01  8.50000000E-01  8.50000000E-01  8.50000000E-01  8.00000000E-01
  8.50000000E-01  8.50000000E-01  8.50000000E-01  8.00000000E-01  8.50000000E-01
  8.50000000E-01  8.50000000E-01  8.00000000E-01  8.50000000E-01  8.50000000E-01
  8.50000000E-01  8.00000000E-01  8.50000000E-01  8.50000000E-01  8.50000000E-01
  8.00000000E-01  8.50000000E-01  8.50000000E-01  8.50000000E-01  8.00000000E-01
  8.50000000E-01  8.50000000E-01  8.50000000E-01  8.00000000E-01  8.50000000E-01
  8.50000000E-01  8.50000000E-01  8.00000000E-01  8.50000000E-01  8.50000000E-01
  8.50000000E-01  8.00000000E-01  8.50000000E-01  8.50000000E-01  8.50000000E-01
  8.00000000E-01  8.50000000E-01  8.50000000E-01  8.50000000E-01  8.00000000E-01
  8.50000000E-01  8.50000000E-01  8.50000000E-01  8.00000000E-01  8.50000000E-01
  8.50000000E-01  8.50000000E-01  8.00000000E-01  8.50000000E-01  8.50000000E-01
  8.50000000E-01  8.00000000E-01  8.50000000E-01  8.50000000E-01  8.50000000E-01
  8.00000000E-01  8.50000000E-01  8.50000000E-01  8.50000000E-01  8.00000000E-01
  8.50000000E-01  8.50000000E-01  8.50000000E-01  8.00000000E-01  8.50000000E-01
  8.50000000E-01  8.50000000E-01  8.00000000E-01  8.50000000E-01  8.50000000E-01
  8.50000000E-01  8.00000000E-01  8.50000000E-01  8.50000000E-01  8.50000000E-01
  8.00000000E-01  8.50000000E-01  8.50000000E-01  8.50000000E-01  8.00000000E-01
  8.50000000E-01  8.50000000E-01  8.50000000E-01  8.00000000E-01  8.50000000E-01
  8.50000000E-01  8.50000000E-01  8.00000000E-01  8.50000000E-01  8.50000000E-01
  8.50000000E-01  8.00000000E-01  8.50000000E-01  8.50000000E-01  8.50000000E-01
  8.00000000E-01  8.50000000E-01  8.50000000E-01  8.50000000E-01  8.00000000E-01
  8.50000000E-01  8.50000000E-01  8.50000000E-01  8.00000000E-01  8.50000000E-01
  8.50000000E-01  8.50000000E-01  8.00000000E-01  8.50000000E-01  8.50000000E-01
  8.50000000E-01  8.00000000E-01  8.50000000E-01  8.50000000E-01  8.50000000E-01
  8.00000000E-01  8.50000000E-01  8.50000000E-01  8.50000000E-01  8.00000000E-01
  8.50000000E-01  8.50000000E-01  8.50000000E-01  8.00000000E-01  8.50000000E-01
  8.50000000E-01  8.50000000E-01  8.00000000E-01  8.50000000E-01  8.50000000E-01
  8.50000000E-01  8.00000000E-01  8.50000000E-01  8.50000000E-01  8.50000000E-01
  8.00000000E-01  8.50000000E-01  8.50000000E-01  8.50000000E-01  8.00000000E-01
  8.50000000E-01  8.50000000E-01  8.50000000E-01  8.00000000E-01  8.50000000E-01
  8.50000000E-01  8.50000000E-01  8.00000000E-01  8.50000000E-01  8.50000000E-01
  8.50000000E-01  8.00000000E-01  8.50000000E-01  8.50000000E-01  8.50000000E-01
  8.00000000E-01  8.50000000E-01  8.50000000E-01  8.50000000E-01  8.00000000E-01
  8.50000000E-01  8.50000000E-01  8.50000000E-01  8.00000000E-01  8.50000000E-01
  8.50000000E-01  8.50000000E-01  8.00000000E-01  8.50000000E-01  8.50000000E-01
  8.50000000E-01  8.00000000E-01  8.50000000E-01  8.50000000E-01  8.50000000E-01
  8.00000000E-01  8.50000000E-01  8.50000000E-01  8.50000000E-01  8.00000000E-01
  8.50000000E-01  8.50000000E-01  8.50000000E-01  8.00000000E-01  8.50000000E-01
  8.50000000E-01  8.50000000E-01  8.00000000E-01  8.50000000E-01  8.50000000E-01
  8.50000000E-01  8.00000000E-01  8.50000000E-01  8.50000000E-01  8.50000000E-01
  8.00000000E-01  8.50000000E-01  8.50000000E-01  8.50000000E-01  8.00000000E-01
  8.50000000E-01  8.50000000E-01  8.50000000E-01  8.00000000E-01  8.50000000E-01
  8.50000000E-01  8.50000000E-01  8.00000000E-01  8.50000000E-01  8.50000000E-01
  8.50000000E-01  8.00000000E-01  8.50000000E-01  8.50000000E-01  8.50000000E-01
  8.00000000E-01  8.50000000E-01  8.50000000E-01  8.50000000E-01  8.00000000E-01
  8.50000000E-01  8.50000000E-01  8.50000000E-01  8.00000000E-01  8.50000000E-01
  8.50000000E-01  8.50000000E-01  8.00000000E-01  8.50000000E-01  8.50000000E-01
  8.50000000E-01  8.00000000E-01  8.50000000E-01  8.50000000E-01  8.50000000E-01
  8.00000000E-01  8.50000000E-01  8.50000000E-01  8.50000000E-01  8.00000000E-01
  8.50000000E-01  8.50000000E-01  8.50000000E-01  8.00000000E-01  8.50000000E-01
  8.50000000E-01  8.50000000E-01  8.00000000E-01  8.50000000E-01  8.50000000E-01
  8.50000000E-01  8.00000000E-01  8.50000000E-01  8.50000000E-01  8.50000000E-01
  8.00000000E-01  8.50000000E-01  8.50000000E-01  8.50000000E-01  8.00000000E-01
  8.50000000E-01  8.50000000E-01  8.50000000E-01  8.00000000E-01  8.50000000E-01
  8.50000000E-01  8.50000000E-01  8.00000000E-01  8.50000000E-01  8.50000000E-01
  8.50000000E-01  8.00000000E-01  8.50000000E-01  8.50000000E-01  8.50000000E-01
  8.00000000E-01  8.50000000E-01  8.50000000E-01  8.50000000E-01  8.00000000E-01
  8.50000000E-01  8.50000000E-01  8.50000000E-01  8.00000000E-01  8.50000000E-01
  8.50000000E-01  8.50000000E-01  8.00000000E-01  8.50000000E-01  8.50000000E-01
  8.50000000E-01  8.00000000E-01  8.50000000E-01  8.50000000E-01  8.50000000E-01
  8.00000000E-01  8.50000000E-01  8.50000000E-01  8.50000000E-01  8.00000000E-01
  8.50000000E-01  8.50000000E-01  8.50000000E-01  8.00000000E-01  8.50000000E-01
  8.50000000E-01  8.50000000E-01  8.00000000E-01  8.50000000E-01  8.50000000E-01
  8.50000000E-01  8.00000000E-01  8.50000000E-01  8.50000000E-01  8.50000000E-01
  8.00000000E-01  8.50000000E-01  8.50000000E-01  8.50000000E-01  8.00000000E-01
  8.50000000E-01  8.50000000E-01  8.50000000E-01  8.00000000E-01  8.50000000E-01
  8.50000000E-01  8.50000000E-01  8.00000000E-01  8.50000000E-01  8.50000000E-01
  8.50000000E-01  8.00000000E-01  8.50000000E-01  8.50000000E-01  8.50000000E-01
  8.00000000E-01  8.50000000E-01  8.50000000E-01  8.50000000E-01  8.00000000E-01
  8.50000000E-01  8.50000000E-01  8.50000000E-01  8.00000000E-01  8.50000000E-01
  8.50000000E-01  8.50000000E-01  8.00000000E-01  8.50000000E-01  8.50000000E-01
  8.50000000E-01  8.00000000E-01  8.50000000E-01  8.50000000E-01  8.50000000E-01
  8.00000000E-01  8.50000000E-01  8.50000000E-01  8.50000000E-01  8.00000000E-01
  8.50000000E-01  8.50000000E-01  8.50000000E-01  8.00000000E-01  8.50000000E-01
  8.50000000E-01  8.50000000E-01  8.00000000E-01  8.50000000E-01  8.50000000E-01
  8.50000000E-01  8.00000000E-01  8.50000000E-01  8.50000000E-01  8.50000000E-01
  8.00000000E-01  8.50000000E-01  8.50000000E-01  8.50000000E-01  8.00000000E-01
  8.50000000E-01  8.50000000E-01  8.50000000E-01  8.00000000E-01  8.50000000E-01
  8.50000000E-01  8.50000000E-01  8.00000000E-01  8.50000000E-01  8.50000000E-01
  8.50000000E-01  8.00000000E-01  8.50000000E-01  8.50000000E-01  8.50000000E-01
  8.00000000E-01  8.50000000E-01  8.50000000E-01  8.50000000E-01  8.00000000E-01
  8.50000000E-01  8.50000000E-01  8.50000000E-01  8.00000000E-01  8.50000000E-01
  8.50000000E-01  8.50000000E-01  8.00000000E-01  8.50000000E-01  8.50000000E-01
  8.50000000E-01  8.00000000E-01  8.50000000E-01  8.50000000E-01  8.50000000E-01
  8.00000000E-01  8.50000000E-01  8.50000000E-01  8.50000000E-01  8.00000000E-01
  8.50000000E-01  8.50000000E-01  8.50000000E-01  8.00000000E-01  8.50000000E-01
  8.50000000E-01  8.50000000E-01  8.00000000E-01  8.50000000E-01  8.50000000E-01
  8.50000000E-01  8.00000000E-01  8.50000000E-01  8.50000000E-01  8.50000000E-01
  8.00000000E-01  8.50000000E-01  8.50000000E-01  8.50000000E-01  8.00000000E-01
  8.50000000E-01  8.50000000E-01  8.50000000E-01  8.00000000E-01  8.50000000E-01
  8.50000000E-01  8.50000000E-01  8.00000000E-01  8.50000000E-01  8.50000000E-01
  8.50000000E-01  8.00000000E-01  8.50000000E-01  8.50000000E-01  8.50000000E-01
  8.00000000E-01  8.50000000E-01  8.50000000E-01  8.50000000E-01  8.00000000E-01
  8.50000000E-01  8.50000000E-01  8.50000000E-01  8.00000000E-01  8.50000000E-01
  8.50000000E-01  8.50000000E-01  8.00000000E-01  8.50000000E-01  8.50000000E-01
  8.50000000E-01  8.00000000E-01  8.50000000E-01  8.50000000E-01  8.50000000E-01
  8.00000000E-01  8.50000000E-01  8.50000000E-01  8.50000000E-01  8.00000000E-01
  8.50000000E-01  8.50000000E-01  8.50000000E-01  8.00000000E-01  8.50000000E-01
  8.50000000E-01  8.50000000E-01  8.00000000E-01  8.50000000E-01  8.50000000E-01
  8.50000000E-01  8.00000000E-01  8.50000000E-01  8.50000000E-01  8.50000000E-01
  8.00000000E-01  8.50000000E-01  8.50000000E-01  8.50000000E-01  8.00000000E-01
  8.50000000E-01  8.50000000E-01  8.50000000E-01  8.00000000E-01  8.50000000E-01
  8.50000000E-01  8.50000000E-01  8.00000000E-01  8.50000000E-01  8.50000000E-01
  8.50000000E-01  8.00000000E-01  8.50000000E-01  8.50000000E-01  8.50000000E-01
  8.00000000E-01  8.50000000E-01  8.50000000E-01  8.50000000E-01  8.00000000E-01
  8.50000000E-01  8.50000000E-01  8.50000000E-01  8.00000000E-01  8.50000000E-01
  8.50000000E-01  8.50000000E-01  8.00000000E-01  8.50000000E-01  8.50000000E-01
  8.50000000E-01  8.00000000E-01  8.50000000E-01  8.50000000E-01  8.50000000E-01
  8.00000000E-01  8.50000000E-01  8.50000000E-01  8.50000000E-01  8.00000000E-01
  8.50000000E-01  8.50000000E-01  8.50000000E-01  8.00000000E-01  8.50000000E-01
  8.50000000E-01  8.50000000E-01  8.00000000E-01  8.50000000E-01  8.50000000E-01
  8.50000000E-01  8.00000000E-01  8.50000000E-01  8.50000000E-01  8.50000000E-01
  8.00000000E-01  8.50000000E-01  8.50000000E-01  8.50000000E-01  8.00000000E-01
  8.50000000E-01  8.50000000E-01  8.50000000E-01  8.00000000E-01  8.50000000E-01
  8.50000000E-01  8.50000000E-01  8.00000000E-01  8.50000000E-01  8.50000000E-01
  8.50000000E-01  8.00000000E-01  8.50000000E-01  8.50000000E-01  8.50000000E-01
  8.00000000E-01  8.50000000E-01  8.50000000E-01  8.50000000E-01  8.00000000E-01
  8.50000000E-01  8.50000000E-01  8.50000000E-01  8.00000000E-01  8.50000000E-01
  8.50000000E-01  8.50000000E-01  8.00000000E-01  8.50000000E-01  8.50000000E-01
  8.50000000E-01  8.00000000E-01  8.50000000E-01  8.50000000E-01  8.50000000E-01
  8.00000000E-01  8.50000000E-01  8.50000000E-01  8.50000000E-01  8.00000000E-01
  8.50000000E-01  8.50000000E-01  8.50000000E-01  8.00000000E-01  8.50000000E-01
  8.50000000E-01  8.50000000E-01  8.00000000E-01  8.50000000E-01  8.50000000E-01
  8.50000000E-01  8.00000000E-01  8.50000000E-01  8.50000000E-01  8.50000000E-01
  8.00000000E-01  8.50000000E-01  8.50000000E-01  8.50000000E-01  8.00000000E-01
  8.50000000E-01  8.50000000E-01  8.50000000E-01  8.00000000E-01  8.50000000E-01
  8.50000000E-01  8.50000000E-01  8.00000000E-01  8.50000000E-01  8.50000000E-01
  8.50000000E-01  8.00000000E-01  8.50000000E-01  8.50000000E-01  8.50000000E-01
  8.00000000E-01  8.50000000E-01  8.50000000E-01  8.50000000E-01  8.00000000E-01
  8.50000000E-01  8.50000000E-01  8.50000000E-01  8.00000000E-01  8.50000000E-01
  8.50000000E-01  8.50000000E-01  8.00000000E-01  8.50000000E-01  8.50000000E-01
  8.50000000E-01  8.00000000E-01  8.50000000E-01  8.50000000E-01  8.50000000E-01
  8.00000000E-01  8.50000000E-01  8.50000000E-01  8.50000000E-01  8.00000000E-01
  8.50000000E-01  8.50000000E-01  8.50000000E-01  8.00000000E-01  8.50000000E-01
  8.50000000E-01  8.50000000E-01  8.00000000E-01  8.50000000E-01  8.50000000E-01
  8.50000000E-01  8.00000000E-01  8.50000000E-01  8.50000000E-01  8.50000000E-01
  8.00000000E-01  8.50000000E-01  8.50000000E-01  8.50000000E-01  8.00000000E-01
  8.50000000E-01  8.50000000E-01  8.50000000E-01  8.00000000E-01  8.50000000E-01
  8.50000000E-01  8.50000000E-01  8.00000000E-01  8.50000000E-01  8.50000000E-01
  8.50000000E-01  8.00000000E-01  8.50000000E-01  8.50000000E-01  8.50000000E-01
  8.00000000E-01  8.50000000E-01  8.50000000E-01  8.50000000E-01  8.00000000E-01
  8.50000000E-01  8.50000000E-01  8.50000000E-01  8.00000000E-01  8.50000000E-01
  8.50000000E-01  8.50000000E-01  8.00000000E-01  8.50000000E-01  8.50000000E-01
  8.50000000E-01  8.00000000E-01  8.50000000E-01  8.50000000E-01  8.50000000E-01
  8.00000000E-01  8.50000000E-01  8.50000000E-01  8.50000000E-01  8.00000000E-01
  8.50000000E-01  8.50000000E-01  8.50000000E-01  8.00000000E-01  8.50000000E-01
  8.50000000E-01  8.50000000E-01  8.00000000E-01  8.50000000E-01  8.50000000E-01
  8.50000000E-01  8.00000000E-01  8.50000000E-01  8.50000000E-01  8.50000000E-01
  8.00000000E-01  8.50000000E-01  8.50000000E-01  8.50000000E-01  8.00000000E-01
  8.50000000E-01  8.50000000E-01  8.50000000E-01  8.00000000E-01  8.50000000E-01
  8.50000000E-01  8.50000000E-01  8.00000000E-01  8.50000000E-01  8.50000000E-01
  8.50000000E-01  8.00000000E-01  8.50000000E-01  8.50000000E-01  8.50000000E-01
  8.00000000E-01  8.50000000E-01  8.50000000E-01  8.50000000E-01  8.00000000E-01
  8.50000000E-01  8.50000000E-01  8.50000000E-01  8.00000000E-01  8.50000000E-01
  8.50000000E-01  8.50000000E-01  8.00000000E-01  8.50000000E-01  8.50000000E-01
  8.50000000E-01  8.00000000E-01  8.50000000E-01  8.50000000E-01  8.50000000E-01
  8.00000000E-01  8.50000000E-01  8.50000000E-01  8.50000000E-01  8.00000000E-01
  8.50000000E-01  8.50000000E-01  8.50000000E-01  8.00000000E-01  8.50000000E-01
  8.50000000E-01  8.50000000E-01  8.00000000E-01  8.50000000E-01  8.50000000E-01
  8.50000000E-01  8.00000000E-01  8.50000000E-01  8.50000000E-01  8.50000000E-01
  8.00000000E-01  8.50000000E-01  8.50000000E-01  8.50000000E-01  8.00000000E-01
  8.50000000E-01  8.50000000E-01  8.50000000E-01  8.00000000E-01  8.50000000E-01
  8.50000000E-01  8.50000000E-01  8.00000000E-01  8.50000000E-01  8.50000000E-01
  8.50000000E-01  8.00000000E-01  8.50000000E-01  8.50000000E-01  8.50000000E-01
  8.00000000E-01  8.50000000E-01  8.50000000E-01  8.50000000E-01  8.00000000E-01
  8.50000000E-01  8.50000000E-01  8.50000000E-01  8.00000000E-01  8.50000000E-01
  8.50000000E-01  8.50000000E-01  8.00000000E-01  8.50000000E-01  8.50000000E-01
  8.50000000E-01  8.00000000E-01  8.50000000E-01  8.50000000E-01  8.50000000E-01
  8.00000000E-01  8.50000000E-01  8.50000000E-01  8.50000000E-01  8.00000000E-01
  8.50000000E-01  8.50000000E-01  8.50000000E-01  8.00000000E-01  8.50000000E-01
  8.50000000E-01  8.50000000E-01  8.00000000E-01  8.50000000E-01  8.50000000E-01
  8.50000000E-01  8.00000000E-01  8.50000000E-01  8.50000000E-01  8.50000000E-01
  8.00000000E-01  8.50000000E-01  8.50000000E-01  8.50000000E-01  8.00000000E-01
  8.50000000E-01  8.50000000E-01  8.50000000E-01  8.00000000E-01  8.50000000E-01
  8.50000000E-01  8.50000000E-01  8.00000000E-01  8.50000000E-01  8.50000000E-01
  8.50000000E-01  8.00000000E-01  8.50000000E-01  8.50000000E-01  8.50000000E-01
  8.00000000E-01  8.50000000E-01  8.50000000E-01  8.50000000E-01  8.00000000E-01
  8.50000000E-01  8.50000000E-01  8.50000000E-01  8.00000000E-01  8.50000000E-01
  8.50000000E-01  8.50000000E-01  8.00000000E-01  8.50000000E-01  8.50000000E-01
  8.50000000E-01  8.00000000E-01  8.50000000E-01  8.50000000E-01  8.50000000E-01
  8.00000000E-01  8.50000000E-01  8.50000000E-01  8.50000000E-01  8.00000000E-01
  8.50000000E-01  8.50000000E-01  8.50000000E-01  8.00000000E-01  8.50000000E-01
  8.50000000E-01  8.50000000E-01  8.00000000E-01  8.50000000E-01  8.50000000E-01
  8.50000000E-01  8.00000000E-01  8.50000000E-01  8.50000000E-01  8.50000000E-01
  8.00000000E-01  8.50000000E-01  8.50000000E-01  8.50000000E-01  8.00000000E-01
  8.50000000E-01  8.50000000E-01  8.50000000E-01  8.00000000E-01  8.50000000E-01
  8.50000000E-01  8.50000000E-01  8.00000000E-01  8.50000000E-01  8.50000000E-01
  8.50000000E-01  8.00000000E-01  8.50000000E-01  8.50000000E-01  8.50000000E-01
  8.00000000E-01  8.50000000E-01  8.50000000E-01  8.50000000E-01  8.00000000E-01
  8.50000000E-01  8.50000000E-01  8.50000000E-01  8.00000000E-01  8.50000000E-01
  8.50000000E-01  8.50000000E-01  8.00000000E-01  8.50000000E-01  8.50000000E-01
  8.50000000E-01  8.00000000E-01  8.50000000E-01  8.50000000E-01  8.50000000E-01
  8.00000000E-01  8.50000000E-01  8.50000000E-01  8.50000000E-01  8.00000000E-01
  8.50000000E-01  8.50000000E-01  8.50000000E-01  8.00000000E-01  8.50000000E-01
  8.50000000E-01  8.50000000E-01  8.00000000E-01  8.50000000E-01  8.50000000E-01
  8.50000000E-01  8.00000000E-01  8.50000000E-01  8.50000000E-01  8.50000000E-01
  8.00000000E-01  8.50000000E-01  8.50000000E-01  8.50000000E-01  8.00000000E-01
  8.50000000E-01  8.50000000E-01  8.50000000E-01  8.00000000E-01  8.50000000E-01
  8.50000000E-01  8.50000000E-01  8.00000000E-01  8.50000000E-01  8.50000000E-01
  8.50000000E-01  8.00000000E-01  8.50000000E-01  8.50000000E-01  8.50000000E-01
  8.00000000E-01  8.50000000E-01  8.50000000E-01  8.50000000E-01  8.00000000E-01
  8.50000000E-01  8.50000000E-01  8.50000000E-01  8.00000000E-01  8.50000000E-01
  8.50000000E-01  8.50000000E-01  8.00000000E-01  8.50000000E-01  8.50000000E-01
  8.50000000E-01  8.00000000E-01  8.50000000E-01  8.50000000E-01  8.50000000E-01
  8.00000000E-01  8.50000000E-01  8.50000000E-01  8.50000000E-01  8.00000000E-01
  8.50000000E-01  8.50000000E-01  8.50000000E-01  8.00000000E-01  8.50000000E-01
  8.50000000E-01  8.50000000E-01  8.00000000E-01  8.50000000E-01  8.50000000E-01
  8.50000000E-01  8.00000000E-01  8.50000000E-01  8.50000000E-01  8.50000000E-01
  8.00000000E-01  8.50000000E-01  8.50000000E-01  8.50000000E-01  8.00000000E-01
  8.50000000E-01  8.50000000E-01  8.50000000E-01  8.00000000E-01  8.50000000E-01
  8.50000000E-01  8.50000000E-01  8.00000000E-01  8.50000000E-01  8.50000000E-01
  8.50000000E-01  8.00000000E-01  8.50000000E-01  8.50000000E-01  8.50000000E-01
  8.00000000E-01  8.50000000E-01  8.50000000E-01  8.50000000E-01  8.00000000E-01
  8.50000000E-01  8.50000000E-01  8.50000000E-01  8.00000000E-01  8.50000000E-01
  8.50000000E-01  8.50000000E-01  8.00000000E-01  8.50000000E-01  8.50000000E-01
  8.50000000E-01  8.00000000E-01  8.50000000E-01  8.50000000E-01  8.50000000E-01
  8.00000000E-01  8.50000000E-01  8.50000000E-01  8.50000000E-01  8.00000000E-01
  8.50000000E-01  8.50000000E-01  8.50000000E-01  8.00000000E-01  8.50000000E-01
  8.50000000E-01  8.50000000E-01  8.00000000E-01  8.50000000E-01  8.50000000E-01
  8.50000000E-01  8.00000000E-01  8.50000000E-01  8.50000000E-01  8.50000000E-01
  8.00000000E-01  8.50000000E-01  8.50000000E-01  8.50000000E-01  8.00000000E-01
  8.50000000E-01  8.50000000E-01  8.50000000E-01  8.00000000E-01  8.50000000E-01
  8.50000000E-01  8.50000000E-01  8.00000000E-01  8.50000000E-01  8.50000000E-01
  8.50000000E-01  8.00000000E-01  8.50000000E-01  8.50000000E-01  8.50000000E-01
  8.00000000E-01  8.50000000E-01  8.50000000E-01  8.50000000E-01  8.00000000E-01
  8.50000000E-01  8.50000000E-01  8.50000000E-01  8.00000000E-01  8.50000000E-01
  8.50000000E-01  8.50000000E-01  8.00000000E-01  8.50000000E-01  8.50000000E-01
  8.50000000E-01  8.00000000E-01  8.50000000E-01  8.50000000E-01  8.50000000E-01
  8.00000000E-01  8.50000000E-01  8.50000000E-01  8.50000000E-01  8.00000000E-01
  8.50000000E-01  8.50000000E-01  8.50000000E-01  8.00000000E-01  8.50000000E-01
  8.50000000E-01  8.50000000E-01  8.00000000E-01  8.50000000E-01  8.50000000E-01
  8.50000000E-01  8.00000000E-01  8.50000000E-01  8.50000000E-01  8.50000000E-01
  8.00000000E-01  8.50000000E-01  8.50000000E-01  8.50000000E-01  8.00000000E-01
  8.50000000E-01  8.50000000E-01  8.50000000E-01  8.00000000E-01  8.50000000E-01
  8.50000000E-01  8.50000000E-01  8.00000000E-01  8.50000000E-01  8.50000000E-01
  8.50000000E-01  8.00000000E-01  8.50000000E-01  8.50000000E-01  8.50000000E-01
  8.00000000E-01  8.50000000E-01  8.50000000E-01  8.50000000E-01  8.00000000E-01
  8.50000000E-01  8.50000000E-01  8.50000000E-01  8.00000000E-01  8.50000000E-01
  8.50000000E-01  8.50000000E-01  8.00000000E-01  8.50000000E-01  8.50000000E-01
  8.50000000E-01  8.00000000E-01  8.50000000E-01  8.50000000E-01  8.50000000E-01
  8.00000000E-01  8.50000000E-01  8.50000000E-01  8.50000000E-01  8.00000000E-01
  8.50000000E-01  8.50000000E-01  8.50000000E-01  8.00000000E-01  8.50000000E-01
  8.50000000E-01  8.50000000E-01  8.00000000E-01  8.50000000E-01  8.50000000E-01
  8.50000000E-01  8.00000000E-01  8.50000000E-01  8.50000000E-01  8.50000000E-01
  8.00000000E-01  8.50000000E-01  8.50000000E-01  8.50000000E-01  8.00000000E-01
  8.50000000E-01  8.50000000E-01  8.50000000E-01  8.00000000E-01  8.50000000E-01
  8.50000000E-01  8.50000000E-01  8.00000000E-01  8.50000000E-01  8.50000000E-01
  8.50000000E-01  8.00000000E-01  8.50000000E-01  8.50000000E-01  8.50000000E-01
  8.00000000E-01  8.50000000E-01  8.50000000E-01  8.50000000E-01  8.00000000E-01
  8.50000000E-01  8.50000000E-01  8.50000000E-01  8.00000000E-01  8.50000000E-01
  8.50000000E-01  8.50000000E-01  8.00000000E-01  8.50000000E-01  8.50000000E-01
  8.50000000E-01  8.00000000E-01  8.50000000E-01  8.50000000E-01  8.50000000E-01
  8.00000000E-01  8.50000000E-01  8.50000000E-01  8.50000000E-01  8.00000000E-01
  8.50000000E-01  8.50000000E-01  8.50000000E-01  8.00000000E-01  8.50000000E-01
  8.50000000E-01  8.50000000E-01  8.00000000E-01  8.50000000E-01  8.50000000E-01
  8.50000000E-01  8.00000000E-01  8.50000000E-01  8.50000000E-01  8.50000000E-01
  8.00000000E-01  8.50000000E-01  8.50000000E-01  8.50000000E-01  8.00000000E-01
  8.50000000E-01  8.50000000E-01  8.50000000E-01  8.00000000E-01  8.50000000E-01
  8.50000000E-01  8.50000000E-01  8.00000000E-01  8.50000000E-01  8.50000000E-01
  8.50000000E-01  8.00000000E-01  8.50000000E-01  8.50000000E-01  8.50000000E-01
  8.00000000E-01  8.50000000E-01  8.50000000E-01  8.50000000E-01  8.00000000E-01
  8.50000000E-01  8.50000000E-01  8.50000000E-01  8.00000000E-01  8.50000000E-01
  8.50000000E-01  8.50000000E-01  8.00000000E-01  8.50000000E-01  8.50000000E-01
  8.50000000E-01  8.00000000E-01  8.50000000E-01  8.50000000E-01  8.50000000E-01
  8.00000000E-01  8.50000000E-01  8.50000000E-01  8.50000000E-01  8.00000000E-01
  8.50000000E-01  8.50000000E-01  8.50000000E-01  8.00000000E-01  8.50000000E-01
  8.50000000E-01  8.50000000E-01  8.00000000E-01  8.50000000E-01  8.50000000E-01
  8.50000000E-01  8.00000000E-01  8.50000000E-01  8.50000000E-01  8.50000000E-01
  8.00000000E-01  8.50000000E-01  8.50000000E-01  8.50000000E-01  8.00000000E-01
  8.50000000E-01  8.50000000E-01  8.50000000E-01  8.00000000E-01  8.50000000E-01
  8.50000000E-01  8.50000000E-01  8.00000000E-01  8.50000000E-01  8.50000000E-01
  8.50000000E-01  8.00000000E-01  8.50000000E-01  8.50000000E-01  8.50000000E-01
  8.00000000E-01  8.50000000E-01  8.50000000E-01  8.50000000E-01  8.00000000E-01
  8.50000000E-01  8.50000000E-01  8.50000000E-01  8.00000000E-01  8.50000000E-01
  8.50000000E-01  8.50000000E-01  8.00000000E-01  8.50000000E-01  8.50000000E-01
  8.50000000E-01  8.00000000E-01  8.50000000E-01  8.50000000E-01  8.50000000E-01
  8.00000000E-01  8.50000000E-01  8.50000000E-01  8.50000000E-01  8.00000000E-01
  8.50000000E-01  8.50000000E-01  8.50000000E-01  8.00000000E-01  8.50000000E-01
  8.50000000E-01  8.50000000E-01  8.00000000E-01  8.50000000E-01  8.50000000E-01
  8.50000000E-01  8.00000000E-01  8.50000000E-01  8.50000000E-01  8.50000000E-01
  8.00000000E-01  8.50000000E-01  8.50000000E-01  8.50000000E-01  8.00000000E-01
  8.50000000E-01  8.50000000E-01  8.50000000E-01  8.00000000E-01  8.50000000E-01
  8.50000000E-01  8.50000000E-01  8.00000000E-01  8.50000000E-01  8.50000000E-01
  8.50000000E-01  8.00000000E-01  8.50000000E-01  8.50000000E-01  8.50000000E-01
  8.00000000E-01  8.50000000E-01  8.50000000E-01  8.50000000E-01  8.00000000E-01
  8.50000000E-01  8.50000000E-01  8.50000000E-01  8.00000000E-01  8.50000000E-01
  8.50000000E-01  8.50000000E-01  8.00000000E-01  8.50000000E-01  8.50000000E-01
  8.50000000E-01  8.00000000E-01  8.50000000E-01  8.50000000E-01  8.50000000E-01
  8.00000000E-01  8.50000000E-01  8.50000000E-01  8.50000000E-01  8.00000000E-01
  8.50000000E-01  8.50000000E-01  8.50000000E-01  8.00000000E-01  8.50000000E-01
  8.50000000E-01  8.50000000E-01  8.00000000E-01  8.50000000E-01  8.50000000E-01
  8.50000000E-01  8.00000000E-01  8.50000000E-01  8.50000000E-01  8.50000000E-01
  8.00000000E-01  8.50000000E-01  8.50000000E-01  8.50000000E-01  8.00000000E-01
  8.50000000E-01  8.50000000E-01  8.50000000E-01  8.00000000E-01  8.50000000E-01
  8.50000000E-01  8.50000000E-01  8.00000000E-01  8.50000000E-01  8.50000000E-01
  8.50000000E-01  8.00000000E-01  8.50000000E-01  8.50000000E-01  8.50000000E-01
  8.00000000E-01  8.50000000E-01  8.50000000E-01  8.50000000E-01  8.00000000E-01
  8.50000000E-01  8.50000000E-01  8.50000000E-01  8.00000000E-01  8.50000000E-01
  8.50000000E-01  8.50000000E-01  8.00000000E-01  8.50000000E-01  8.50000000E-01
  8.50000000E-01  8.00000000E-01  8.50000000E-01  8.50000000E-01  8.50000000E-01
  8.00000000E-01  8.50000000E-01  8.50000000E-01  8.50000000E-01  8.00000000E-01
  8.50000000E-01  8.50000000E-01  8.50000000E-01  8.00000000E-01  8.50000000E-01
  8.50000000E-01  8.50000000E-01  8.00000000E-01  8.50000000E-01  8.50000000E-01
  8.50000000E-01  8.00000000E-01  8.50000000E-01  8.50000000E-01  8.50000000E-01
  8.00000000E-01  8.50000000E-01  8.50000000E-01  8.50000000E-01  8.00000000E-01
  8.50000000E-01  8.50000000E-01  8.50000000E-01  8.00000000E-01  8.50000000E-01
  8.50000000E-01  8.50000000E-01  8.00000000E-01  8.50000000E-01  8.50000000E-01
  8.50000000E-01  8.00000000E-01  8.50000000E-01  8.50000000E-01  8.50000000E-01
  8.00000000E-01  8.50000000E-01  8.50000000E-01  8.50000000E-01  8.00000000E-01
  8.50000000E-01  8.50000000E-01  8.50000000E-01  8.00000000E-01  8.50000000E-01
  8.50000000E-01  8.50000000E-01  8.00000000E-01  8.50000000E-01  8.50000000E-01
  8.50000000E-01  8.00000000E-01  8.50000000E-01  8.50000000E-01  8.50000000E-01
  8.00000000E-01  8.50000000E-01  8.50000000E-01  8.50000000E-01  8.00000000E-01
  8.50000000E-01  8.50000000E-01  8.50000000E-01  8.00000000E-01  8.50000000E-01
  8.50000000E-01  8.50000000E-01  8.00000000E-01  8.50000000E-01  8.50000000E-01
  8.50000000E-01  8.00000000E-01  8.50000000E-01  8.50000000E-01  8.50000000E-01
  8.00000000E-01  8.50000000E-01  8.50000000E-01  8.50000000E-01  8.00000000E-01
  8.50000000E-01  8.50000000E-01  8.50000000E-01  8.00000000E-01  8.50000000E-01
  8.50000000E-01  8.50000000E-01  8.00000000E-01  8.50000000E-01  8.50000000E-01
  8.50000000E-01  8.00000000E-01  8.50000000E-01  8.50000000E-01  8.50000000E-01
  8.00000000E-01  8.50000000E-01  8.50000000E-01  8.50000000E-01  8.00000000E-01
  8.50000000E-01  8.50000000E-01  8.50000000E-01  8.00000000E-01  8.50000000E-01
  8.50000000E-01  8.50000000E-01  8.00000000E-01  8.50000000E-01  8.50000000E-01
  8.50000000E-01  8.00000000E-01  8.50000000E-01  8.50000000E-01  8.50000000E-01
  8.00000000E-01  8.50000000E-01  8.50000000E-01  8.50000000E-01  8.00000000E-01
  8.50000000E-01  8.50000000E-01  8.50000000E-01  8.00000000E-01  8.50000000E-01
  8.50000000E-01  8.50000000E-01  8.00000000E-01  8.50000000E-01  8.50000000E-01
  8.50000000E-01  8.00000000E-01  8.50000000E-01  8.50000000E-01  8.50000000E-01
  8.00000000E-01  8.50000000E-01  8.50000000E-01  8.50000000E-01  8.00000000E-01
  8.50000000E-01  8.50000000E-01  8.50000000E-01  8.00000000E-01  8.50000000E-01
  8.50000000E-01  8.50000000E-01  8.00000000E-01  8.50000000E-01  8.50000000E-01
  8.50000000E-01  8.00000000E-01  8.50000000E-01  8.50000000E-01  8.50000000E-01
  8.00000000E-01  8.50000000E-01  8.50000000E-01  8.50000000E-01  8.00000000E-01
  8.50000000E-01  8.50000000E-01  8.50000000E-01  8.00000000E-01  8.50000000E-01
  8.50000000E-01  8.50000000E-01  8.00000000E-01  8.50000000E-01  8.50000000E-01
  8.50000000E-01  8.00000000E-01  8.50000000E-01  8.50000000E-01  8.50000000E-01
  8.00000000E-01  8.50000000E-01  8.50000000E-01  8.50000000E-01  8.00000000E-01
  8.50000000E-01  8.50000000E-01  8.50000000E-01  8.00000000E-01  8.50000000E-01
  8.50000000E-01  8.50000000E-01  8.00000000E-01  8.50000000E-01  8.50000000E-01
  8.50000000E-01  8.00000000E-01  8.50000000E-01  8.50000000E-01  8.50000000E-01
  8.00000000E-01  8.50000000E-01  8.50000000E-01  8.50000000E-01  8.00000000E-01
  8.50000000E-01  8.50000000E-01  8.50000000E-01  8.00000000E-01  8.50000000E-01
  8.50000000E-01  8.50000000E-01  8.00000000E-01  8.50000000E-01  8.50000000E-01
  8.50000000E-01  8.00000000E-01  8.50000000E-01  8.50000000E-01  8.50000000E-01
  8.00000000E-01  8.50000000E-01  8.50000000E-01  8.50000000E-01  8.00000000E-01
  8.50000000E-01  8.50000000E-01  8.50000000E-01  8.00000000E-01  8.50000000E-01
  8.50000000E-01  8.50000000E-01  8.00000000E-01  8.50000000E-01  8.50000000E-01
  8.50000000E-01  8.00000000E-01  8.50000000E-01  8.50000000E-01  8.50000000E-01
  8.00000000E-01  8.50000000E-01  8.50000000E-01  8.50000000E-01  8.00000000E-01
  8.50000000E-01  8.50000000E-01  8.50000000E-01  8.00000000E-01  8.50000000E-01
  8.50000000E-01  8.50000000E-01  8.00000000E-01  8.50000000E-01  8.50000000E-01
  8.50000000E-01  8.00000000E-01  8.50000000E-01  8.50000000E-01  8.50000000E-01
  8.00000000E-01  8.50000000E-01  8.50000000E-01  8.50000000E-01  8.00000000E-01
  8.50000000E-01  8.50000000E-01  8.50000000E-01  8.00000000E-01  8.50000000E-01
  8.50000000E-01  8.50000000E-01  8.00000000E-01  8.50000000E-01  8.50000000E-01
  8.50000000E-01  8.00000000E-01  8.50000000E-01  8.50000000E-01  8.50000000E-01
  8.00000000E-01  8.50000000E-01  8.50000000E-01  8.50000000E-01  8.00000000E-01
  8.50000000E-01  8.50000000E-01  8.50000000E-01  8.00000000E-01  8.50000000E-01
  8.50000000E-01  8.50000000E-01  8.00000000E-01  8.50000000E-01  8.50000000E-01
  8.50000000E-01  8.00000000E-01  8.50000000E-01  8.50000000E-01  8.50000000E-01
  8.00000000E-01  8.50000000E-01  8.50000000E-01  8.50000000E-01  8.00000000E-01
  8.50000000E-01  8.50000000E-01  8.50000000E-01  8.00000000E-01  8.50000000E-01
  8.50000000E-01  8.50000000E-01  8.00000000E-01  8.50000000E-01  8.50000000E-01
  8.50000000E-01  8.00000000E-01  8.50000000E-01  8.50000000E-01  8.50000000E-01
  8.00000000E-01  8.50000000E-01  8.50000000E-01  8.50000000E-01  8.00000000E-01
  8.50000000E-01  8.50000000E-01  8.50000000E-01  8.00000000E-01  8.50000000E-01
  8.50000000E-01  8.50000000E-01  8.00000000E-01  8.50000000E-01  8.50000000E-01
  8.50000000E-01  8.00000000E-01  8.50000000E-01  8.50000000E-01  8.50000000E-01
  8.00000000E-01  8.50000000E-01  8.50000000E-01  8.50000000E-01  8.00000000E-01
  8.50000000E-01  8.50000000E-01  8.50000000E-01  8.00000000E-01  8.50000000E-01
  8.50000000E-01  8.50000000E-01  8.00000000E-01  8.50000000E-01  8.50000000E-01
  8.50000000E-01  8.00000000E-01  8.50000000E-01  8.50000000E-01  8.50000000E-01
  8.00000000E-01  8.50000000E-01  8.50000000E-01  8.50000000E-01  8.00000000E-01
  8.50000000E-01  8.50000000E-01  8.50000000E-01  8.00000000E-01  8.50000000E-01
  8.50000000E-01  8.50000000E-01  8.00000000E-01  8.50000000E-01  8.50000000E-01
  8.50000000E-01  8.00000000E-01  8.50000000E-01  8.50000000E-01  8.50000000E-01
  8.00000000E-01  8.50000000E-01  8.50000000E-01  8.50000000E-01  8.00000000E-01
  8.50000000E-01  8.50000000E-01  8.50000000E-01  8.00000000E-01  8.50000000E-01
  8.50000000E-01  8.50000000E-01  8.00000000E-01  8.50000000E-01  8.50000000E-01
  8.50000000E-01  8.00000000E-01  8.50000000E-01  8.50000000E-01  8.50000000E-01
  8.00000000E-01  8.50000000E-01  8.50000000E-01  8.50000000E-01  8.00000000E-01
  8.50000000E-01  8.50000000E-01  8.50000000E-01  8.00000000E-01  8.50000000E-01
  8.50000000E-01  8.50000000E-01  8.00000000E-01  8.50000000E-01  8.50000000E-01
  8.50000000E-01  8.00000000E-01  8.50000000E-01  8.50000000E-01  8.50000000E-01
  8.00000000E-01  8.50000000E-01  8.50000000E-01  8.50000000E-01  8.00000000E-01
  8.50000000E-01  8.50000000E-01  8.50000000E-01  8.00000000E-01  8.50000000E-01
  8.50000000E-01  8.50000000E-01  8.00000000E-01  8.50000000E-01  8.50000000E-01
  8.50000000E-01  8.00000000E-01  8.50000000E-01  8.50000000E-01  8.50000000E-01
  8.00000000E-01  8.50000000E-01  8.50000000E-01  8.50000000E-01  8.00000000E-01
  8.50000000E-01  8.50000000E-01  8.50000000E-01  8.00000000E-01  8.50000000E-01
  8.50000000E-01  8.50000000E-01  8.00000000E-01  8.50000000E-01  8.50000000E-01
  8.50000000E-01  8.00000000E-01  8.50000000E-01  8.50000000E-01  8.50000000E-01
  8.00000000E-01  8.50000000E-01  8.50000000E-01  8.50000000E-01  8.00000000E-01
  8.50000000E-01  8.50000000E-01  8.50000000E-01  8.00000000E-01  8.50000000E-01
  8.50000000E-01  8.50000000E-01  8.00000000E-01  8.50000000E-01  8.50000000E-01
  8.50000000E-01  8.00000000E-01  8.50000000E-01  8.50000000E-01  8.50000000E-01
  8.00000000E-01  8.50000000E-01  8.50000000E-01  8.50000000E-01  8.00000000E-01
  8.50000000E-01  8.50000000E-01  8.50000000E-01  8.00000000E-01  8.50000000E-01
  8.50000000E-01  8.50000000E-01  8.00000000E-01  8.50000000E-01  8.50000000E-01
  8.50000000E-01  8.00000000E-01  8.50000000E-01  8.50000000E-01  8.50000000E-01
  8.00000000E-01  8.50000000E-01  8.50000000E-01  8.50000000E-01  8.00000000E-01
  8.50000000E-01  8.50000000E-01  8.50000000E-01  8.00000000E-01  8.50000000E-01
  8.50000000E-01  8.50000000E-01  8.00000000E-01  8.50000000E-01  8.50000000E-01
  8.50000000E-01  8.00000000E-01  8.50000000E-01  8.50000000E-01  8.50000000E-01
  8.00000000E-01  8.50000000E-01  8.50000000E-01  8.50000000E-01  8.00000000E-01
  8.50000000E-01  8.50000000E-01  8.50000000E-01  8.00000000E-01  8.50000000E-01
  8.50000000E-01  8.50000000E-01  8.00000000E-01  8.50000000E-01  8.50000000E-01
  8.50000000E-01  8.00000000E-01  8.50000000E-01  8.50000000E-01  8.50000000E-01
  8.00000000E-01  8.50000000E-01  8.50000000E-01  8.50000000E-01  8.00000000E-01
  8.50000000E-01  8.50000000E-01  8.50000000E-01  8.00000000E-01  8.50000000E-01
  8.50000000E-01  8.50000000E-01  8.00000000E-01  8.50000000E-01  8.50000000E-01
  8.50000000E-01  8.00000000E-01  8.50000000E-01  8.50000000E-01  8.50000000E-01
  8.00000000E-01  8.50000000E-01  8.50000000E-01  8.50000000E-01  8.00000000E-01
  8.50000000E-01  8.50000000E-01  8.50000000E-01  8.00000000E-01  8.50000000E-01
  8.50000000E-01  8.50000000E-01  8.00000000E-01  8.50000000E-01  8.50000000E-01
  8.50000000E-01  8.00000000E-01  8.50000000E-01  8.50000000E-01  8.50000000E-01
  8.00000000E-01  8.50000000E-01  8.50000000E-01  8.50000000E-01  8.00000000E-01
  8.50000000E-01  8.50000000E-01  8.50000000E-01  8.00000000E-01  8.50000000E-01
  8.50000000E-01  8.50000000E-01  8.00000000E-01  8.50000000E-01  8.50000000E-01
  8.50000000E-01  8.00000000E-01  8.50000000E-01  8.50000000E-01  8.50000000E-01
  8.00000000E-01  8.50000000E-01  8.50000000E-01  8.50000000E-01  8.00000000E-01
  8.50000000E-01  8.50000000E-01  8.50000000E-01  8.00000000E-01  8.50000000E-01
  8.50000000E-01  8.50000000E-01  8.00000000E-01  8.50000000E-01  8.50000000E-01
  8.50000000E-01  8.00000000E-01  8.50000000E-01  8.50000000E-01  8.50000000E-01
  8.00000000E-01  8.50000000E-01  8.50000000E-01  8.50000000E-01  8.00000000E-01
  8.50000000E-01  8.50000000E-01  8.50000000E-01  8.00000000E-01  8.50000000E-01
  8.50000000E-01  8.50000000E-01  8.00000000E-01  8.50000000E-01  8.50000000E-01
  8.50000000E-01  8.00000000E-01  8.50000000E-01  8.50000000E-01  8.50000000E-01
  8.00000000E-01  8.50000000E-01  8.50000000E-01  8.50000000E-01  8.00000000E-01
  8.50000000E-01  8.50000000E-01  8.50000000E-01  8.00000000E-01  8.50000000E-01
  8.50000000E-01  8.50000000E-01  8.00000000E-01  8.50000000E-01  8.50000000E-01
  8.50000000E-01  8.00000000E-01  8.50000000E-01  8.50000000E-01  8.50000000E-01
  8.00000000E-01  8.50000000E-01  8.50000000E-01  8.50000000E-01  8.00000000E-01
  8.50000000E-01  8.50000000E-01  8.50000000E-01  8.00000000E-01  8.50000000E-01
  8.50000000E-01  8.50000000E-01  8.00000000E-01  8.50000000E-01  8.50000000E-01
  8.50000000E-01  8.00000000E-01  8.50000000E-01  8.50000000E-01  8.50000000E-01
  8.00000000E-01  8.50000000E-01  8.50000000E-01  8.50000000E-01  8.00000000E-01
  8.50000000E-01  8.50000000E-01  8.50000000E-01  8.00000000E-01  8.50000000E-01
  8.50000000E-01  8.50000000E-01  8.00000000E-01  8.50000000E-01  8.50000000E-01
  8.50000000E-01  8.00000000E-01  8.50000000E-01  8.50000000E-01  8.50000000E-01
  8.00000000E-01  8.50000000E-01  8.50000000E-01  8.50000000E-01  8.00000000E-01
  8.50000000E-01  8.50000000E-01  8.50000000E-01  8.00000000E-01  8.50000000E-01
  8.50000000E-01  8.50000000E-01  8.00000000E-01  8.50000000E-01  8.50000000E-01
  8.50000000E-01  8.00000000E-01  8.50000000E-01  8.50000000E-01  8.50000000E-01
  8.00000000E-01  8.50000000E-01  8.50000000E-01  8.50000000E-01  8.00000000E-01
  8.50000000E-01  8.50000000E-01  8.50000000E-01  8.00000000E-01  8.50000000E-01
  8.50000000E-01  8.50000000E-01  8.00000000E-01  8.50000000E-01  8.50000000E-01
  8.50000000E-01  8.00000000E-01  8.50000000E-01  8.50000000E-01  8.50000000E-01
  8.00000000E-01  8.50000000E-01  8.50000000E-01  8.50000000E-01  8.00000000E-01
  8.50000000E-01  8.50000000E-01  8.50000000E-01  8.00000000E-01  8.50000000E-01
  8.50000000E-01  8.50000000E-01  8.00000000E-01  8.50000000E-01  8.50000000E-01
  8.50000000E-01  8.00000000E-01  8.50000000E-01  8.50000000E-01  8.50000000E-01
  8.00000000E-01  8.50000000E-01  8.50000000E-01  8.50000000E-01  8.00000000E-01
  8.50000000E-01  8.50000000E-01  8.50000000E-01  8.00000000E-01  8.50000000E-01
  8.50000000E-01  8.50000000E-01  8.00000000E-01  8.50000000E-01  8.50000000E-01
  8.50000000E-01  8.00000000E-01  8.50000000E-01  8.50000000E-01  8.50000000E-01
  8.00000000E-01  8.50000000E-01  8.50000000E-01  8.50000000E-01  8.00000000E-01
  8.50000000E-01  8.50000000E-01  8.50000000E-01  8.00000000E-01  8.50000000E-01
  8.50000000E-01  8.50000000E-01  8.00000000E-01  8.50000000E-01  8.50000000E-01
  8.50000000E-01  8.00000000E-01  8.50000000E-01  8.50000000E-01  8.50000000E-01
  8.00000000E-01  8.50000000E-01  8.50000000E-01  8.50000000E-01  8.00000000E-01
  8.50000000E-01  8.50000000E-01  8.50000000E-01  8.00000000E-01  8.50000000E-01
  8.50000000E-01  8.50000000E-01  8.00000000E-01  8.50000000E-01  8.50000000E-01
  8.50000000E-01  8.00000000E-01  8.50000000E-01  8.50000000E-01  8.50000000E-01
  8.00000000E-01  8.50000000E-01  8.50000000E-01  8.50000000E-01  8.00000000E-01
  8.50000000E-01  8.50000000E-01  8.50000000E-01  8.00000000E-01  8.50000000E-01
  8.50000000E-01  8.50000000E-01  8.00000000E-01  8.50000000E-01  8.50000000E-01
  8.50000000E-01  8.00000000E-01  8.50000000E-01  8.50000000E-01  8.50000000E-01
  8.00000000E-01  8.50000000E-01  8.50000000E-01  8.50000000E-01  8.00000000E-01
  8.50000000E-01  8.50000000E-01  8.50000000E-01  8.00000000E-01  8.50000000E-01
  8.50000000E-01  8.50000000E-01  8.00000000E-01  8.50000000E-01  8.50000000E-01
  8.50000000E-01  8.00000000E-01  8.50000000E-01  8.50000000E-01  8.50000000E-01
  8.00000000E-01  8.50000000E-01  8.50000000E-01  8.50000000E-01  8.00000000E-01
  8.50000000E-01  8.50000000E-01  8.50000000E-01  8.00000000E-01  8.50000000E-01
  8.50000000E-01  8.50000000E-01  8.00000000E-01  8.50000000E-01  8.50000000E-01
  8.50000000E-01  8.00000000E-01  8.50000000E-01  8.50000000E-01  8.50000000E-01
  8.00000000E-01  8.50000000E-01  8.50000000E-01  8.50000000E-01  8.00000000E-01
  8.50000000E-01  8.50000000E-01  8.50000000E-01  8.00000000E-01  8.50000000E-01
  8.50000000E-01  8.50000000E-01  8.00000000E-01  8.50000000E-01  8.50000000E-01
  8.50000000E-01  8.00000000E-01  8.50000000E-01  8.50000000E-01  8.50000000E-01
  8.00000000E-01  8.50000000E-01  8.50000000E-01  8.50000000E-01  8.00000000E-01
  8.50000000E-01  8.50000000E-01  8.50000000E-01  8.00000000E-01  8.50000000E-01
  8.50000000E-01  8.50000000E-01  8.00000000E-01  8.50000000E-01  8.50000000E-01
  8.50000000E-01  8.00000000E-01  8.50000000E-01  8.50000000E-01  8.50000000E-01
  8.00000000E-01  8.50000000E-01  8.50000000E-01  8.50000000E-01  8.00000000E-01
  8.50000000E-01  8.50000000E-01  8.50000000E-01  8.00000000E-01  8.50000000E-01
  8.50000000E-01  8.50000000E-01  8.00000000E-01  8.50000000E-01  8.50000000E-01
  8.50000000E-01  8.00000000E-01  8.50000000E-01  8.50000000E-01  8.50000000E-01
  8.00000000E-01  8.50000000E-01  8.50000000E-01  8.50000000E-01  8.00000000E-01
  8.50000000E-01  8.50000000E-01  8.50000000E-01  8.00000000E-01  8.50000000E-01
  8.50000000E-01  8.50000000E-01  8.00000000E-01  8.50000000E-01  8.50000000E-01
  8.50000000E-01  8.00000000E-01  8.50000000E-01  8.50000000E-01  8.50000000E-01
  8.00000000E-01  8.50000000E-01  8.50000000E-01  8.50000000E-01  8.00000000E-01
  8.50000000E-01  8.50000000E-01  8.50000000E-01  8.00000000E-01  8.50000000E-01
  8.50000000E-01  8.50000000E-01  8.00000000E-01  8.50000000E-01  8.50000000E-01
  8.50000000E-01  8.00000000E-01  8.50000000E-01  8.50000000E-01  8.50000000E-01
  8.00000000E-01  8.50000000E-01  8.50000000E-01  8.50000000E-01  8.00000000E-01
  8.50000000E-01  8.50000000E-01  8.50000000E-01  8.00000000E-01  8.50000000E-01
  8.50000000E-01  8.50000000E-01  8.00000000E-01  8.50000000E-01  8.50000000E-01
  8.50000000E-01  8.00000000E-01  8.50000000E-01  8.50000000E-01  8.50000000E-01
  8.00000000E-01  8.50000000E-01  8.50000000E-01  8.50000000E-01  8.00000000E-01
  8.50000000E-01  8.50000000E-01  8.50000000E-01  8.00000000E-01  8.50000000E-01
  8.50000000E-01  8.50000000E-01  8.00000000E-01  8.50000000E-01  8.50000000E-01
  8.50000000E-01  8.00000000E-01  8.50000000E-01  8.50000000E-01  8.50000000E-01
  8.00000000E-01  8.50000000E-01  8.50000000E-01  8.50000000E-01  8.00000000E-01
  8.50000000E-01  8.50000000E-01  8.50000000E-01  8.00000000E-01  8.50000000E-01
  8.50000000E-01  8.50000000E-01  8.00000000E-01  8.50000000E-01  8.50000000E-01
  8.50000000E-01  8.00000000E-01  8.50000000E-01  8.50000000E-01  8.50000000E-01
  8.00000000E-01  8.50000000E-01  8.50000000E-01  8.50000000E-01  8.00000000E-01
  8.50000000E-01  8.50000000E-01  8.50000000E-01  8.00000000E-01  8.50000000E-01
  8.50000000E-01  8.50000000E-01  8.00000000E-01  8.50000000E-01  8.50000000E-01
  8.50000000E-01  8.00000000E-01  8.50000000E-01  8.50000000E-01  8.50000000E-01
  8.00000000E-01  8.50000000E-01  8.50000000E-01  8.50000000E-01  8.00000000E-01
  8.50000000E-01  8.50000000E-01  8.50000000E-01  8.00000000E-01  8.50000000E-01
  8.50000000E-01  8.50000000E-01  8.00000000E-01  8.50000000E-01  8.50000000E-01
  8.50000000E-01  8.00000000E-01  8.50000000E-01  8.50000000E-01  8.50000000E-01
  8.00000000E-01  8.50000000E-01  8.50000000E-01  8.50000000E-01  8.00000000E-01
  8.50000000E-01  8.50000000E-01  8.50000000E-01  8.00000000E-01  8.50000000E-01
  8.50000000E-01  8.50000000E-01  8.00000000E-01  8.50000000E-01  8.50000000E-01
  8.50000000E-01  8.00000000E-01  8.50000000E-01  8.50000000E-01  8.50000000E-01
  8.00000000E-01  8.50000000E-01  8.50000000E-01  8.50000000E-01  8.00000000E-01
  8.50000000E-01  8.50000000E-01  8.50000000E-01  8.00000000E-01  8.50000000E-01
  8.50000000E-01  8.50000000E-01  8.00000000E-01  8.50000000E-01  8.50000000E-01
  8.50000000E-01  8.00000000E-01  8.50000000E-01  8.50000000E-01  8.50000000E-01
  8.00000000E-01  8.50000000E-01  8.50000000E-01  8.50000000E-01  8.00000000E-01
  8.50000000E-01  8.50000000E-01  8.50000000E-01  8.00000000E-01  8.50000000E-01
  8.50000000E-01  8.50000000E-01  8.00000000E-01  8.50000000E-01  8.50000000E-01
  8.50000000E-01  8.00000000E-01  8.50000000E-01  8.50000000E-01  8.50000000E-01
  8.00000000E-01  8.50000000E-01  8.50000000E-01  8.50000000E-01  8.00000000E-01
  8.50000000E-01  8.50000000E-01  8.50000000E-01  8.00000000E-01  8.50000000E-01
  8.50000000E-01  8.50000000E-01  8.00000000E-01  8.50000000E-01  8.50000000E-01
  8.50000000E-01  8.00000000E-01  8.50000000E-01  8.50000000E-01  8.50000000E-01
  8.00000000E-01  8.50000000E-01  8.50000000E-01  8.50000000E-01  8.00000000E-01
  8.50000000E-01  8.50000000E-01  8.50000000E-01  8.00000000E-01  8.50000000E-01
  8.50000000E-01  8.50000000E-01  8.00000000E-01  8.50000000E-01  8.50000000E-01
  8.50000000E-01  8.00000000E-01  8.50000000E-01  8.50000000E-01  8.50000000E-01
  8.00000000E-01  8.50000000E-01  8.50000000E-01  8.50000000E-01  8.00000000E-01
  8.50000000E-01  8.50000000E-01  8.50000000E-01  8.00000000E-01  8.50000000E-01
  8.50000000E-01  8.50000000E-01  8.00000000E-01  8.50000000E-01  8.50000000E-01
  8.50000000E-01  8.00000000E-01  8.50000000E-01  8.50000000E-01  8.50000000E-01
  8.00000000E-01  8.50000000E-01  8.50000000E-01  8.50000000E-01  8.00000000E-01
  8.50000000E-01  8.50000000E-01  8.50000000E-01  8.00000000E-01  8.50000000E-01
  8.50000000E-01  8.50000000E-01  8.00000000E-01  8.50000000E-01  8.50000000E-01
  8.50000000E-01  8.00000000E-01  8.50000000E-01  8.50000000E-01  8.50000000E-01
  8.00000000E-01  8.50000000E-01  8.50000000E-01  8.50000000E-01  8.00000000E-01
  8.50000000E-01  8.50000000E-01  8.50000000E-01  8.00000000E-01  8.50000000E-01
  8.50000000E-01  8.50000000E-01  8.00000000E-01  8.50000000E-01  8.50000000E-01
  8.50000000E-01  8.00000000E-01  8.50000000E-01  8.50000000E-01  8.50000000E-01
  8.00000000E-01  8.50000000E-01  8.50000000E-01  8.50000000E-01  8.00000000E-01
  8.50000000E-01  8.50000000E-01  8.50000000E-01  8.00000000E-01  8.50000000E-01
  8.50000000E-01  8.50000000E-01  8.00000000E-01  8.50000000E-01  8.50000000E-01
  8.50000000E-01  8.00000000E-01  8.50000000E-01  8.50000000E-01  8.50000000E-01
  8.00000000E-01  8.50000000E-01  8.50000000E-01  8.50000000E-01  8.00000000E-01
  8.50000000E-01  8.50000000E-01  8.50000000E-01  8.00000000E-01  8.50000000E-01
  8.50000000E-01  8.50000000E-01  8.00000000E-01  8.50000000E-01  8.50000000E-01
  8.50000000E-01  8.00000000E-01  8.50000000E-01  8.50000000E-01  8.50000000E-01
  8.00000000E-01  8.50000000E-01  8.50000000E-01  8.50000000E-01  8.00000000E-01
  8.50000000E-01  8.50000000E-01  8.50000000E-01  8.00000000E-01  8.50000000E-01
  8.50000000E-01  8.50000000E-01  8.00000000E-01  8.50000000E-01  8.50000000E-01
  8.50000000E-01  8.00000000E-01  8.50000000E-01  8.50000000E-01  8.50000000E-01
  8.00000000E-01  8.50000000E-01  8.50000000E-01  8.50000000E-01  8.00000000E-01
  8.50000000E-01  8.50000000E-01  8.50000000E-01  8.00000000E-01  8.50000000E-01
  8.50000000E-01  8.50000000E-01  8.00000000E-01  8.50000000E-01  8.50000000E-01
  8.50000000E-01  8.00000000E-01  8.50000000E-01  8.50000000E-01  8.50000000E-01
  8.00000000E-01  8.50000000E-01  8.50000000E-01  8.50000000E-01  8.00000000E-01
  8.50000000E-01  8.50000000E-01  8.50000000E-01  8.00000000E-01  8.50000000E-01
  8.50000000E-01  8.50000000E-01  8.00000000E-01  8.50000000E-01  8.50000000E-01
  8.50000000E-01  8.00000000E-01  8.50000000E-01  8.50000000E-01  8.50000000E-01
  8.00000000E-01  8.50000000E-01  8.50000000E-01  8.50000000E-01  8.00000000E-01
  8.50000000E-01  8.50000000E-01  8.50000000E-01  8.00000000E-01  8.50000000E-01
  8.50000000E-01  8.50000000E-01  8.00000000E-01  8.50000000E-01  8.50000000E-01
  8.50000000E-01  8.00000000E-01  8.50000000E-01  8.50000000E-01  8.50000000E-01
  8.00000000E-01  8.50000000E-01  8.50000000E-01  8.50000000E-01  8.00000000E-01
  8.50000000E-01  8.50000000E-01  8.50000000E-01  8.00000000E-01  8.50000000E-01
  8.50000000E-01  8.50000000E-01  8.00000000E-01  8.50000000E-01  8.50000000E-01
  8.50000000E-01  8.00000000E-01  8.50000000E-01  8.50000000E-01  8.50000000E-01
  8.00000000E-01  8.50000000E-01  8.50000000E-01  8.50000000E-01  8.00000000E-01
  8.50000000E-01  8.50000000E-01  8.50000000E-01  8.00000000E-01  8.50000000E-01
  8.50000000E-01  8.50000000E-01  8.00000000E-01  8.50000000E-01  8.50000000E-01
  8.50000000E-01  8.00000000E-01  8.50000000E-01  8.50000000E-01  8.50000000E-01
  8.00000000E-01  8.50000000E-01  8.50000000E-01  8.50000000E-01  8.00000000E-01
  8.50000000E-01  8.50000000E-01  8.50000000E-01  8.00000000E-01  8.50000000E-01
  8.50000000E-01  8.50000000E-01  8.00000000E-01  8.50000000E-01  8.50000000E-01
  8.50000000E-01  8.00000000E-01  8.50000000E-01  8.50000000E-01  8.50000000E-01
  8.00000000E-01  8.50000000E-01  8.50000000E-01  8.50000000E-01  8.00000000E-01
  8.50000000E-01  8.50000000E-01  8.50000000E-01  8.00000000E-01  8.50000000E-01
  8.50000000E-01  8.50000000E-01  8.00000000E-01  8.50000000E-01  8.50000000E-01
  8.50000000E-01  8.00000000E-01  8.50000000E-01  8.50000000E-01  8.50000000E-01
  8.00000000E-01  8.50000000E-01  8.50000000E-01  8.50000000E-01  8.00000000E-01
  8.50000000E-01  8.50000000E-01  8.50000000E-01  8.00000000E-01  8.50000000E-01
  8.50000000E-01  8.50000000E-01  8.00000000E-01  8.50000000E-01  8.50000000E-01
  8.50000000E-01  8.00000000E-01  8.50000000E-01  8.50000000E-01  8.50000000E-01
  8.00000000E-01  8.50000000E-01  8.50000000E-01  8.50000000E-01  8.00000000E-01
  8.50000000E-01  8.50000000E-01  8.50000000E-01  8.00000000E-01  8.50000000E-01
  8.50000000E-01  8.50000000E-01  8.00000000E-01  8.50000000E-01  8.50000000E-01
  8.50000000E-01  8.00000000E-01  8.50000000E-01  8.50000000E-01  8.50000000E-01
  8.00000000E-01  8.50000000E-01  8.50000000E-01  8.50000000E-01  8.00000000E-01
  8.50000000E-01  8.50000000E-01  8.50000000E-01  8.00000000E-01  8.50000000E-01
  8.50000000E-01  8.50000000E-01  8.00000000E-01  8.50000000E-01  8.50000000E-01
  8.50000000E-01  8.00000000E-01  8.50000000E-01  8.50000000E-01  8.50000000E-01
  8.00000000E-01  8.50000000E-01  8.50000000E-01  8.50000000E-01  8.00000000E-01
  8.50000000E-01  8.50000000E-01  8.50000000E-01  8.00000000E-01  8.50000000E-01
  8.50000000E-01  8.50000000E-01  8.00000000E-01  8.50000000E-01  8.50000000E-01
  8.50000000E-01  8.00000000E-01  8.50000000E-01  8.50000000E-01  8.50000000E-01
  8.00000000E-01  8.50000000E-01  8.50000000E-01  8.50000000E-01  8.00000000E-01
  8.50000000E-01  8.50000000E-01  8.50000000E-01  8.00000000E-01  8.50000000E-01
  8.50000000E-01  8.50000000E-01  8.00000000E-01  8.50000000E-01  8.50000000E-01
  8.50000000E-01  8.00000000E-01  8.50000000E-01  8.50000000E-01  8.50000000E-01
  8.00000000E-01  8.50000000E-01  8.50000000E-01  8.50000000E-01  8.00000000E-01
  8.50000000E-01  8.50000000E-01  8.50000000E-01  8.00000000E-01  8.50000000E-01
  8.50000000E-01  8.50000000E-01  8.00000000E-01  8.50000000E-01  8.50000000E-01
  8.50000000E-01  8.00000000E-01  8.50000000E-01  8.50000000E-01  8.50000000E-01
  8.00000000E-01  8.50000000E-01  8.50000000E-01  8.50000000E-01  8.00000000E-01
  8.50000000E-01  8.50000000E-01  8.50000000E-01  8.00000000E-01  8.50000000E-01
  8.50000000E-01  8.50000000E-01  8.00000000E-01  8.50000000E-01  8.50000000E-01
  8.50000000E-01  8.00000000E-01  8.50000000E-01  8.50000000E-01  8.50000000E-01
  8.00000000E-01  8.50000000E-01  8.50000000E-01  8.50000000E-01  8.00000000E-01
  8.50000000E-01  8.50000000E-01  8.50000000E-01  8.00000000E-01  8.50000000E-01
  8.50000000E-01  8.50000000E-01  8.00000000E-01  8.50000000E-01  8.50000000E-01
  8.50000000E-01  8.00000000E-01  8.50000000E-01  8.50000000E-01  8.50000000E-01
  8.00000000E-01  8.50000000E-01  8.50000000E-01  8.50000000E-01  8.00000000E-01
  8.50000000E-01  8.50000000E-01  8.50000000E-01  8.00000000E-01  8.50000000E-01
  8.50000000E-01  8.50000000E-01  8.00000000E-01  8.50000000E-01  8.50000000E-01
  8.50000000E-01  8.00000000E-01  8.50000000E-01  8.50000000E-01  8.50000000E-01
  8.00000000E-01  8.50000000E-01  8.50000000E-01  8.50000000E-01  8.00000000E-01
  8.50000000E-01  8.50000000E-01  8.50000000E-01  8.00000000E-01  8.50000000E-01
  8.50000000E-01  8.50000000E-01  8.00000000E-01  8.50000000E-01  8.50000000E-01
  8.50000000E-01  8.00000000E-01  8.50000000E-01  8.50000000E-01  8.50000000E-01
  8.00000000E-01  8.50000000E-01  8.50000000E-01  8.50000000E-01  8.00000000E-01
  8.50000000E-01  8.50000000E-01  8.50000000E-01  8.00000000E-01  8.50000000E-01
  8.50000000E-01  8.50000000E-01  8.00000000E-01  8.50000000E-01  8.50000000E-01
  8.50000000E-01  8.00000000E-01  8.50000000E-01  8.50000000E-01  8.50000000E-01
  8.00000000E-01  8.50000000E-01  8.50000000E-01  8.50000000E-01  8.00000000E-01
  8.50000000E-01  8.50000000E-01  8.50000000E-01  8.00000000E-01  8.50000000E-01
  8.50000000E-01  8.50000000E-01  8.00000000E-01  8.50000000E-01  8.50000000E-01
  8.50000000E-01  8.00000000E-01  8.50000000E-01  8.50000000E-01  8.50000000E-01
  8.00000000E-01  8.50000000E-01  8.50000000E-01  8.50000000E-01  8.00000000E-01
  8.50000000E-01  8.50000000E-01  8.50000000E-01  8.00000000E-01  8.50000000E-01
  8.50000000E-01  8.50000000E-01  8.00000000E-01  8.50000000E-01  8.50000000E-01
  8.50000000E-01  8.00000000E-01  8.50000000E-01  8.50000000E-01  8.50000000E-01
  8.00000000E-01  8.50000000E-01  8.50000000E-01  8.50000000E-01  8.00000000E-01
  8.50000000E-01  8.50000000E-01  8.50000000E-01  8.00000000E-01  8.50000000E-01
  8.50000000E-01  8.50000000E-01  8.00000000E-01  8.50000000E-01  8.50000000E-01
  8.50000000E-01  8.00000000E-01  8.50000000E-01  8.50000000E-01  8.50000000E-01
  8.00000000E-01  8.50000000E-01  8.50000000E-01  8.50000000E-01  8.00000000E-01
  8.50000000E-01  8.50000000E-01  8.50000000E-01  8.00000000E-01  8.50000000E-01
  8.50000000E-01  8.50000000E-01  8.00000000E-01  8.50000000E-01  8.50000000E-01
  8.50000000E-01  8.00000000E-01  8.50000000E-01  8.50000000E-01  8.50000000E-01
  8.00000000E-01  8.50000000E-01  8.50000000E-01  8.50000000E-01  8.00000000E-01
  8.50000000E-01  8.50000000E-01  8.50000000E-01  8.00000000E-01  8.50000000E-01
  8.50000000E-01  8.50000000E-01  8.00000000E-01  8.50000000E-01  8.50000000E-01
  8.50000000E-01  8.00000000E-01  8.50000000E-01  8.50000000E-01  8.50000000E-01
  8.00000000E-01  8.50000000E-01  8.50000000E-01  8.50000000E-01  8.00000000E-01
  8.50000000E-01  8.50000000E-01  8.50000000E-01  8.00000000E-01  8.50000000E-01
  8.50000000E-01  8.50000000E-01  8.00000000E-01  8.50000000E-01  8.50000000E-01
  8.50000000E-01  8.00000000E-01  8.50000000E-01  8.50000000E-01  8.50000000E-01
  8.00000000E-01  8.50000000E-01  8.50000000E-01  8.50000000E-01  8.00000000E-01
  8.50000000E-01  8.50000000E-01  8.50000000E-01  8.00000000E-01  8.50000000E-01
  8.50000000E-01  8.50000000E-01  8.00000000E-01  8.50000000E-01  8.50000000E-01
  8.50000000E-01  8.00000000E-01  8.50000000E-01  8.50000000E-01  8.50000000E-01
  8.00000000E-01  8.50000000E-01  8.50000000E-01  8.50000000E-01  8.00000000E-01
  8.50000000E-01  8.50000000E-01  8.50000000E-01  8.00000000E-01  8.50000000E-01
  8.50000000E-01  8.50000000E-01  8.00000000E-01  8.50000000E-01  8.50000000E-01
  8.50000000E-01  8.00000000E-01  8.50000000E-01  8.50000000E-01  8.50000000E-01
  8.00000000E-01  8.50000000E-01  8.50000000E-01  8.50000000E-01  8.00000000E-01
  8.50000000E-01  8.50000000E-01  8.50000000E-01  8.00000000E-01  8.50000000E-01
  8.50000000E-01  8.50000000E-01  8.00000000E-01  8.50000000E-01  8.50000000E-01
  8.50000000E-01  8.00000000E-01  8.50000000E-01  8.50000000E-01  8.50000000E-01
  8.00000000E-01  8.50000000E-01  8.50000000E-01  8.50000000E-01  8.00000000E-01
  8.50000000E-01  8.50000000E-01  8.50000000E-01  8.00000000E-01  8.50000000E-01
  8.50000000E-01  8.50000000E-01  8.00000000E-01  8.50000000E-01  8.50000000E-01
  8.50000000E-01  8.00000000E-01  8.50000000E-01  8.50000000E-01  8.50000000E-01
  8.00000000E-01  8.50000000E-01  8.50000000E-01  8.50000000E-01  8.00000000E-01
  8.50000000E-01  8.50000000E-01  8.50000000E-01  8.00000000E-01  8.50000000E-01
  8.50000000E-01  8.50000000E-01  8.00000000E-01  8.50000000E-01  8.50000000E-01
  8.50000000E-01  8.00000000E-01  8.50000000E-01  8.50000000E-01  8.50000000E-01
  8.00000000E-01  8.50000000E-01  8.50000000E-01  8.50000000E-01  8.00000000E-01
  8.50000000E-01  8.50000000E-01  8.50000000E-01  8.00000000E-01  8.50000000E-01
  8.50000000E-01  8.50000000E-01  8.00000000E-01  8.50000000E-01  8.50000000E-01
  8.50000000E-01  8.00000000E-01  8.50000000E-01  8.50000000E-01  8.50000000E-01
  8.00000000E-01  8.50000000E-01  8.50000000E-01  8.50000000E-01  8.00000000E-01
  8.50000000E-01  8.50000000E-01  8.50000000E-01  8.00000000E-01  8.50000000E-01
  8.50000000E-01  8.50000000E-01  8.00000000E-01  8.50000000E-01  8.50000000E-01
  8.50000000E-01  8.00000000E-01  8.50000000E-01  8.50000000E-01  8.50000000E-01
  8.00000000E-01  8.50000000E-01  8.50000000E-01  8.50000000E-01  8.00000000E-01
  8.50000000E-01  8.50000000E-01  8.50000000E-01  8.00000000E-01  8.50000000E-01
  8.50000000E-01  8.50000000E-01  8.00000000E-01  8.50000000E-01  8.50000000E-01
  8.50000000E-01  8.00000000E-01  8.50000000E-01  8.50000000E-01  8.50000000E-01
  8.00000000E-01  8.50000000E-01  8.50000000E-01  8.50000000E-01  8.00000000E-01
  8.50000000E-01  8.50000000E-01  8.50000000E-01  8.00000000E-01  8.50000000E-01
  8.50000000E-01  8.50000000E-01  8.00000000E-01  8.50000000E-01  8.50000000E-01
  8.50000000E-01  8.00000000E-01  8.50000000E-01  8.50000000E-01  8.50000000E-01
  8.00000000E-01  8.50000000E-01  8.50000000E-01  8.50000000E-01  8.00000000E-01
  8.50000000E-01  8.50000000E-01  8.50000000E-01  8.00000000E-01  8.50000000E-01
  8.50000000E-01  8.50000000E-01  8.00000000E-01  8.50000000E-01  8.50000000E-01
  8.50000000E-01  8.00000000E-01  8.50000000E-01  8.50000000E-01  8.50000000E-01
  8.00000000E-01  8.50000000E-01  8.50000000E-01  8.50000000E-01  8.00000000E-01
  8.50000000E-01  8.50000000E-01  8.50000000E-01  8.00000000E-01  8.50000000E-01
  8.50000000E-01  8.50000000E-01  8.00000000E-01  8.50000000E-01  8.50000000E-01
  8.50000000E-01  8.00000000E-01  8.50000000E-01  8.50000000E-01  8.50000000E-01
  8.00000000E-01  8.50000000E-01  8.50000000E-01  8.50000000E-01  8.00000000E-01
  8.50000000E-01  8.50000000E-01  8.50000000E-01  8.00000000E-01  8.50000000E-01
  8.50000000E-01  8.50000000E-01  8.00000000E-01  8.50000000E-01  8.50000000E-01
  8.50000000E-01  8.00000000E-01  8.50000000E-01  8.50000000E-01  8.50000000E-01
  8.00000000E-01  8.50000000E-01  8.50000000E-01  8.50000000E-01  8.00000000E-01
  8.50000000E-01  8.50000000E-01  8.50000000E-01  8.00000000E-01  8.50000000E-01
  8.50000000E-01  8.50000000E-01  8.00000000E-01  8.50000000E-01  8.50000000E-01
  8.50000000E-01  8.00000000E-01  8.50000000E-01  8.50000000E-01  8.50000000E-01
  8.00000000E-01  8.50000000E-01  8.50000000E-01  8.50000000E-01  8.00000000E-01
  8.50000000E-01  8.50000000E-01  8.50000000E-01  8.00000000E-01  8.50000000E-01
  8.50000000E-01  8.50000000E-01  8.00000000E-01  8.50000000E-01  8.50000000E-01
  8.50000000E-01  8.00000000E-01  8.50000000E-01  8.50000000E-01  8.50000000E-01
  8.00000000E-01  8.50000000E-01  8.50000000E-01  8.50000000E-01  8.00000000E-01
  8.50000000E-01  8.50000000E-01  8.50000000E-01  8.00000000E-01  8.50000000E-01
  8.50000000E-01  8.50000000E-01  8.00000000E-01  8.50000000E-01  8.50000000E-01
  8.50000000E-01  8.00000000E-01  8.50000000E-01  8.50000000E-01  8.50000000E-01
  8.00000000E-01  8.50000000E-01  8.50000000E-01  8.50000000E-01  8.00000000E-01
  8.50000000E-01  8.50000000E-01  8.50000000E-01  8.00000000E-01  8.50000000E-01
  8.50000000E-01  8.50000000E-01  8.00000000E-01  8.50000000E-01  8.50000000E-01
  8.50000000E-01  8.00000000E-01  8.50000000E-01  8.50000000E-01  8.50000000E-01
  8.00000000E-01  8.50000000E-01  8.50000000E-01  8.50000000E-01  8.00000000E-01
  8.50000000E-01  8.50000000E-01  8.50000000E-01  8.00000000E-01  8.50000000E-01
  8.50000000E-01  8.50000000E-01  8.00000000E-01  8.50000000E-01  8.50000000E-01
  8.50000000E-01  8.00000000E-01  8.50000000E-01  8.50000000E-01  8.50000000E-01
  8.00000000E-01  8.50000000E-01  8.50000000E-01  8.50000000E-01  8.00000000E-01
  8.50000000E-01  8.50000000E-01  8.50000000E-01  8.00000000E-01  8.50000000E-01
  8.50000000E-01  8.50000000E-01  8.00000000E-01  8.50000000E-01  8.50000000E-01
  8.50000000E-01  8.00000000E-01  8.50000000E-01  8.50000000E-01  8.50000000E-01
  8.00000000E-01  8.50000000E-01  8.50000000E-01  8.50000000E-01  8.00000000E-01
  8.50000000E-01  8.50000000E-01  8.50000000E-01  8.00000000E-01  8.50000000E-01
  8.50000000E-01  8.50000000E-01  8.00000000E-01  8.50000000E-01  8.50000000E-01
  8.50000000E-01  8.00000000E-01  8.50000000E-01  8.50000000E-01  8.50000000E-01
  8.00000000E-01  8.50000000E-01  8.50000000E-01  8.50000000E-01  8.00000000E-01
  8.50000000E-01  8.50000000E-01  8.50000000E-01  8.00000000E-01  8.50000000E-01
  8.50000000E-01  8.50000000E-01  8.00000000E-01  8.50000000E-01  8.50000000E-01
  8.50000000E-01  8.00000000E-01  8.50000000E-01  8.50000000E-01  8.50000000E-01
  8.00000000E-01  8.50000000E-01  8.50000000E-01  8.50000000E-01  8.00000000E-01
  8.50000000E-01  8.50000000E-01  8.50000000E-01  8.00000000E-01  8.50000000E-01
  8.50000000E-01  8.50000000E-01  8.00000000E-01  8.50000000E-01  8.50000000E-01
  8.50000000E-01  8.00000000E-01  8.50000000E-01  8.50000000E-01  8.50000000E-01
  8.00000000E-01  8.50000000E-01  8.50000000E-01  8.50000000E-01  8.00000000E-01
  8.50000000E-01  8.50000000E-01  8.50000000E-01  8.00000000E-01  8.50000000E-01
  8.50000000E-01  8.50000000E-01  8.00000000E-01  8.50000000E-01  8.50000000E-01
  8.50000000E-01  8.00000000E-01  8.50000000E-01  8.50000000E-01  8.50000000E-01
  8.00000000E-01  8.50000000E-01  8.50000000E-01  8.50000000E-01  8.00000000E-01
  8.50000000E-01  8.50000000E-01  8.50000000E-01  8.00000000E-01  8.50000000E-01
  8.50000000E-01  8.50000000E-01  8.00000000E-01  8.50000000E-01  8.50000000E-01
  8.50000000E-01  8.00000000E-01  8.50000000E-01  8.50000000E-01  8.50000000E-01
  8.00000000E-01  8.50000000E-01  8.50000000E-01  8.50000000E-01  8.00000000E-01
  8.50000000E-01  8.50000000E-01  8.50000000E-01  8.00000000E-01  8.50000000E-01
  8.50000000E-01  8.50000000E-01  8.00000000E-01  8.50000000E-01  8.50000000E-01
  8.50000000E-01  8.00000000E-01  8.50000000E-01  8.50000000E-01  8.50000000E-01
  8.00000000E-01  8.50000000E-01  8.50000000E-01  8.50000000E-01  8.00000000E-01
  8.50000000E-01  8.50000000E-01  8.50000000E-01  8.00000000E-01  8.50000000E-01
  8.50000000E-01  8.50000000E-01  8.00000000E-01  8.50000000E-01  8.50000000E-01
  8.50000000E-01  8.00000000E-01  8.50000000E-01  8.50000000E-01  8.50000000E-01
  8.00000000E-01  8.50000000E-01  8.50000000E-01  8.50000000E-01  8.00000000E-01
  8.50000000E-01  8.50000000E-01  8.50000000E-01  8.00000000E-01  8.50000000E-01
  8.50000000E-01  8.50000000E-01  8.00000000E-01  8.50000000E-01  8.50000000E-01
  8.50000000E-01  8.00000000E-01  8.50000000E-01  8.50000000E-01  8.50000000E-01
  8.00000000E-01  8.50000000E-01  8.50000000E-01  8.50000000E-01  8.00000000E-01
  8.50000000E-01  8.50000000E-01  8.50000000E-01  8.00000000E-01  8.50000000E-01
  8.50000000E-01  8.50000000E-01  8.00000000E-01  8.50000000E-01  8.50000000E-01
  8.50000000E-01  8.00000000E-01  8.50000000E-01  8.50000000E-01  8.50000000E-01
  8.00000000E-01  8.50000000E-01  8.50000000E-01  8.50000000E-01  8.00000000E-01
  8.50000000E-01  8.50000000E-01  8.50000000E-01  8.00000000E-01  8.50000000E-01
  8.50000000E-01  8.50000000E-01  8.00000000E-01  8.50000000E-01  8.50000000E-01
  8.50000000E-01  8.00000000E-01  8.50000000E-01  8.50000000E-01  8.50000000E-01
  8.00000000E-01  8.50000000E-01  8.50000000E-01  8.50000000E-01  8.00000000E-01
  8.50000000E-01  8.50000000E-01  8.50000000E-01  8.00000000E-01  8.50000000E-01
  8.50000000E-01  8.50000000E-01  8.00000000E-01  8.50000000E-01  8.50000000E-01
  8.50000000E-01  8.00000000E-01  8.50000000E-01  8.50000000E-01  8.50000000E-01
  8.00000000E-01  8.50000000E-01  8.50000000E-01  8.50000000E-01  8.00000000E-01
  8.50000000E-01  8.50000000E-01  8.50000000E-01  8.00000000E-01  8.50000000E-01
  8.50000000E-01  8.50000000E-01  8.00000000E-01  8.50000000E-01  8.50000000E-01
  8.50000000E-01  8.00000000E-01  8.50000000E-01  8.50000000E-01  8.50000000E-01
  8.00000000E-01  8.50000000E-01  8.50000000E-01  8.50000000E-01  8.00000000E-01
  8.50000000E-01  8.50000000E-01  8.50000000E-01  8.00000000E-01  8.50000000E-01
  8.50000000E-01  8.50000000E-01  8.00000000E-01  8.50000000E-01  8.50000000E-01
  8.50000000E-01  8.00000000E-01  8.50000000E-01  8.50000000E-01  8.50000000E-01
  8.00000000E-01  8.50000000E-01  8.50000000E-01  8.50000000E-01  8.00000000E-01
  8.50000000E-01  8.50000000E-01  8.50000000E-01  8.00000000E-01  8.50000000E-01
  8.50000000E-01  8.50000000E-01  8.00000000E-01  8.50000000E-01  8.50000000E-01
  8.50000000E-01  8.00000000E-01  8.50000000E-01  8.50000000E-01  8.50000000E-01
  8.00000000E-01  8.50000000E-01  8.50000000E-01  8.50000000E-01  8.00000000E-01
  8.50000000E-01  8.50000000E-01  8.50000000E-01  8.00000000E-01  8.50000000E-01
  8.50000000E-01  8.50000000E-01  8.00000000E-01  8.50000000E-01  8.50000000E-01
  8.50000000E-01  8.00000000E-01  8.50000000E-01  8.50000000E-01  8.50000000E-01
  8.00000000E-01  8.50000000E-01  8.50000000E-01  8.50000000E-01  8.00000000E-01
  8.50000000E-01  8.50000000E-01  8.50000000E-01  8.00000000E-01  8.50000000E-01
  8.50000000E-01  8.50000000E-01  8.00000000E-01  8.50000000E-01  8.50000000E-01
  8.50000000E-01  8.00000000E-01  8.50000000E-01  8.50000000E-01  8.50000000E-01
  8.00000000E-01  8.50000000E-01  8.50000000E-01  8.50000000E-01  8.00000000E-01
  8.50000000E-01  8.50000000E-01  8.50000000E-01  8.00000000E-01  8.50000000E-01
  8.50000000E-01  8.50000000E-01  8.00000000E-01  8.50000000E-01  8.50000000E-01
  8.50000000E-01  8.00000000E-01  8.50000000E-01  8.50000000E-01  8.50000000E-01
  8.00000000E-01  8.50000000E-01  8.50000000E-01  8.50000000E-01  8.00000000E-01
  8.50000000E-01  8.50000000E-01  8.50000000E-01  8.00000000E-01  8.50000000E-01
  8.50000000E-01  8.50000000E-01  8.00000000E-01  8.50000000E-01  8.50000000E-01
  8.50000000E-01  8.00000000E-01  8.50000000E-01  8.50000000E-01  8.50000000E-01
  8.00000000E-01  8.50000000E-01  8.50000000E-01  8.50000000E-01  8.00000000E-01
  8.50000000E-01  8.50000000E-01  8.50000000E-01  8.00000000E-01  8.50000000E-01
  8.50000000E-01  8.50000000E-01  8.00000000E-01  8.50000000E-01  8.50000000E-01
  8.50000000E-01  8.00000000E-01  8.50000000E-01  8.50000000E-01  8.50000000E-01
  8.00000000E-01  8.50000000E-01  8.50000000E-01  8.50000000E-01  8.00000000E-01
  8.50000000E-01  8.50000000E-01  8.50000000E-01  8.00000000E-01  8.50000000E-01
  8.50000000E-01  8.50000000E-01  8.00000000E-01  8.50000000E-01  8.50000000E-01
  8.50000000E-01  8.00000000E-01  8.50000000E-01  8.50000000E-01  8.50000000E-01
  8.00000000E-01  8.50000000E-01  8.50000000E-01  8.50000000E-01  8.00000000E-01
  8.50000000E-01  8.50000000E-01  8.50000000E-01  8.00000000E-01  8.50000000E-01
  8.50000000E-01  8.50000000E-01  8.00000000E-01  8.50000000E-01  8.50000000E-01
  8.50000000E-01  8.00000000E-01  8.50000000E-01  8.50000000E-01  8.50000000E-01
  8.00000000E-01  8.50000000E-01  8.50000000E-01  8.50000000E-01  8.00000000E-01
  8.50000000E-01  8.50000000E-01  8.50000000E-01  8.00000000E-01  8.50000000E-01
  8.50000000E-01  8.50000000E-01  8.00000000E-01  8.50000000E-01  8.50000000E-01
  8.50000000E-01  8.00000000E-01  8.50000000E-01  8.50000000E-01  8.50000000E-01
  8.00000000E-01  8.50000000E-01  8.50000000E-01  8.50000000E-01  8.00000000E-01
  8.50000000E-01  8.50000000E-01  8.50000000E-01  8.00000000E-01  8.50000000E-01
  8.50000000E-01  8.50000000E-01  8.00000000E-01  8.50000000E-01  8.50000000E-01
  8.50000000E-01  8.00000000E-01  8.50000000E-01  8.50000000E-01  8.50000000E-01
  8.00000000E-01  8.50000000E-01  8.50000000E-01  8.50000000E-01  8.00000000E-01
  8.50000000E-01  8.50000000E-01  8.50000000E-01  8.00000000E-01  8.50000000E-01
  8.50000000E-01  8.50000000E-01  8.00000000E-01  8.50000000E-01  8.50000000E-01
  8.50000000E-01  8.00000000E-01  8.50000000E-01  8.50000000E-01  8.50000000E-01
  8.00000000E-01  8.50000000E-01  8.50000000E-01  8.50000000E-01  8.00000000E-01
  8.50000000E-01  8.50000000E-01  8.50000000E-01  8.00000000E-01  8.50000000E-01
  8.50000000E-01  8.50000000E-01  8.00000000E-01  8.50000000E-01  8.50000000E-01
  8.50000000E-01  8.00000000E-01  8.50000000E-01  8.50000000E-01  8.50000000E-01
  8.00000000E-01  8.50000000E-01  8.50000000E-01  8.50000000E-01  8.00000000E-01
  8.50000000E-01  8.50000000E-01  8.50000000E-01  8.00000000E-01  8.50000000E-01
  8.50000000E-01  8.50000000E-01  8.00000000E-01  8.50000000E-01  8.50000000E-01
  8.50000000E-01  8.00000000E-01  8.50000000E-01  8.50000000E-01  8.50000000E-01
  8.00000000E-01  8.50000000E-01  8.50000000E-01  8.50000000E-01  8.00000000E-01
  8.50000000E-01  8.50000000E-01  8.50000000E-01  8.00000000E-01  8.50000000E-01
  8.50000000E-01  8.50000000E-01  8.00000000E-01  8.50000000E-01  8.50000000E-01
  8.50000000E-01  8.00000000E-01  8.50000000E-01  8.50000000E-01  8.50000000E-01
  8.00000000E-01  8.50000000E-01  8.50000000E-01  8.50000000E-01  8.00000000E-01
  8.50000000E-01  8.50000000E-01  8.50000000E-01  8.00000000E-01  8.50000000E-01
  8.50000000E-01  8.50000000E-01  8.00000000E-01  8.50000000E-01  8.50000000E-01
  8.50000000E-01  8.00000000E-01  8.50000000E-01  8.50000000E-01  8.50000000E-01
  8.00000000E-01  8.50000000E-01  8.50000000E-01  8.50000000E-01  8.00000000E-01
  8.50000000E-01  8.50000000E-01  8.50000000E-01  8.00000000E-01  8.50000000E-01
  8.50000000E-01  8.50000000E-01  8.00000000E-01  8.50000000E-01  8.50000000E-01
  8.50000000E-01  8.00000000E-01  8.50000000E-01  8.50000000E-01  8.50000000E-01
  8.00000000E-01  8.50000000E-01  8.50000000E-01  8.50000000E-01  8.00000000E-01
  8.50000000E-01  8.50000000E-01  8.50000000E-01  8.00000000E-01  8.50000000E-01
  8.50000000E-01  8.50000000E-01  8.00000000E-01  8.50000000E-01  8.50000000E-01
  8.50000000E-01  8.00000000E-01  8.50000000E-01  8.50000000E-01  8.50000000E-01
  8.00000000E-01  8.50000000E-01  8.50000000E-01  8.50000000E-01  8.00000000E-01
  8.50000000E-01  8.50000000E-01  8.50000000E-01  8.00000000E-01  8.50000000E-01
  8.50000000E-01  8.50000000E-01  8.00000000E-01  8.50000000E-01  8.50000000E-01
  8.50000000E-01  8.00000000E-01  8.50000000E-01  8.50000000E-01  8.50000000E-01
  8.00000000E-01  8.50000000E-01  8.50000000E-01  8.50000000E-01  8.00000000E-01
  8.50000000E-01  8.50000000E-01  8.50000000E-01  8.00000000E-01  8.50000000E-01
  8.50000000E-01  8.50000000E-01  8.00000000E-01  8.50000000E-01  8.50000000E-01
  8.50000000E-01  8.00000000E-01  8.50000000E-01  8.50000000E-01  8.50000000E-01
  8.00000000E-01  8.50000000E-01  8.50000000E-01  8.50000000E-01  8.00000000E-01
  8.50000000E-01  8.50000000E-01  8.50000000E-01  8.00000000E-01  8.50000000E-01
  8.50000000E-01  8.50000000E-01  8.00000000E-01  8.50000000E-01  8.50000000E-01
  8.50000000E-01  8.00000000E-01  8.50000000E-01  8.50000000E-01  8.50000000E-01
  8.00000000E-01  8.50000000E-01  8.50000000E-01  8.50000000E-01  8.00000000E-01
  8.50000000E-01  8.50000000E-01  8.50000000E-01  8.00000000E-01  8.50000000E-01
  8.50000000E-01  8.50000000E-01  8.00000000E-01  8.50000000E-01  8.50000000E-01
  8.50000000E-01  8.00000000E-01  8.50000000E-01  8.50000000E-01  8.50000000E-01
  8.00000000E-01  8.50000000E-01  8.50000000E-01  8.50000000E-01  8.00000000E-01
  8.50000000E-01  8.50000000E-01  8.50000000E-01  8.00000000E-01  8.50000000E-01
  8.50000000E-01  8.50000000E-01  8.00000000E-01  8.50000000E-01  8.50000000E-01
  8.50000000E-01  8.00000000E-01  8.50000000E-01  8.50000000E-01  8.50000000E-01
  8.00000000E-01  8.50000000E-01  8.50000000E-01  8.50000000E-01  8.00000000E-01
  8.50000000E-01  8.50000000E-01  8.50000000E-01  8.00000000E-01  8.50000000E-01
  8.50000000E-01  8.50000000E-01  8.00000000E-01  8.50000000E-01  8.50000000E-01
  8.50000000E-01  8.00000000E-01  8.50000000E-01  8.50000000E-01  8.50000000E-01
  8.00000000E-01  8.50000000E-01  8.50000000E-01  8.50000000E-01  8.00000000E-01
  8.50000000E-01  8.50000000E-01  8.50000000E-01  8.00000000E-01  8.50000000E-01
  8.50000000E-01  8.50000000E-01  8.00000000E-01  8.50000000E-01  8.50000000E-01
  8.50000000E-01  8.00000000E-01  8.50000000E-01  8.50000000E-01  8.50000000E-01
  8.00000000E-01  8.50000000E-01  8.50000000E-01  8.50000000E-01  8.00000000E-01
  8.50000000E-01  8.50000000E-01  8.50000000E-01  8.00000000E-01  8.50000000E-01
  8.50000000E-01  8.50000000E-01  8.00000000E-01  8.50000000E-01  8.50000000E-01
  8.50000000E-01  8.00000000E-01  8.50000000E-01  8.50000000E-01  8.50000000E-01
  8.00000000E-01  8.50000000E-01  8.50000000E-01  8.50000000E-01  8.00000000E-01
  8.50000000E-01  8.50000000E-01  8.50000000E-01  8.00000000E-01  8.50000000E-01
  8.50000000E-01  8.50000000E-01  8.00000000E-01  8.50000000E-01  8.50000000E-01
  8.50000000E-01  8.00000000E-01  8.50000000E-01  8.50000000E-01  8.50000000E-01
  8.00000000E-01  8.50000000E-01  8.50000000E-01  8.50000000E-01  8.00000000E-01
  8.50000000E-01  8.50000000E-01  8.50000000E-01  8.00000000E-01  8.50000000E-01
  8.50000000E-01  8.50000000E-01  8.00000000E-01  8.50000000E-01  8.50000000E-01
  8.50000000E-01  8.00000000E-01  8.50000000E-01  8.50000000E-01  8.50000000E-01
  8.00000000E-01  8.50000000E-01  8.50000000E-01  8.50000000E-01  8.00000000E-01
  8.50000000E-01  8.50000000E-01  8.50000000E-01  8.00000000E-01  8.50000000E-01
  8.50000000E-01  8.50000000E-01  8.00000000E-01  8.50000000E-01  8.50000000E-01
  8.50000000E-01  8.00000000E-01  8.50000000E-01  8.50000000E-01  8.50000000E-01
  8.00000000E-01  8.50000000E-01  8.50000000E-01  8.50000000E-01  8.00000000E-01
  8.50000000E-01  8.50000000E-01  8.50000000E-01  8.00000000E-01  8.50000000E-01
  8.50000000E-01  8.50000000E-01  8.00000000E-01  8.50000000E-01  8.50000000E-01
  8.50000000E-01  8.00000000E-01  8.50000000E-01  8.50000000E-01  8.50000000E-01
  8.00000000E-01  8.50000000E-01  8.50000000E-01  8.50000000E-01  8.00000000E-01
  8.50000000E-01  8.50000000E-01  8.50000000E-01  8.00000000E-01  8.50000000E-01
  8.50000000E-01  8.50000000E-01  8.00000000E-01  8.50000000E-01  8.50000000E-01
  8.50000000E-01  8.00000000E-01  8.50000000E-01  8.50000000E-01  8.50000000E-01
  8.00000000E-01  8.50000000E-01  8.50000000E-01  8.50000000E-01  8.00000000E-01
  8.50000000E-01  8.50000000E-01  8.50000000E-01  8.00000000E-01  8.50000000E-01
  8.50000000E-01  8.50000000E-01  8.00000000E-01  8.50000000E-01  8.50000000E-01
  8.50000000E-01  8.00000000E-01  8.50000000E-01  8.50000000E-01  8.50000000E-01
  8.00000000E-01  8.50000000E-01  8.50000000E-01  8.50000000E-01  8.00000000E-01
  8.50000000E-01  8.50000000E-01  8.50000000E-01  8.00000000E-01  8.50000000E-01
  8.50000000E-01  8.50000000E-01  8.00000000E-01  8.50000000E-01  8.50000000E-01
  8.50000000E-01  8.00000000E-01  8.50000000E-01  8.50000000E-01  8.50000000E-01
  8.00000000E-01  8.50000000E-01  8.50000000E-01  8.50000000E-01  8.00000000E-01
  8.50000000E-01  8.50000000E-01  8.50000000E-01  8.00000000E-01  8.50000000E-01
  8.50000000E-01  8.50000000E-01  8.00000000E-01  8.50000000E-01  8.50000000E-01
  8.50000000E-01  8.00000000E-01  8.50000000E-01  8.50000000E-01  8.50000000E-01
  8.00000000E-01  8.50000000E-01  8.50000000E-01  8.50000000E-01  8.00000000E-01
  8.50000000E-01  8.50000000E-01  8.50000000E-01  8.00000000E-01  8.50000000E-01
  8.50000000E-01  8.50000000E-01  8.00000000E-01  8.50000000E-01  8.50000000E-01
  8.50000000E-01  8.00000000E-01  8.50000000E-01  8.50000000E-01  8.50000000E-01
  8.00000000E-01  8.50000000E-01  8.50000000E-01  8.50000000E-01  8.00000000E-01
  8.50000000E-01  8.50000000E-01  8.50000000E-01  8.00000000E-01  8.50000000E-01
  8.50000000E-01  8.50000000E-01  8.00000000E-01  8.50000000E-01  8.50000000E-01
  8.50000000E-01  8.00000000E-01  8.50000000E-01  8.50000000E-01  8.50000000E-01
  8.00000000E-01  8.50000000E-01  8.50000000E-01  8.50000000E-01  8.00000000E-01
  8.50000000E-01  8.50000000E-01  8.50000000E-01  8.00000000E-01  8.50000000E-01
  8.50000000E-01  8.50000000E-01  8.00000000E-01  8.50000000E-01  8.50000000E-01
  8.50000000E-01  8.00000000E-01  8.50000000E-01  8.50000000E-01  8.50000000E-01
  8.00000000E-01  8.50000000E-01  8.50000000E-01  8.50000000E-01  8.00000000E-01
  8.50000000E-01  8.50000000E-01  8.50000000E-01  8.00000000E-01  8.50000000E-01
  8.50000000E-01  8.50000000E-01  8.00000000E-01  8.50000000E-01  8.50000000E-01
  8.50000000E-01  8.00000000E-01  8.50000000E-01  8.50000000E-01  8.50000000E-01
  8.00000000E-01  8.50000000E-01  8.50000000E-01  8.50000000E-01  8.00000000E-01
  8.50000000E-01  8.50000000E-01  8.50000000E-01  8.00000000E-01  8.50000000E-01
  8.50000000E-01  8.50000000E-01  8.00000000E-01  8.50000000E-01  8.50000000E-01
  8.50000000E-01  8.00000000E-01  8.50000000E-01  8.50000000E-01  8.50000000E-01
  8.00000000E-01  8.50000000E-01  8.50000000E-01  8.50000000E-01  8.00000000E-01
  8.50000000E-01  8.50000000E-01  8.50000000E-01  8.00000000E-01  8.50000000E-01
  8.50000000E-01  8.50000000E-01  8.00000000E-01  8.50000000E-01  8.50000000E-01
  8.50000000E-01  8.00000000E-01  8.50000000E-01  8.50000000E-01  8.50000000E-01
  8.00000000E-01  8.50000000E-01  8.50000000E-01  8.50000000E-01  8.00000000E-01
  8.50000000E-01  8.50000000E-01  8.50000000E-01  8.00000000E-01  8.50000000E-01
  8.50000000E-01  8.50000000E-01  8.00000000E-01  8.50000000E-01  8.50000000E-01
  8.50000000E-01  8.00000000E-01  8.50000000E-01  8.50000000E-01  8.50000000E-01
  8.00000000E-01  8.50000000E-01  8.50000000E-01  8.50000000E-01  8.00000000E-01
  8.50000000E-01  8.50000000E-01  8.50000000E-01  8.00000000E-01  8.50000000E-01
  8.50000000E-01  8.50000000E-01  8.00000000E-01  8.50000000E-01  8.50000000E-01
  8.50000000E-01  8.00000000E-01  8.50000000E-01  8.50000000E-01  8.50000000E-01
  8.00000000E-01  8.50000000E-01  8.50000000E-01  8.50000000E-01  8.00000000E-01
  8.50000000E-01  8.50000000E-01  8.50000000E-01  8.00000000E-01  8.50000000E-01
  8.50000000E-01  8.50000000E-01  8.00000000E-01  8.50000000E-01  8.50000000E-01
  8.50000000E-01  8.00000000E-01  8.50000000E-01  8.50000000E-01  8.50000000E-01
  8.00000000E-01  8.50000000E-01  8.50000000E-01  8.50000000E-01  8.00000000E-01
  8.50000000E-01  8.50000000E-01  8.50000000E-01  8.00000000E-01  8.50000000E-01
  8.50000000E-01  8.50000000E-01  8.00000000E-01  8.50000000E-01  8.50000000E-01
  8.50000000E-01  8.00000000E-01  8.50000000E-01  8.50000000E-01  8.50000000E-01
  8.00000000E-01  8.50000000E-01  8.50000000E-01  8.50000000E-01  8.00000000E-01
  8.50000000E-01  8.50000000E-01  8.50000000E-01  8.00000000E-01  8.50000000E-01
  8.50000000E-01  8.50000000E-01  8.00000000E-01  8.50000000E-01  8.50000000E-01
  8.50000000E-01  8.00000000E-01  8.50000000E-01  8.50000000E-01  8.50000000E-01
  8.00000000E-01  8.50000000E-01  8.50000000E-01  8.50000000E-01  8.00000000E-01
  8.50000000E-01  8.50000000E-01  8.50000000E-01  8.00000000E-01  8.50000000E-01
  8.50000000E-01  8.50000000E-01  8.00000000E-01  8.50000000E-01  8.50000000E-01
  8.50000000E-01  8.00000000E-01  8.50000000E-01  8.50000000E-01  8.50000000E-01
  8.00000000E-01  8.50000000E-01  8.50000000E-01  8.50000000E-01  8.00000000E-01
  8.50000000E-01  8.50000000E-01  8.50000000E-01  8.00000000E-01  8.50000000E-01
  8.50000000E-01  8.50000000E-01  8.00000000E-01  8.50000000E-01  8.50000000E-01
  8.50000000E-01  8.00000000E-01  8.50000000E-01  8.50000000E-01  8.50000000E-01
  8.00000000E-01  8.50000000E-01  8.50000000E-01  8.50000000E-01  8.00000000E-01
  8.50000000E-01  8.50000000E-01  8.50000000E-01  8.00000000E-01  8.50000000E-01
  8.50000000E-01  8.50000000E-01  8.00000000E-01  8.50000000E-01  8.50000000E-01
  8.50000000E-01  8.00000000E-01  8.50000000E-01  8.50000000E-01  8.50000000E-01
  8.00000000E-01  8.50000000E-01  8.50000000E-01  8.50000000E-01  8.00000000E-01
  8.50000000E-01  8.50000000E-01  8.50000000E-01  8.00000000E-01  8.50000000E-01
  8.50000000E-01  8.50000000E-01  8.00000000E-01  8.50000000E-01  8.50000000E-01
  8.50000000E-01  8.00000000E-01  8.50000000E-01  8.50000000E-01  8.50000000E-01
  8.00000000E-01  8.50000000E-01  8.50000000E-01  8.50000000E-01  8.00000000E-01
  8.50000000E-01  8.50000000E-01  8.50000000E-01  8.00000000E-01  8.50000000E-01
  8.50000000E-01  8.50000000E-01  8.00000000E-01  8.50000000E-01  8.50000000E-01
  8.50000000E-01  8.00000000E-01  8.50000000E-01  8.50000000E-01  8.50000000E-01
  8.00000000E-01  8.50000000E-01  8.50000000E-01  8.50000000E-01  8.00000000E-01
  8.50000000E-01  8.50000000E-01  8.50000000E-01  8.00000000E-01  8.50000000E-01
  8.50000000E-01  8.50000000E-01  8.00000000E-01  8.50000000E-01  8.50000000E-01
  8.50000000E-01  8.00000000E-01  8.50000000E-01  8.50000000E-01  8.50000000E-01
  8.00000000E-01  8.50000000E-01  8.50000000E-01  8.50000000E-01  8.00000000E-01
  8.50000000E-01  8.50000000E-01  8.50000000E-01  8.00000000E-01  8.50000000E-01
  8.50000000E-01  8.50000000E-01  8.00000000E-01  8.50000000E-01  8.50000000E-01
  8.50000000E-01  8.00000000E-01  8.50000000E-01  8.50000000E-01  8.50000000E-01
  8.00000000E-01  8.50000000E-01  8.50000000E-01  8.50000000E-01  8.00000000E-01
  8.50000000E-01  8.50000000E-01  8.50000000E-01  8.00000000E-01  8.50000000E-01
  8.50000000E-01  8.50000000E-01  8.00000000E-01  8.50000000E-01  8.50000000E-01
  8.50000000E-01  8.00000000E-01  8.50000000E-01  8.50000000E-01  8.50000000E-01
  8.00000000E-01  8.50000000E-01  8.50000000E-01  8.50000000E-01  8.00000000E-01
  8.50000000E-01  8.50000000E-01  8.50000000E-01  8.00000000E-01  8.50000000E-01
  8.50000000E-01  8.50000000E-01  8.00000000E-01  8.50000000E-01  8.50000000E-01
  8.50000000E-01  8.00000000E-01  8.50000000E-01  8.50000000E-01  8.50000000E-01
  8.00000000E-01  8.50000000E-01  8.50000000E-01  8.50000000E-01  8.00000000E-01
  8.50000000E-01  8.50000000E-01  8.50000000E-01  8.00000000E-01  8.50000000E-01
  8.50000000E-01  8.50000000E-01  8.00000000E-01  8.50000000E-01  8.50000000E-01
  8.50000000E-01  8.00000000E-01  8.50000000E-01  8.50000000E-01  8.50000000E-01
  8.00000000E-01  8.50000000E-01  8.50000000E-01  8.50000000E-01  8.00000000E-01
  8.50000000E-01  8.50000000E-01  8.50000000E-01  8.00000000E-01  8.50000000E-01
  8.50000000E-01  8.50000000E-01  8.00000000E-01  8.50000000E-01  8.50000000E-01
  8.50000000E-01  8.00000000E-01  8.50000000E-01  8.50000000E-01  8.50000000E-01
  8.00000000E-01  8.50000000E-01  8.50000000E-01  8.50000000E-01  8.00000000E-01
  8.50000000E-01  8.50000000E-01  8.50000000E-01  8.00000000E-01  8.50000000E-01
  8.50000000E-01  8.50000000E-01  8.00000000E-01  8.50000000E-01  8.50000000E-01
  8.50000000E-01  8.00000000E-01  8.50000000E-01  8.50000000E-01  8.50000000E-01
  8.00000000E-01  8.50000000E-01  8.50000000E-01  8.50000000E-01  8.00000000E-01
  8.50000000E-01  8.50000000E-01  8.50000000E-01  8.00000000E-01  8.50000000E-01
  8.50000000E-01  8.50000000E-01  8.00000000E-01  8.50000000E-01  8.50000000E-01
  8.50000000E-01  8.00000000E-01  8.50000000E-01  8.50000000E-01  8.50000000E-01
  8.00000000E-01  8.50000000E-01  8.50000000E-01  8.50000000E-01  8.00000000E-01
  8.50000000E-01  8.50000000E-01  8.50000000E-01  8.00000000E-01  8.50000000E-01
  8.50000000E-01  8.50000000E-01  8.00000000E-01  8.50000000E-01  8.50000000E-01
  8.50000000E-01  8.00000000E-01  8.50000000E-01  8.50000000E-01  8.50000000E-01
  8.00000000E-01  8.50000000E-01  8.50000000E-01  8.50000000E-01  8.00000000E-01
  8.50000000E-01  8.50000000E-01  8.50000000E-01  8.00000000E-01  8.50000000E-01
  8.50000000E-01  8.50000000E-01  8.00000000E-01  8.50000000E-01  8.50000000E-01
  8.50000000E-01  8.00000000E-01  8.50000000E-01  8.50000000E-01  8.50000000E-01
  8.00000000E-01  8.50000000E-01  8.50000000E-01  8.50000000E-01  8.00000000E-01
  8.50000000E-01  8.50000000E-01  8.50000000E-01  8.00000000E-01  8.50000000E-01
  8.50000000E-01  8.50000000E-01  8.00000000E-01  8.50000000E-01  8.50000000E-01
  8.50000000E-01  8.00000000E-01  8.50000000E-01  8.50000000E-01  8.50000000E-01
  8.00000000E-01  8.50000000E-01  8.50000000E-01  8.50000000E-01  8.00000000E-01
  8.50000000E-01  8.50000000E-01  8.50000000E-01  8.00000000E-01  8.50000000E-01
  8.50000000E-01  8.50000000E-01  8.00000000E-01  8.50000000E-01  8.50000000E-01
  8.50000000E-01  8.00000000E-01  8.50000000E-01  8.50000000E-01  8.50000000E-01
  8.00000000E-01  8.50000000E-01  8.50000000E-01  8.50000000E-01  8.00000000E-01
  8.50000000E-01  8.50000000E-01  8.50000000E-01  8.00000000E-01  8.50000000E-01
  8.50000000E-01  8.50000000E-01  8.00000000E-01  8.50000000E-01  8.50000000E-01
  8.50000000E-01  8.00000000E-01  8.50000000E-01  8.50000000E-01  8.50000000E-01
  8.00000000E-01  8.50000000E-01  8.50000000E-01  8.50000000E-01  8.00000000E-01
  8.50000000E-01  8.50000000E-01  8.50000000E-01  8.00000000E-01  8.50000000E-01
  8.50000000E-01  8.50000000E-01  8.00000000E-01  8.50000000E-01  8.50000000E-01
  8.50000000E-01  8.00000000E-01  8.50000000E-01  8.50000000E-01  8.50000000E-01
  8.00000000E-01  8.50000000E-01  8.50000000E-01  8.50000000E-01  8.00000000E-01
  8.50000000E-01  8.50000000E-01  8.50000000E-01  8.00000000E-01  8.50000000E-01
  8.50000000E-01  8.50000000E-01  8.00000000E-01  8.50000000E-01  8.50000000E-01
  8.50000000E-01  8.00000000E-01  8.50000000E-01  8.50000000E-01  8.50000000E-01
  8.00000000E-01  8.50000000E-01  8.50000000E-01  8.50000000E-01  8.00000000E-01
  8.50000000E-01  8.50000000E-01  8.50000000E-01  8.00000000E-01  8.50000000E-01
  8.50000000E-01  8.50000000E-01  8.00000000E-01  8.50000000E-01  8.50000000E-01
  8.50000000E-01  8.00000000E-01  8.50000000E-01  8.50000000E-01  8.50000000E-01
  8.00000000E-01  8.50000000E-01  8.50000000E-01  8.50000000E-01  8.00000000E-01
  8.50000000E-01  8.50000000E-01  8.50000000E-01  8.00000000E-01  8.50000000E-01
  8.50000000E-01  8.50000000E-01  8.00000000E-01  8.50000000E-01  8.50000000E-01
  8.50000000E-01  8.00000000E-01  8.50000000E-01  8.50000000E-01  8.50000000E-01
  8.00000000E-01  8.50000000E-01  8.50000000E-01  8.50000000E-01  8.00000000E-01
  8.50000000E-01  8.50000000E-01  8.50000000E-01  8.00000000E-01  8.50000000E-01
  8.50000000E-01  8.50000000E-01  8.00000000E-01  8.50000000E-01  8.50000000E-01
  8.50000000E-01  8.00000000E-01  8.50000000E-01  8.50000000E-01  8.50000000E-01
  8.00000000E-01  8.50000000E-01  8.50000000E-01  8.50000000E-01  8.00000000E-01
  8.50000000E-01  8.50000000E-01  8.50000000E-01  8.00000000E-01  8.50000000E-01
  8.50000000E-01  8.50000000E-01  8.00000000E-01  8.50000000E-01  8.50000000E-01
  8.50000000E-01  8.00000000E-01  8.50000000E-01  8.50000000E-01  8.50000000E-01
  8.00000000E-01  8.50000000E-01  8.50000000E-01  8.50000000E-01  8.00000000E-01
  8.50000000E-01  8.50000000E-01  8.50000000E-01  8.00000000E-01  8.50000000E-01
  8.50000000E-01  8.50000000E-01  8.00000000E-01  8.50000000E-01  8.50000000E-01
  8.50000000E-01  8.00000000E-01  8.50000000E-01  8.50000000E-01  8.50000000E-01
  8.00000000E-01  8.50000000E-01  8.50000000E-01  8.50000000E-01  8.00000000E-01
  8.50000000E-01  8.50000000E-01  8.50000000E-01  8.00000000E-01  8.50000000E-01
  8.50000000E-01  8.50000000E-01  8.00000000E-01  8.50000000E-01  8.50000000E-01
  8.50000000E-01  8.00000000E-01  8.50000000E-01  8.50000000E-01  8.50000000E-01
  8.00000000E-01  8.50000000E-01  8.50000000E-01  8.50000000E-01  8.00000000E-01
  8.50000000E-01  8.50000000E-01  8.50000000E-01  8.00000000E-01  8.50000000E-01
  8.50000000E-01  8.50000000E-01  8.00000000E-01  8.50000000E-01  8.50000000E-01
  8.50000000E-01  8.00000000E-01  8.50000000E-01  8.50000000E-01  8.50000000E-01
  8.00000000E-01  8.50000000E-01  8.50000000E-01  8.50000000E-01  8.00000000E-01
  8.50000000E-01  8.50000000E-01  8.50000000E-01  8.00000000E-01  8.50000000E-01
  8.50000000E-01  8.50000000E-01  8.00000000E-01  8.50000000E-01  8.50000000E-01
  8.50000000E-01  8.00000000E-01  8.50000000E-01  8.50000000E-01  8.50000000E-01
  8.00000000E-01  8.50000000E-01  8.50000000E-01  8.50000000E-01  8.00000000E-01
  8.50000000E-01  8.50000000E-01  8.50000000E-01  8.00000000E-01  8.50000000E-01
  8.50000000E-01  8.50000000E-01  8.00000000E-01  8.50000000E-01  8.50000000E-01
  8.50000000E-01  8.00000000E-01  8.50000000E-01  8.50000000E-01  8.50000000E-01
  8.00000000E-01  8.50000000E-01  8.50000000E-01  8.50000000E-01  8.00000000E-01
  8.50000000E-01  8.50000000E-01  8.50000000E-01  8.00000000E-01  8.50000000E-01
  8.50000000E-01  8.50000000E-01  8.00000000E-01  8.50000000E-01  8.50000000E-01
  8.50000000E-01  8.00000000E-01  8.50000000E-01  8.50000000E-01  8.50000000E-01
  8.00000000E-01  8.50000000E-01  8.50000000E-01  8.50000000E-01  8.00000000E-01
  8.50000000E-01  8.50000000E-01  8.50000000E-01  8.00000000E-01  8.50000000E-01
  8.50000000E-01  8.50000000E-01  8.00000000E-01  8.50000000E-01  8.50000000E-01
  8.50000000E-01  8.00000000E-01  8.50000000E-01  8.50000000E-01  8.50000000E-01
  8.00000000E-01  8.50000000E-01  8.50000000E-01  8.50000000E-01  8.00000000E-01
  8.50000000E-01  8.50000000E-01  8.50000000E-01  8.00000000E-01  8.50000000E-01
  8.50000000E-01  8.50000000E-01  8.00000000E-01  8.50000000E-01  8.50000000E-01
  8.50000000E-01  8.00000000E-01  8.50000000E-01  8.50000000E-01  8.50000000E-01
  8.00000000E-01  8.50000000E-01  8.50000000E-01  8.50000000E-01  8.00000000E-01
  8.50000000E-01  8.50000000E-01  8.50000000E-01  8.00000000E-01  8.50000000E-01
  8.50000000E-01  8.50000000E-01  8.00000000E-01  8.50000000E-01  8.50000000E-01
  8.50000000E-01  8.00000000E-01  8.50000000E-01  8.50000000E-01  8.50000000E-01
  8.00000000E-01  8.50000000E-01  8.50000000E-01  8.50000000E-01  8.00000000E-01
  8.50000000E-01  8.50000000E-01  8.50000000E-01  8.00000000E-01  8.50000000E-01
  8.50000000E-01  8.50000000E-01  8.00000000E-01  8.50000000E-01  8.50000000E-01
  8.50000000E-01  8.00000000E-01  8.50000000E-01  8.50000000E-01  8.50000000E-01
  8.00000000E-01  8.50000000E-01  8.50000000E-01  8.50000000E-01  8.00000000E-01
  8.50000000E-01  8.50000000E-01  8.50000000E-01  8.00000000E-01  8.50000000E-01
  8.50000000E-01  8.50000000E-01  8.00000000E-01  8.50000000E-01  8.50000000E-01
  8.50000000E-01  8.00000000E-01  8.50000000E-01  8.50000000E-01  8.50000000E-01
  8.00000000E-01  8.50000000E-01  8.50000000E-01  8.50000000E-01  8.00000000E-01
  8.50000000E-01  8.50000000E-01  8.50000000E-01  8.00000000E-01  8.50000000E-01
  8.50000000E-01  8.50000000E-01  8.00000000E-01  8.50000000E-01  8.50000000E-01
  8.50000000E-01  8.00000000E-01  8.50000000E-01  8.50000000E-01  8.50000000E-01
  8.00000000E-01  8.50000000E-01  8.50000000E-01  8.50000000E-01  8.00000000E-01
  8.50000000E-01  8.50000000E-01  8.50000000E-01  8.00000000E-01  8.50000000E-01
  8.50000000E-01  8.50000000E-01  8.00000000E-01  8.50000000E-01  8.50000000E-01
  8.50000000E-01  8.00000000E-01  8.50000000E-01  8.50000000E-01  8.50000000E-01
  8.00000000E-01  8.50000000E-01  8.50000000E-01  8.50000000E-01  8.00000000E-01
  8.50000000E-01  8.50000000E-01  8.50000000E-01  8.00000000E-01  8.50000000E-01
  8.50000000E-01  8.50000000E-01  8.00000000E-01  8.50000000E-01  8.50000000E-01
  8.50000000E-01  8.00000000E-01  8.50000000E-01  8.50000000E-01  8.50000000E-01
  8.00000000E-01  8.50000000E-01  8.50000000E-01  8.50000000E-01  8.00000000E-01
  8.50000000E-01  8.50000000E-01  8.50000000E-01  8.00000000E-01  8.50000000E-01
  8.50000000E-01  8.50000000E-01  8.00000000E-01  8.50000000E-01  8.50000000E-01
  8.50000000E-01  8.00000000E-01  8.50000000E-01  8.50000000E-01  8.50000000E-01
  8.00000000E-01  8.50000000E-01  8.50000000E-01  8.50000000E-01  8.00000000E-01
  8.50000000E-01  8.50000000E-01  8.50000000E-01  8.00000000E-01  8.50000000E-01
  8.50000000E-01  8.50000000E-01  8.00000000E-01  8.50000000E-01  8.50000000E-01
  8.50000000E-01  8.00000000E-01  8.50000000E-01  8.50000000E-01  8.50000000E-01
  8.00000000E-01  8.50000000E-01  8.50000000E-01  8.50000000E-01  8.00000000E-01
  8.50000000E-01  8.50000000E-01  8.50000000E-01  8.00000000E-01  8.50000000E-01
  8.50000000E-01  8.50000000E-01  8.00000000E-01  8.50000000E-01  8.50000000E-01
  8.50000000E-01  8.00000000E-01  8.50000000E-01  8.50000000E-01  8.50000000E-01
  8.00000000E-01  8.50000000E-01  8.50000000E-01  8.50000000E-01  8.00000000E-01
  8.50000000E-01  8.50000000E-01  8.50000000E-01  8.00000000E-01  8.50000000E-01
  8.50000000E-01  8.50000000E-01  8.00000000E-01  8.50000000E-01  8.50000000E-01
  8.50000000E-01  8.00000000E-01  8.50000000E-01  8.50000000E-01  8.50000000E-01
  8.00000000E-01  8.50000000E-01  8.50000000E-01  8.50000000E-01  8.00000000E-01
  8.50000000E-01  8.50000000E-01  8.50000000E-01  8.00000000E-01  8.50000000E-01
  8.50000000E-01  8.50000000E-01  8.00000000E-01  8.50000000E-01  8.50000000E-01
  8.50000000E-01  8.00000000E-01  8.50000000E-01  8.50000000E-01  8.50000000E-01
  8.00000000E-01  8.50000000E-01  8.50000000E-01  8.50000000E-01  8.00000000E-01
  8.50000000E-01  8.50000000E-01  8.50000000E-01  8.00000000E-01  8.50000000E-01
  8.50000000E-01  8.50000000E-01  8.00000000E-01  8.50000000E-01  8.50000000E-01
  8.50000000E-01  8.00000000E-01  8.50000000E-01  8.50000000E-01  8.50000000E-01
  8.00000000E-01  8.50000000E-01  8.50000000E-01  8.50000000E-01  8.00000000E-01
  8.50000000E-01  8.50000000E-01  8.50000000E-01  8.00000000E-01  8.50000000E-01
  8.50000000E-01  8.50000000E-01  8.00000000E-01  8.50000000E-01  8.50000000E-01
  8.50000000E-01  8.00000000E-01  8.50000000E-01  8.50000000E-01  8.50000000E-01
  8.00000000E-01  8.50000000E-01  8.50000000E-01  8.50000000E-01  8.00000000E-01
  8.50000000E-01  8.50000000E-01  8.50000000E-01  8.00000000E-01  8.50000000E-01
  8.50000000E-01  8.50000000E-01  8.00000000E-01  8.50000000E-01  8.50000000E-01
  8.50000000E-01  8.00000000E-01  8.50000000E-01  8.50000000E-01  8.50000000E-01
  8.00000000E-01  8.50000000E-01  8.50000000E-01  8.50000000E-01  8.00000000E-01
  8.50000000E-01  8.50000000E-01  8.50000000E-01  8.00000000E-01  8.50000000E-01
  8.50000000E-01  8.50000000E-01  8.00000000E-01  8.50000000E-01  8.50000000E-01
  8.50000000E-01  8.00000000E-01  8.50000000E-01  8.50000000E-01  8.50000000E-01
  8.00000000E-01  8.50000000E-01  8.50000000E-01  8.50000000E-01  8.00000000E-01
  8.50000000E-01  8.50000000E-01  8.50000000E-01  8.00000000E-01  8.50000000E-01
  8.50000000E-01  8.50000000E-01  8.00000000E-01  8.50000000E-01  8.50000000E-01
  8.50000000E-01  8.00000000E-01  8.50000000E-01  8.50000000E-01  8.50000000E-01
  8.00000000E-01  8.50000000E-01  8.50000000E-01  8.50000000E-01  8.00000000E-01
  8.50000000E-01  8.50000000E-01  8.50000000E-01  8.00000000E-01  8.50000000E-01
  8.50000000E-01  8.50000000E-01  8.00000000E-01  8.50000000E-01  8.50000000E-01
  8.50000000E-01  8.00000000E-01  8.50000000E-01  8.50000000E-01  8.50000000E-01
  8.00000000E-01  8.50000000E-01  8.50000000E-01  8.50000000E-01  8.00000000E-01
  8.50000000E-01  8.50000000E-01  8.50000000E-01  8.00000000E-01  8.50000000E-01
  8.50000000E-01  8.50000000E-01  8.00000000E-01  8.50000000E-01  8.50000000E-01
  8.50000000E-01  8.00000000E-01  8.50000000E-01  8.50000000E-01  8.50000000E-01
  8.00000000E-01  8.50000000E-01  8.50000000E-01  8.50000000E-01  8.00000000E-01
  8.50000000E-01  8.50000000E-01  8.50000000E-01  8.00000000E-01  8.50000000E-01
  8.50000000E-01  8.50000000E-01  8.00000000E-01  8.50000000E-01  8.50000000E-01
  8.50000000E-01  8.00000000E-01  8.50000000E-01  8.50000000E-01  8.50000000E-01
  8.00000000E-01  8.50000000E-01  8.50000000E-01  8.50000000E-01  8.00000000E-01
  8.50000000E-01  8.50000000E-01  8.50000000E-01  8.00000000E-01  8.50000000E-01
  8.50000000E-01  8.50000000E-01  8.00000000E-01  8.50000000E-01  8.50000000E-01
  8.50000000E-01  8.00000000E-01  8.50000000E-01  8.50000000E-01  8.50000000E-01
  8.00000000E-01  8.50000000E-01  8.50000000E-01  8.50000000E-01  8.00000000E-01
  8.50000000E-01  8.50000000E-01  8.50000000E-01  8.00000000E-01  8.50000000E-01
  8.50000000E-01  8.50000000E-01  8.00000000E-01  8.50000000E-01  8.50000000E-01
  8.50000000E-01  8.00000000E-01  8.50000000E-01  8.50000000E-01  8.50000000E-01
  8.00000000E-01  8.50000000E-01  8.50000000E-01  8.50000000E-01  8.00000000E-01
  8.50000000E-01  8.50000000E-01  8.50000000E-01  8.00000000E-01  8.50000000E-01
  8.50000000E-01  8.50000000E-01  8.00000000E-01  8.50000000E-01  8.50000000E-01
  8.50000000E-01  8.00000000E-01  8.50000000E-01  8.50000000E-01  8.50000000E-01
  8.00000000E-01  8.50000000E-01  8.50000000E-01  8.50000000E-01  8.00000000E-01
  8.50000000E-01  8.50000000E-01  8.50000000E-01  8.00000000E-01  8.50000000E-01
  8.50000000E-01  8.50000000E-01  8.00000000E-01  8.50000000E-01  8.50000000E-01
  8.50000000E-01  8.00000000E-01  8.50000000E-01  8.50000000E-01  8.50000000E-01
  8.00000000E-01  8.50000000E-01  8.50000000E-01  8.50000000E-01  8.00000000E-01
  8.50000000E-01  8.50000000E-01  8.50000000E-01  8.00000000E-01  8.50000000E-01
  8.50000000E-01  8.50000000E-01  8.00000000E-01  8.50000000E-01  8.50000000E-01
  8.50000000E-01  8.00000000E-01  8.50000000E-01  8.50000000E-01  8.50000000E-01
  8.00000000E-01  8.50000000E-01  8.50000000E-01  8.50000000E-01  8.00000000E-01
  8.50000000E-01  8.50000000E-01  8.50000000E-01  8.00000000E-01  8.50000000E-01
  8.50000000E-01  8.50000000E-01  8.00000000E-01  8.50000000E-01  8.50000000E-01
  8.50000000E-01  8.00000000E-01  8.50000000E-01  8.50000000E-01  8.50000000E-01
  8.00000000E-01  8.50000000E-01  8.50000000E-01  8.50000000E-01  8.00000000E-01
  8.50000000E-01  8.50000000E-01  8.50000000E-01  8.00000000E-01  8.50000000E-01
  8.50000000E-01  8.50000000E-01  8.00000000E-01  8.50000000E-01  8.50000000E-01
  8.50000000E-01  8.00000000E-01  8.50000000E-01  8.50000000E-01  8.50000000E-01
  8.00000000E-01  8.50000000E-01  8.50000000E-01  8.50000000E-01  8.00000000E-01
  8.50000000E-01  8.50000000E-01  8.50000000E-01  8.00000000E-01  8.50000000E-01
  8.50000000E-01  8.50000000E-01  8.00000000E-01  8.50000000E-01  8.50000000E-01
  8.50000000E-01  8.00000000E-01  8.50000000E-01  8.50000000E-01  8.50000000E-01
  8.00000000E-01  8.50000000E-01  8.50000000E-01  8.50000000E-01  8.00000000E-01
  8.50000000E-01  8.50000000E-01  8.50000000E-01  8.00000000E-01  8.50000000E-01
  8.50000000E-01  8.50000000E-01  8.00000000E-01  8.50000000E-01  8.50000000E-01
  8.50000000E-01  8.00000000E-01  8.50000000E-01  8.50000000E-01  8.50000000E-01
  8.00000000E-01  8.50000000E-01  8.50000000E-01  8.50000000E-01  8.00000000E-01
  8.50000000E-01  8.50000000E-01  8.50000000E-01  8.00000000E-01  8.50000000E-01
  8.50000000E-01  8.50000000E-01  8.00000000E-01  8.50000000E-01  8.50000000E-01
  8.50000000E-01  8.00000000E-01  8.50000000E-01  8.50000000E-01  8.50000000E-01
  8.00000000E-01  8.50000000E-01  8.50000000E-01  8.50000000E-01  8.00000000E-01
  8.50000000E-01  8.50000000E-01  8.50000000E-01  8.00000000E-01  8.50000000E-01
  8.50000000E-01  8.50000000E-01  8.00000000E-01  8.50000000E-01  8.50000000E-01
  8.50000000E-01  8.00000000E-01  8.50000000E-01  8.50000000E-01  8.50000000E-01
  8.00000000E-01  8.50000000E-01  8.50000000E-01  8.50000000E-01  8.00000000E-01
  8.50000000E-01  8.50000000E-01  8.50000000E-01  8.00000000E-01  8.50000000E-01
  8.50000000E-01  8.50000000E-01  8.00000000E-01  8.50000000E-01  8.50000000E-01
  8.50000000E-01  8.00000000E-01  8.50000000E-01  8.50000000E-01  8.50000000E-01
  8.00000000E-01  8.50000000E-01  8.50000000E-01  8.50000000E-01  8.00000000E-01
  8.50000000E-01  8.50000000E-01  8.50000000E-01  8.00000000E-01  8.50000000E-01
  8.50000000E-01  8.50000000E-01  8.00000000E-01  8.50000000E-01  8.50000000E-01
  8.50000000E-01  8.00000000E-01  8.50000000E-01  8.50000000E-01  8.50000000E-01
  8.00000000E-01  8.50000000E-01  8.50000000E-01  8.50000000E-01  8.00000000E-01
  8.50000000E-01  8.50000000E-01  8.50000000E-01  8.00000000E-01  8.50000000E-01
  8.50000000E-01  8.50000000E-01  8.00000000E-01  8.50000000E-01  8.50000000E-01
  8.50000000E-01  8.00000000E-01  8.50000000E-01  8.50000000E-01  8.50000000E-01
  8.00000000E-01  8.50000000E-01  8.50000000E-01  8.50000000E-01  8.00000000E-01
  8.50000000E-01  8.50000000E-01  8.50000000E-01  8.00000000E-01  8.50000000E-01
  8.50000000E-01  8.50000000E-01  8.00000000E-01  8.50000000E-01  8.50000000E-01
  8.50000000E-01  8.00000000E-01  8.50000000E-01  8.50000000E-01  8.50000000E-01
  8.00000000E-01  8.50000000E-01  8.50000000E-01  8.50000000E-01  8.00000000E-01
  8.50000000E-01  8.50000000E-01  8.50000000E-01  8.00000000E-01  8.50000000E-01
  8.50000000E-01  8.50000000E-01  8.00000000E-01  8.50000000E-01  8.50000000E-01
  8.50000000E-01  8.00000000E-01  8.50000000E-01  8.50000000E-01  8.50000000E-01
  8.00000000E-01  8.50000000E-01  8.50000000E-01  8.50000000E-01  8.00000000E-01
  8.50000000E-01  8.50000000E-01  8.50000000E-01  8.00000000E-01  8.50000000E-01
  8.50000000E-01  8.50000000E-01  8.00000000E-01  8.50000000E-01  8.50000000E-01
  8.50000000E-01  8.00000000E-01  8.50000000E-01  8.50000000E-01  8.50000000E-01
  8.00000000E-01  8.50000000E-01  8.50000000E-01  8.50000000E-01  8.00000000E-01
  8.50000000E-01  8.50000000E-01  8.50000000E-01  8.00000000E-01  8.50000000E-01
  8.50000000E-01  8.50000000E-01  8.00000000E-01  8.50000000E-01  8.50000000E-01
  8.50000000E-01  8.00000000E-01  8.50000000E-01  8.50000000E-01  8.50000000E-01
  8.00000000E-01  8.50000000E-01  8.50000000E-01  8.50000000E-01  8.00000000E-01
  8.50000000E-01  8.50000000E-01  8.50000000E-01  8.00000000E-01  8.50000000E-01
  8.50000000E-01  8.50000000E-01  8.00000000E-01  8.50000000E-01  8.50000000E-01
  8.50000000E-01  8.00000000E-01  8.50000000E-01  8.50000000E-01  8.50000000E-01
  8.00000000E-01  8.50000000E-01  8.50000000E-01  8.50000000E-01  8.00000000E-01
  8.50000000E-01  8.50000000E-01  8.50000000E-01  8.00000000E-01  8.50000000E-01
  8.50000000E-01  8.50000000E-01  8.00000000E-01  8.50000000E-01  8.50000000E-01
  8.50000000E-01  8.00000000E-01  8.50000000E-01  8.50000000E-01  8.50000000E-01
  8.00000000E-01  8.50000000E-01  8.50000000E-01  8.50000000E-01  8.00000000E-01
  8.50000000E-01  8.50000000E-01  8.50000000E-01  8.00000000E-01  8.50000000E-01
  8.50000000E-01  8.50000000E-01  8.00000000E-01  8.50000000E-01  8.50000000E-01
  8.50000000E-01  8.00000000E-01  8.50000000E-01  8.50000000E-01  8.50000000E-01
  8.00000000E-01  8.50000000E-01  8.50000000E-01  8.50000000E-01  8.00000000E-01
  8.50000000E-01  8.50000000E-01  8.50000000E-01  8.00000000E-01  8.50000000E-01
  8.50000000E-01  8.50000000E-01  8.00000000E-01  8.50000000E-01  8.50000000E-01
  8.50000000E-01  8.00000000E-01  8.50000000E-01  8.50000000E-01  8.50000000E-01
  8.00000000E-01  8.50000000E-01  8.50000000E-01  8.50000000E-01  8.00000000E-01
  8.50000000E-01  8.50000000E-01  8.50000000E-01  8.00000000E-01  8.50000000E-01
  8.50000000E-01  8.50000000E-01  8.00000000E-01  8.50000000E-01  8.50000000E-01
  8.50000000E-01  8.00000000E-01  8.50000000E-01  8.50000000E-01  8.50000000E-01
  8.00000000E-01  8.50000000E-01  8.50000000E-01  8.50000000E-01  8.00000000E-01
  8.50000000E-01  8.50000000E-01  8.50000000E-01  8.00000000E-01  8.50000000E-01
  8.50000000E-01  8.50000000E-01  8.00000000E-01  8.50000000E-01  8.50000000E-01
  8.50000000E-01  8.00000000E-01  8.50000000E-01  8.50000000E-01  8.50000000E-01
  8.00000000E-01  8.50000000E-01  8.50000000E-01  8.50000000E-01  8.00000000E-01
  8.50000000E-01  8.50000000E-01  8.50000000E-01  8.00000000E-01  8.50000000E-01
  8.50000000E-01  8.50000000E-01  8.00000000E-01  8.50000000E-01  8.50000000E-01
  8.50000000E-01  8.00000000E-01  8.50000000E-01  8.50000000E-01  8.50000000E-01
  8.00000000E-01  8.50000000E-01  8.50000000E-01  8.50000000E-01  8.00000000E-01
  8.50000000E-01  8.50000000E-01  8.50000000E-01  8.00000000E-01  8.50000000E-01
  8.50000000E-01  8.50000000E-01  8.00000000E-01  8.50000000E-01  8.50000000E-01
  8.50000000E-01  8.00000000E-01  8.50000000E-01  8.50000000E-01  8.50000000E-01
  8.00000000E-01  8.50000000E-01  8.50000000E-01  8.50000000E-01  8.00000000E-01
  8.50000000E-01  8.50000000E-01  8.50000000E-01  8.00000000E-01  8.50000000E-01
  8.50000000E-01  8.50000000E-01  8.00000000E-01  8.50000000E-01  8.50000000E-01
  8.50000000E-01  8.00000000E-01  8.50000000E-01  8.50000000E-01  8.50000000E-01
  8.00000000E-01  8.50000000E-01  8.50000000E-01  8.50000000E-01  8.00000000E-01
  8.50000000E-01  8.50000000E-01  8.50000000E-01  8.00000000E-01  8.50000000E-01
  8.50000000E-01  8.50000000E-01  8.00000000E-01  8.50000000E-01  8.50000000E-01
  8.50000000E-01  8.00000000E-01  8.50000000E-01  8.50000000E-01  8.50000000E-01
  8.00000000E-01  8.50000000E-01  8.50000000E-01  8.50000000E-01  8.00000000E-01
  8.50000000E-01  8.50000000E-01  8.50000000E-01  8.00000000E-01  8.50000000E-01
  8.50000000E-01  8.50000000E-01  8.00000000E-01  8.50000000E-01  8.50000000E-01
  8.50000000E-01  8.00000000E-01  8.50000000E-01  8.50000000E-01  8.50000000E-01
  8.00000000E-01  8.50000000E-01  8.50000000E-01  8.50000000E-01  8.00000000E-01
  8.50000000E-01  8.50000000E-01  8.50000000E-01  8.00000000E-01  8.50000000E-01
  8.50000000E-01  8.50000000E-01  8.00000000E-01  8.50000000E-01  8.50000000E-01
  8.50000000E-01  8.00000000E-01  8.50000000E-01  8.50000000E-01  8.50000000E-01
  8.00000000E-01  8.50000000E-01  8.50000000E-01  8.50000000E-01  8.00000000E-01
  8.50000000E-01  8.50000000E-01  8.50000000E-01  8.00000000E-01  8.50000000E-01
  8.50000000E-01  8.50000000E-01  8.00000000E-01  8.50000000E-01  8.50000000E-01
  8.50000000E-01  8.00000000E-01  8.50000000E-01  8.50000000E-01  8.50000000E-01
  8.00000000E-01  8.50000000E-01  8.50000000E-01  8.50000000E-01  8.00000000E-01
  8.50000000E-01  8.50000000E-01  8.50000000E-01  8.00000000E-01  8.50000000E-01
  8.50000000E-01  8.50000000E-01  8.00000000E-01  8.50000000E-01  8.50000000E-01
  8.50000000E-01  8.00000000E-01  8.50000000E-01  8.50000000E-01  8.50000000E-01
  8.00000000E-01  8.50000000E-01  8.50000000E-01  8.50000000E-01  8.00000000E-01
  8.50000000E-01  8.50000000E-01  8.50000000E-01  8.00000000E-01  8.50000000E-01
  8.50000000E-01  8.50000000E-01  8.00000000E-01  8.50000000E-01  8.50000000E-01
  8.50000000E-01  8.00000000E-01  8.50000000E-01  8.50000000E-01  8.50000000E-01
  8.00000000E-01  8.50000000E-01  8.50000000E-01  8.50000000E-01  8.00000000E-01
  8.50000000E-01  8.50000000E-01  8.50000000E-01  8.00000000E-01  8.50000000E-01
  8.50000000E-01  8.50000000E-01  8.00000000E-01  8.50000000E-01  8.50000000E-01
  8.50000000E-01  8.00000000E-01  8.50000000E-01  8.50000000E-01  8.50000000E-01
  8.00000000E-01  8.50000000E-01  8.50000000E-01  8.50000000E-01  8.00000000E-01
  8.50000000E-01  8.50000000E-01  8.50000000E-01  8.00000000E-01  8.50000000E-01
  8.50000000E-01  8.50000000E-01  8.00000000E-01  8.50000000E-01  8.50000000E-01
  8.50000000E-01  8.00000000E-01  8.50000000E-01  8.50000000E-01  8.50000000E-01
  8.00000000E-01  8.50000000E-01  8.50000000E-01  8.50000000E-01  8.00000000E-01
  8.50000000E-01  8.50000000E-01  8.50000000E-01  8.00000000E-01  8.50000000E-01
  8.50000000E-01  8.50000000E-01  8.00000000E-01  8.50000000E-01  8.50000000E-01
  8.50000000E-01  8.00000000E-01  8.50000000E-01  8.50000000E-01  8.50000000E-01
  8.00000000E-01  8.50000000E-01  8.50000000E-01  8.50000000E-01  8.00000000E-01
  8.50000000E-01  8.50000000E-01  8.50000000E-01  8.00000000E-01  8.50000000E-01
  8.50000000E-01  8.50000000E-01  8.00000000E-01  8.50000000E-01  8.50000000E-01
  8.50000000E-01  8.00000000E-01  8.50000000E-01  8.50000000E-01  8.50000000E-01
  8.00000000E-01  8.50000000E-01  8.50000000E-01  8.50000000E-01  8.00000000E-01
  8.50000000E-01  8.50000000E-01  8.50000000E-01  8.00000000E-01  8.50000000E-01
  8.50000000E-01  8.50000000E-01  8.00000000E-01  8.50000000E-01  8.50000000E-01
  8.50000000E-01  8.00000000E-01  8.50000000E-01  8.50000000E-01  8.50000000E-01
  8.00000000E-01  8.50000000E-01  8.50000000E-01  8.50000000E-01  8.00000000E-01
  8.50000000E-01  8.50000000E-01  8.50000000E-01  8.00000000E-01  8.50000000E-01
  8.50000000E-01  8.50000000E-01  8.00000000E-01  8.50000000E-01  8.50000000E-01
  8.50000000E-01  8.00000000E-01  8.50000000E-01  8.50000000E-01  8.50000000E-01
  8.00000000E-01  8.50000000E-01  8.50000000E-01  8.50000000E-01  8.00000000E-01
  8.50000000E-01  8.50000000E-01  8.50000000E-01  8.00000000E-01  8.50000000E-01
  8.50000000E-01  8.50000000E-01  8.00000000E-01  8.50000000E-01  8.50000000E-01
  8.50000000E-01  8.00000000E-01  8.50000000E-01  8.50000000E-01  8.50000000E-01
  8.00000000E-01  8.50000000E-01  8.50000000E-01  8.50000000E-01  8.00000000E-01
  8.50000000E-01  8.50000000E-01  8.50000000E-01  8.00000000E-01  8.50000000E-01
  8.50000000E-01  8.50000000E-01  8.00000000E-01  8.50000000E-01  8.50000000E-01
  8.50000000E-01  8.00000000E-01  8.50000000E-01  8.50000000E-01  8.50000000E-01
  8.00000000E-01  8.50000000E-01  8.50000000E-01  8.50000000E-01  8.00000000E-01
  8.50000000E-01  8.50000000E-01  8.50000000E-01  8.00000000E-01  8.50000000E-01
  8.50000000E-01  8.50000000E-01  8.00000000E-01  8.50000000E-01  8.50000000E-01
  8.50000000E-01  8.00000000E-01  8.50000000E-01  8.50000000E-01  8.50000000E-01
  8.00000000E-01  8.50000000E-01  8.50000000E-01  8.50000000E-01  8.00000000E-01
  8.50000000E-01  8.50000000E-01  8.50000000E-01  8.00000000E-01  8.50000000E-01
  8.50000000E-01  8.50000000E-01  8.00000000E-01  8.50000000E-01  8.50000000E-01
  8.50000000E-01  8.00000000E-01  8.50000000E-01  8.50000000E-01  8.50000000E-01
  8.00000000E-01  8.50000000E-01  8.50000000E-01  8.50000000E-01  8.00000000E-01
  8.50000000E-01  8.50000000E-01  8.50000000E-01  8.00000000E-01  8.50000000E-01
  8.50000000E-01  8.50000000E-01  8.00000000E-01  8.50000000E-01  8.50000000E-01
  8.50000000E-01  8.00000000E-01  8.50000000E-01  8.50000000E-01  8.50000000E-01
  8.00000000E-01  8.50000000E-01  8.50000000E-01  8.50000000E-01  8.00000000E-01
  8.50000000E-01  8.50000000E-01  8.50000000E-01  8.00000000E-01  8.50000000E-01
  8.50000000E-01  8.50000000E-01  8.00000000E-01  8.50000000E-01  8.50000000E-01
  8.50000000E-01  8.00000000E-01  8.50000000E-01  8.50000000E-01  8.50000000E-01
  8.00000000E-01  8.50000000E-01  8.50000000E-01  8.50000000E-01  8.00000000E-01
  8.50000000E-01  8.50000000E-01  8.50000000E-01  8.00000000E-01  8.50000000E-01
  8.50000000E-01  8.50000000E-01  8.00000000E-01  8.50000000E-01  8.50000000E-01
  8.50000000E-01  8.00000000E-01  8.50000000E-01  8.50000000E-01  8.50000000E-01
  8.00000000E-01  8.50000000E-01  8.50000000E-01  8.50000000E-01  8.00000000E-01
  8.50000000E-01  8.50000000E-01  8.50000000E-01  8.00000000E-01  8.50000000E-01
  8.50000000E-01  8.50000000E-01  8.00000000E-01  8.50000000E-01  8.50000000E-01
  8.50000000E-01  8.00000000E-01  8.50000000E-01  8.50000000E-01  8.50000000E-01
  8.00000000E-01  8.50000000E-01  8.50000000E-01  8.50000000E-01  8.00000000E-01
  8.50000000E-01  8.50000000E-01  8.50000000E-01  8.00000000E-01  8.50000000E-01
  8.50000000E-01  8.50000000E-01  8.00000000E-01  8.50000000E-01  8.50000000E-01
  8.50000000E-01  8.00000000E-01  8.50000000E-01  8.50000000E-01  8.50000000E-01
  8.00000000E-01  8.50000000E-01  8.50000000E-01  8.50000000E-01  8.00000000E-01
  8.50000000E-01  8.50000000E-01  8.50000000E-01  8.00000000E-01  8.50000000E-01
  8.50000000E-01  8.50000000E-01  8.00000000E-01  8.50000000E-01  8.50000000E-01
  8.50000000E-01  8.00000000E-01  8.50000000E-01  8.50000000E-01  8.50000000E-01
  8.00000000E-01  8.50000000E-01  8.50000000E-01  8.50000000E-01  8.00000000E-01
  8.50000000E-01  8.50000000E-01  8.50000000E-01  8.00000000E-01  8.50000000E-01
  8.50000000E-01  8.50000000E-01  8.00000000E-01  8.50000000E-01  8.50000000E-01
  8.50000000E-01  8.00000000E-01  8.50000000E-01  8.50000000E-01  8.50000000E-01
  8.00000000E-01  8.50000000E-01  8.50000000E-01  8.50000000E-01  8.00000000E-01
  8.50000000E-01  8.50000000E-01  8.50000000E-01  8.00000000E-01  8.50000000E-01
  8.50000000E-01  8.50000000E-01  8.00000000E-01  8.50000000E-01  8.50000000E-01
  8.50000000E-01  8.00000000E-01  8.50000000E-01  8.50000000E-01  8.50000000E-01
  8.00000000E-01  8.50000000E-01  8.50000000E-01  8.50000000E-01  8.00000000E-01
  8.50000000E-01  8.50000000E-01  8.50000000E-01  8.00000000E-01  8.50000000E-01
  8.50000000E-01  8.50000000E-01  8.00000000E-01  8.50000000E-01  8.50000000E-01
  8.50000000E-01  8.00000000E-01  8.50000000E-01  8.50000000E-01  8.50000000E-01
  8.00000000E-01  8.50000000E-01  8.50000000E-01  8.50000000E-01  8.00000000E-01
  8.50000000E-01  8.50000000E-01  8.50000000E-01  8.00000000E-01  8.50000000E-01
  8.50000000E-01  8.50000000E-01  8.00000000E-01  8.50000000E-01  8.50000000E-01
  8.50000000E-01  8.00000000E-01  8.50000000E-01  8.50000000E-01  8.50000000E-01
  8.00000000E-01  8.50000000E-01  8.50000000E-01  8.50000000E-01  8.00000000E-01
  8.50000000E-01  8.50000000E-01  8.50000000E-01  8.00000000E-01  8.50000000E-01
  8.50000000E-01  8.50000000E-01  8.00000000E-01  8.50000000E-01  8.50000000E-01
  8.50000000E-01  8.00000000E-01  8.50000000E-01  8.50000000E-01  8.50000000E-01
  8.00000000E-01  8.50000000E-01  8.50000000E-01  8.50000000E-01  8.00000000E-01
  8.50000000E-01  8.50000000E-01  8.50000000E-01  8.00000000E-01  8.50000000E-01
  8.50000000E-01  8.50000000E-01  8.00000000E-01  8.50000000E-01  8.50000000E-01
  8.50000000E-01  8.00000000E-01  8.50000000E-01  8.50000000E-01  8.50000000E-01
  8.00000000E-01  8.50000000E-01  8.50000000E-01  8.50000000E-01  8.00000000E-01
  8.50000000E-01  8.50000000E-01  8.50000000E-01  8.00000000E-01  8.50000000E-01
  8.50000000E-01  8.50000000E-01  8.00000000E-01  8.50000000E-01  8.50000000E-01
  8.50000000E-01  8.00000000E-01  8.50000000E-01  8.50000000E-01  8.50000000E-01
  8.00000000E-01  8.50000000E-01  8.50000000E-01  8.50000000E-01  8.00000000E-01
  8.50000000E-01  8.50000000E-01  8.50000000E-01  8.00000000E-01  8.50000000E-01
  8.50000000E-01  8.50000000E-01  8.00000000E-01  8.50000000E-01  8.50000000E-01
  8.50000000E-01  8.00000000E-01  8.50000000E-01  8.50000000E-01  8.50000000E-01
  8.00000000E-01  8.50000000E-01  8.50000000E-01  8.50000000E-01  8.00000000E-01
  8.50000000E-01  8.50000000E-01  8.50000000E-01  8.00000000E-01  8.50000000E-01
  8.50000000E-01  8.50000000E-01  8.00000000E-01  8.50000000E-01  8.50000000E-01
  8.50000000E-01  8.00000000E-01  8.50000000E-01  8.50000000E-01  8.50000000E-01
  8.00000000E-01  8.50000000E-01  8.50000000E-01  8.50000000E-01  8.00000000E-01
  8.50000000E-01  8.50000000E-01  8.50000000E-01  8.00000000E-01  8.50000000E-01
  8.50000000E-01  8.50000000E-01  8.00000000E-01  8.50000000E-01  8.50000000E-01
  8.50000000E-01  8.00000000E-01  8.50000000E-01  8.50000000E-01  8.50000000E-01
  8.00000000E-01  8.50000000E-01  8.50000000E-01  8.50000000E-01  8.00000000E-01
  8.50000000E-01  8.50000000E-01  8.50000000E-01  8.00000000E-01  8.50000000E-01
  8.50000000E-01  8.50000000E-01  8.00000000E-01  8.50000000E-01  8.50000000E-01
  8.50000000E-01  8.00000000E-01  8.50000000E-01  8.50000000E-01  8.50000000E-01
  8.00000000E-01  8.50000000E-01  8.50000000E-01  8.50000000E-01  8.00000000E-01
  8.50000000E-01  8.50000000E-01  8.50000000E-01  8.00000000E-01  8.50000000E-01
  8.50000000E-01  8.50000000E-01  8.00000000E-01  8.50000000E-01  8.50000000E-01
  8.50000000E-01  8.00000000E-01  8.50000000E-01  8.50000000E-01  8.50000000E-01
  8.00000000E-01  8.50000000E-01  8.50000000E-01  8.50000000E-01  8.00000000E-01
  8.50000000E-01  8.50000000E-01  8.50000000E-01  8.00000000E-01  8.50000000E-01
  8.50000000E-01  8.50000000E-01  8.00000000E-01  8.50000000E-01  8.50000000E-01
  8.50000000E-01  8.00000000E-01  8.50000000E-01  8.50000000E-01  8.50000000E-01
  8.00000000E-01  8.50000000E-01  8.50000000E-01  8.50000000E-01  8.00000000E-01
  8.50000000E-01  8.50000000E-01  8.50000000E-01  8.00000000E-01  8.50000000E-01
  8.50000000E-01  8.50000000E-01  8.00000000E-01  8.50000000E-01  8.50000000E-01
  8.50000000E-01  8.00000000E-01  8.50000000E-01  8.50000000E-01  8.50000000E-01
  8.00000000E-01  8.50000000E-01  8.50000000E-01  8.50000000E-01  8.00000000E-01
  8.50000000E-01  8.50000000E-01  8.50000000E-01  8.00000000E-01  8.50000000E-01
  8.50000000E-01  8.50000000E-01  8.00000000E-01  8.50000000E-01  8.50000000E-01
  8.50000000E-01  8.00000000E-01  8.50000000E-01  8.50000000E-01  8.50000000E-01
  8.00000000E-01  8.50000000E-01  8.50000000E-01  8.50000000E-01  8.00000000E-01
  8.50000000E-01  8.50000000E-01  8.50000000E-01  8.00000000E-01  8.50000000E-01
  8.50000000E-01  8.50000000E-01  8.00000000E-01  8.50000000E-01  8.50000000E-01
  8.50000000E-01  8.00000000E-01  8.50000000E-01  8.50000000E-01  8.50000000E-01
  8.00000000E-01  8.50000000E-01  8.50000000E-01  8.50000000E-01  8.00000000E-01
  8.50000000E-01  8.50000000E-01  8.50000000E-01  8.00000000E-01  8.50000000E-01
  8.50000000E-01  8.50000000E-01  8.00000000E-01  8.50000000E-01  8.50000000E-01
  8.50000000E-01  8.00000000E-01  8.50000000E-01  8.50000000E-01  8.50000000E-01
  8.00000000E-01  8.50000000E-01  8.50000000E-01  8.50000000E-01  8.00000000E-01
  8.50000000E-01  8.50000000E-01  8.50000000E-01  8.00000000E-01  8.50000000E-01
  8.50000000E-01  8.50000000E-01  8.00000000E-01  8.50000000E-01  8.50000000E-01
  8.50000000E-01  8.00000000E-01  8.50000000E-01  8.50000000E-01  8.50000000E-01
  8.00000000E-01  8.50000000E-01  8.50000000E-01  8.50000000E-01  8.00000000E-01
  8.50000000E-01  8.50000000E-01  8.50000000E-01  8.00000000E-01  8.50000000E-01
  8.50000000E-01  8.50000000E-01  8.00000000E-01  8.50000000E-01  8.50000000E-01
  8.50000000E-01  8.00000000E-01  8.50000000E-01  8.50000000E-01  8.50000000E-01
  8.00000000E-01  8.50000000E-01  8.50000000E-01  8.50000000E-01  8.00000000E-01
  8.50000000E-01  8.50000000E-01  8.50000000E-01  8.00000000E-01  8.50000000E-01
  8.50000000E-01  8.50000000E-01  8.00000000E-01  8.50000000E-01  8.50000000E-01
  8.50000000E-01  8.00000000E-01  8.50000000E-01  8.50000000E-01  8.50000000E-01
  8.00000000E-01  8.50000000E-01  8.50000000E-01  8.50000000E-01  8.00000000E-01
  8.50000000E-01  8.50000000E-01  8.50000000E-01  8.00000000E-01  8.50000000E-01
  8.50000000E-01  8.50000000E-01  8.00000000E-01  8.50000000E-01  8.50000000E-01
  8.50000000E-01  8.00000000E-01  8.50000000E-01  8.50000000E-01  8.50000000E-01
  8.00000000E-01  8.50000000E-01  8.50000000E-01  8.50000000E-01  8.00000000E-01
  8.50000000E-01  8.50000000E-01  8.50000000E-01  8.00000000E-01  8.50000000E-01
  8.50000000E-01  8.50000000E-01  8.00000000E-01  8.50000000E-01  8.50000000E-01
  8.50000000E-01  8.00000000E-01  8.50000000E-01  8.50000000E-01  8.50000000E-01
  8.00000000E-01  8.50000000E-01  8.50000000E-01  8.50000000E-01  8.00000000E-01
  8.50000000E-01  8.50000000E-01  8.50000000E-01  8.00000000E-01  8.50000000E-01
  8.50000000E-01  8.50000000E-01  8.00000000E-01  8.50000000E-01  8.50000000E-01
  8.50000000E-01  8.00000000E-01  8.50000000E-01  8.50000000E-01  8.50000000E-01
  8.00000000E-01  8.50000000E-01  8.50000000E-01  8.50000000E-01  8.00000000E-01
  8.50000000E-01  8.50000000E-01  8.50000000E-01  8.00000000E-01  8.50000000E-01
  8.50000000E-01  8.50000000E-01  8.00000000E-01  8.50000000E-01  8.50000000E-01
  8.50000000E-01  8.00000000E-01  8.50000000E-01  8.50000000E-01  8.50000000E-01
  8.00000000E-01  8.50000000E-01  8.50000000E-01  8.50000000E-01  8.00000000E-01
  8.50000000E-01  8.50000000E-01  8.50000000E-01  8.00000000E-01  8.50000000E-01
  8.50000000E-01  8.50000000E-01  8.00000000E-01  8.50000000E-01  8.50000000E-01
  8.50000000E-01  8.00000000E-01  8.50000000E-01  8.50000000E-01  8.50000000E-01
  8.00000000E-01  8.50000000E-01  8.50000000E-01  8.50000000E-01  8.00000000E-01
  8.50000000E-01  8.50000000E-01  8.50000000E-01  8.00000000E-01  8.50000000E-01
  8.50000000E-01  8.50000000E-01  8.00000000E-01  8.50000000E-01  8.50000000E-01
  8.50000000E-01  8.00000000E-01  8.50000000E-01  8.50000000E-01  8.50000000E-01
  8.00000000E-01  8.50000000E-01  8.50000000E-01  8.50000000E-01  8.00000000E-01
  8.50000000E-01  8.50000000E-01  8.50000000E-01  8.00000000E-01  8.50000000E-01
  8.50000000E-01  8.50000000E-01  8.00000000E-01  8.50000000E-01  8.50000000E-01
  8.50000000E-01  8.00000000E-01  8.50000000E-01  8.50000000E-01  8.50000000E-01
  8.00000000E-01  8.50000000E-01  8.50000000E-01  8.50000000E-01  8.00000000E-01
  8.50000000E-01  8.50000000E-01  8.50000000E-01  8.00000000E-01  8.50000000E-01
  8.50000000E-01  8.50000000E-01  8.00000000E-01  8.50000000E-01  8.50000000E-01
  8.50000000E-01  8.00000000E-01  8.50000000E-01  8.50000000E-01  8.50000000E-01
  8.00000000E-01  8.50000000E-01  8.50000000E-01  8.50000000E-01  8.00000000E-01
  8.50000000E-01  8.50000000E-01  8.50000000E-01  8.00000000E-01  8.50000000E-01
  8.50000000E-01  8.50000000E-01  8.00000000E-01  8.50000000E-01  8.50000000E-01
  8.50000000E-01  8.00000000E-01  8.50000000E-01  8.50000000E-01  8.50000000E-01
  8.00000000E-01  8.50000000E-01  8.50000000E-01  8.50000000E-01  8.00000000E-01
  8.50000000E-01  8.50000000E-01  8.50000000E-01  8.00000000E-01  8.50000000E-01
  8.50000000E-01  8.50000000E-01  8.00000000E-01  8.50000000E-01  8.50000000E-01
  8.50000000E-01  8.00000000E-01  8.50000000E-01  8.50000000E-01  8.50000000E-01
  8.00000000E-01  8.50000000E-01  8.50000000E-01  8.50000000E-01  8.00000000E-01
  8.50000000E-01  8.50000000E-01  8.50000000E-01  8.00000000E-01  8.50000000E-01
  8.50000000E-01  8.50000000E-01  8.00000000E-01  8.50000000E-01  8.50000000E-01
  8.50000000E-01  8.00000000E-01  8.50000000E-01  8.50000000E-01  8.50000000E-01
  8.00000000E-01  8.50000000E-01  8.50000000E-01  8.50000000E-01  8.00000000E-01
  8.50000000E-01  8.50000000E-01  8.50000000E-01  8.00000000E-01  8.50000000E-01
  8.50000000E-01  8.50000000E-01  8.00000000E-01  8.50000000E-01  8.50000000E-01
  8.50000000E-01  8.00000000E-01  8.50000000E-01  8.50000000E-01  8.50000000E-01
  8.00000000E-01  8.50000000E-01  8.50000000E-01  8.50000000E-01  8.00000000E-01
  8.50000000E-01  8.50000000E-01  8.50000000E-01  8.00000000E-01  8.50000000E-01
  8.50000000E-01  8.50000000E-01  8.00000000E-01  8.50000000E-01  8.50000000E-01
  8.50000000E-01  8.00000000E-01  8.50000000E-01  8.50000000E-01  8.50000000E-01
  8.00000000E-01  8.50000000E-01  8.50000000E-01  8.50000000E-01  8.00000000E-01
  8.50000000E-01  8.50000000E-01  8.50000000E-01  8.00000000E-01  8.50000000E-01
  8.50000000E-01  8.50000000E-01  8.00000000E-01  8.50000000E-01  8.50000000E-01
  8.50000000E-01  8.00000000E-01  8.50000000E-01  8.50000000E-01  8.50000000E-01
  8.00000000E-01  8.50000000E-01  8.50000000E-01  8.50000000E-01  8.00000000E-01
  8.50000000E-01  8.50000000E-01  8.50000000E-01  8.00000000E-01  8.50000000E-01
  8.50000000E-01  8.50000000E-01  8.00000000E-01  8.50000000E-01  8.50000000E-01
  8.50000000E-01  8.00000000E-01  8.50000000E-01  8.50000000E-01  8.50000000E-01
  8.00000000E-01  8.50000000E-01  8.50000000E-01  8.50000000E-01  8.00000000E-01
  8.50000000E-01  8.50000000E-01  8.50000000E-01  8.00000000E-01  8.50000000E-01
  8.50000000E-01  8.50000000E-01  8.00000000E-01  8.50000000E-01  8.50000000E-01
  8.50000000E-01  8.00000000E-01  8.50000000E-01  8.50000000E-01  8.50000000E-01
  8.00000000E-01  8.50000000E-01  8.50000000E-01  8.50000000E-01  8.00000000E-01
  8.50000000E-01  8.50000000E-01  8.50000000E-01  8.00000000E-01  8.50000000E-01
  8.50000000E-01  8.50000000E-01  8.00000000E-01  8.50000000E-01  8.50000000E-01
  8.50000000E-01  8.00000000E-01  8.50000000E-01  8.50000000E-01  8.50000000E-01
  8.00000000E-01  8.50000000E-01  8.50000000E-01  8.50000000E-01  8.00000000E-01
  8.50000000E-01  8.50000000E-01  8.50000000E-01  8.00000000E-01  8.50000000E-01
  8.50000000E-01  8.50000000E-01  8.00000000E-01  8.50000000E-01  8.50000000E-01
  8.50000000E-01  8.00000000E-01  8.50000000E-01  8.50000000E-01  8.50000000E-01
  8.00000000E-01  8.50000000E-01  8.50000000E-01  8.50000000E-01  8.00000000E-01
  8.50000000E-01  8.50000000E-01  8.50000000E-01  8.00000000E-01  8.50000000E-01
  8.50000000E-01  8.50000000E-01  8.00000000E-01  8.50000000E-01  8.50000000E-01
  8.50000000E-01  8.00000000E-01  8.50000000E-01  8.50000000E-01  8.50000000E-01
  8.00000000E-01  8.50000000E-01  8.50000000E-01  8.50000000E-01  8.00000000E-01
  8.50000000E-01  8.50000000E-01  8.50000000E-01  8.00000000E-01  8.50000000E-01
  8.50000000E-01  8.50000000E-01  8.00000000E-01  8.50000000E-01  8.50000000E-01
  8.50000000E-01  8.00000000E-01  8.50000000E-01  8.50000000E-01  8.50000000E-01
  8.00000000E-01  8.50000000E-01  8.50000000E-01  8.50000000E-01  8.00000000E-01
  8.50000000E-01  8.50000000E-01  8.50000000E-01  8.00000000E-01  8.50000000E-01
  8.50000000E-01  8.50000000E-01  8.00000000E-01  8.50000000E-01  8.50000000E-01
  8.50000000E-01  8.00000000E-01  8.50000000E-01  8.50000000E-01  8.50000000E-01
  8.00000000E-01  8.50000000E-01  8.50000000E-01  8.50000000E-01  8.00000000E-01
  8.50000000E-01  8.50000000E-01  8.50000000E-01  8.00000000E-01  8.50000000E-01
  8.50000000E-01  8.50000000E-01  8.00000000E-01  8.50000000E-01  8.50000000E-01
  8.50000000E-01  8.00000000E-01  8.50000000E-01  8.50000000E-01  8.50000000E-01
  8.00000000E-01  8.50000000E-01  8.50000000E-01  8.50000000E-01  8.00000000E-01
  8.50000000E-01  8.50000000E-01  8.50000000E-01  8.00000000E-01  8.50000000E-01
  8.50000000E-01  8.50000000E-01  8.00000000E-01  8.50000000E-01  8.50000000E-01
  8.50000000E-01  8.00000000E-01  8.50000000E-01  8.50000000E-01  8.50000000E-01
  8.00000000E-01  8.50000000E-01  8.50000000E-01  8.50000000E-01  8.00000000E-01
  8.50000000E-01  8.50000000E-01  8.50000000E-01  8.00000000E-01  8.50000000E-01
  8.50000000E-01  8.50000000E-01  8.00000000E-01  8.50000000E-01  8.50000000E-01
  8.50000000E-01  8.00000000E-01  8.50000000E-01  8.50000000E-01  8.50000000E-01
  8.00000000E-01  8.50000000E-01  8.50000000E-01  8.50000000E-01  8.00000000E-01
  8.50000000E-01  8.50000000E-01  8.50000000E-01  8.00000000E-01  8.50000000E-01
  8.50000000E-01  8.50000000E-01  8.00000000E-01  8.50000000E-01  8.50000000E-01
  8.50000000E-01  8.00000000E-01  8.50000000E-01  8.50000000E-01  8.50000000E-01
  8.00000000E-01  8.50000000E-01  8.50000000E-01  8.50000000E-01  8.00000000E-01
  8.50000000E-01  8.50000000E-01  8.50000000E-01  8.00000000E-01  8.50000000E-01
  8.50000000E-01  8.50000000E-01  8.00000000E-01  8.50000000E-01  8.50000000E-01
  8.50000000E-01  8.00000000E-01  8.50000000E-01  8.50000000E-01  8.50000000E-01
  8.00000000E-01  8.50000000E-01  8.50000000E-01  8.50000000E-01  8.00000000E-01
  8.50000000E-01  8.50000000E-01  8.50000000E-01  8.00000000E-01  8.50000000E-01
  8.50000000E-01  8.50000000E-01  8.00000000E-01  8.50000000E-01  8.50000000E-01
  8.50000000E-01  8.00000000E-01  8.50000000E-01  8.50000000E-01  8.50000000E-01
  8.00000000E-01  8.50000000E-01  8.50000000E-01  8.50000000E-01  8.00000000E-01
  8.50000000E-01  8.50000000E-01  8.50000000E-01  8.00000000E-01  8.50000000E-01
  8.50000000E-01  8.50000000E-01  8.00000000E-01  8.50000000E-01  8.50000000E-01
  8.50000000E-01  8.00000000E-01  8.50000000E-01  8.50000000E-01  8.50000000E-01
  8.00000000E-01  8.50000000E-01  8.50000000E-01  8.50000000E-01  8.00000000E-01
  8.50000000E-01  8.50000000E-01  8.50000000E-01  8.00000000E-01  8.50000000E-01
  8.50000000E-01  8.50000000E-01  8.00000000E-01  8.50000000E-01  8.50000000E-01
  8.50000000E-01  8.00000000E-01  8.50000000E-01  8.50000000E-01  8.50000000E-01
  8.00000000E-01  8.50000000E-01  8.50000000E-01  8.50000000E-01  8.00000000E-01
  8.50000000E-01  8.50000000E-01  8.50000000E-01  8.00000000E-01  8.50000000E-01
  8.50000000E-01  8.50000000E-01  8.00000000E-01  8.50000000E-01  8.50000000E-01
  8.50000000E-01  8.00000000E-01  8.50000000E-01  8.50000000E-01  8.50000000E-01
  8.00000000E-01  8.50000000E-01  8.50000000E-01  8.50000000E-01  8.00000000E-01
  8.50000000E-01  8.50000000E-01  8.50000000E-01  8.00000000E-01  8.50000000E-01
  8.50000000E-01  8.50000000E-01  8.00000000E-01  8.50000000E-01  8.50000000E-01
  8.50000000E-01  8.00000000E-01  8.50000000E-01  8.50000000E-01  8.50000000E-01
  8.00000000E-01  8.50000000E-01  8.50000000E-01  8.50000000E-01  8.00000000E-01
  8.50000000E-01  8.50000000E-01  8.50000000E-01  8.00000000E-01  8.50000000E-01
  8.50000000E-01  8.50000000E-01  8.00000000E-01  8.50000000E-01  8.50000000E-01
  8.50000000E-01  8.00000000E-01  8.50000000E-01  8.50000000E-01  8.50000000E-01
  8.00000000E-01  8.50000000E-01  8.50000000E-01  8.50000000E-01  8.00000000E-01
  8.50000000E-01  8.50000000E-01  8.50000000E-01  8.00000000E-01  8.50000000E-01
  8.50000000E-01  8.50000000E-01  8.00000000E-01  8.50000000E-01  8.50000000E-01
  8.50000000E-01  8.00000000E-01  8.50000000E-01  8.50000000E-01  8.50000000E-01
  8.00000000E-01  8.50000000E-01  8.50000000E-01  8.50000000E-01  8.00000000E-01
  8.50000000E-01  8.50000000E-01  8.50000000E-01  8.00000000E-01  8.50000000E-01
  8.50000000E-01  8.50000000E-01  8.00000000E-01  8.50000000E-01  8.50000000E-01
  8.50000000E-01  8.00000000E-01  8.50000000E-01  8.50000000E-01  8.50000000E-01
  8.00000000E-01  8.50000000E-01  8.50000000E-01  8.50000000E-01  8.00000000E-01
  8.50000000E-01  8.50000000E-01  8.50000000E-01  8.00000000E-01  8.50000000E-01
  8.50000000E-01  8.50000000E-01  8.00000000E-01  8.50000000E-01  8.50000000E-01
  8.50000000E-01  8.00000000E-01  8.50000000E-01  8.50000000E-01  8.50000000E-01
  8.00000000E-01  8.50000000E-01  8.50000000E-01  8.50000000E-01  8.00000000E-01
  8.50000000E-01  8.50000000E-01  8.50000000E-01  8.00000000E-01  8.50000000E-01
  8.50000000E-01  8.50000000E-01  8.00000000E-01  8.50000000E-01  8.50000000E-01
  8.50000000E-01  8.00000000E-01  8.50000000E-01  8.50000000E-01  8.50000000E-01
  8.00000000E-01  8.50000000E-01  8.50000000E-01  8.50000000E-01  8.00000000E-01
  8.50000000E-01  8.50000000E-01  8.50000000E-01  8.00000000E-01  8.50000000E-01
  8.50000000E-01  8.50000000E-01  8.00000000E-01  8.50000000E-01  8.50000000E-01
  8.50000000E-01  8.00000000E-01  8.50000000E-01  8.50000000E-01  8.50000000E-01
  8.00000000E-01  8.50000000E-01  8.50000000E-01  8.50000000E-01  8.00000000E-01
  8.50000000E-01  8.50000000E-01  8.50000000E-01  8.00000000E-01  8.50000000E-01
  8.50000000E-01  8.50000000E-01  8.00000000E-01  8.50000000E-01  8.50000000E-01
  8.50000000E-01  8.00000000E-01  8.50000000E-01  8.50000000E-01  8.50000000E-01
  8.00000000E-01  8.50000000E-01  8.50000000E-01  8.50000000E-01  8.00000000E-01
  8.50000000E-01  8.50000000E-01  8.50000000E-01  8.00000000E-01  8.50000000E-01
  8.50000000E-01  8.50000000E-01  8.00000000E-01  8.50000000E-01  8.50000000E-01
  8.50000000E-01  8.00000000E-01  8.50000000E-01  8.50000000E-01  8.50000000E-01
  8.00000000E-01  8.50000000E-01  8.50000000E-01  8.50000000E-01  8.00000000E-01
  8.50000000E-01  8.50000000E-01  8.50000000E-01  8.00000000E-01  8.50000000E-01
  8.50000000E-01  8.50000000E-01  8.00000000E-01  8.50000000E-01  8.50000000E-01
  8.50000000E-01  8.00000000E-01  8.50000000E-01  8.50000000E-01  8.50000000E-01
  8.00000000E-01  8.50000000E-01  8.50000000E-01  8.50000000E-01  8.00000000E-01
  8.50000000E-01  8.50000000E-01  8.50000000E-01  8.00000000E-01  8.50000000E-01
  8.50000000E-01  8.50000000E-01  8.00000000E-01  8.50000000E-01  8.50000000E-01
  8.50000000E-01  8.00000000E-01  8.50000000E-01  8.50000000E-01  8.50000000E-01
  8.00000000E-01  8.50000000E-01  8.50000000E-01  8.50000000E-01  8.00000000E-01
  8.50000000E-01  8.50000000E-01  8.50000000E-01  8.00000000E-01  8.50000000E-01
  8.50000000E-01  8.50000000E-01  8.00000000E-01  8.50000000E-01  8.50000000E-01
  8.50000000E-01  8.00000000E-01  8.50000000E-01  8.50000000E-01  8.50000000E-01
  8.00000000E-01  8.50000000E-01  8.50000000E-01  8.50000000E-01  8.00000000E-01
  8.50000000E-01  8.50000000E-01  8.50000000E-01  8.00000000E-01  8.50000000E-01
  8.50000000E-01  8.50000000E-01  8.00000000E-01  8.50000000E-01  8.50000000E-01
  8.50000000E-01  8.00000000E-01  8.50000000E-01  8.50000000E-01  8.50000000E-01
  8.00000000E-01  8.50000000E-01  8.50000000E-01  8.50000000E-01  8.00000000E-01
  8.50000000E-01  8.50000000E-01  8.50000000E-01  8.00000000E-01  8.50000000E-01
  8.50000000E-01  8.50000000E-01  8.00000000E-01  8.50000000E-01  8.50000000E-01
  8.50000000E-01  8.00000000E-01  8.50000000E-01  8.50000000E-01  8.50000000E-01
  8.00000000E-01  8.50000000E-01  8.50000000E-01  8.50000000E-01  8.00000000E-01
  8.50000000E-01  8.50000000E-01  8.50000000E-01  8.00000000E-01  8.50000000E-01
  8.50000000E-01  8.50000000E-01  8.00000000E-01  8.50000000E-01  8.50000000E-01
  8.50000000E-01  8.00000000E-01  8.50000000E-01  8.50000000E-01  8.50000000E-01
  8.00000000E-01  8.50000000E-01  8.50000000E-01  8.50000000E-01  8.00000000E-01
  8.50000000E-01  8.50000000E-01  8.50000000E-01  8.00000000E-01  8.50000000E-01
  8.50000000E-01  8.50000000E-01  8.00000000E-01  8.50000000E-01  8.50000000E-01
  8.50000000E-01  8.00000000E-01  8.50000000E-01  8.50000000E-01  8.50000000E-01
  8.00000000E-01  8.50000000E-01  8.50000000E-01  8.50000000E-01  8.00000000E-01
  8.50000000E-01  8.50000000E-01  8.50000000E-01  8.00000000E-01  8.50000000E-01
  8.50000000E-01  8.50000000E-01  8.00000000E-01  8.50000000E-01  8.50000000E-01
  8.50000000E-01  8.00000000E-01  8.50000000E-01  8.50000000E-01  8.50000000E-01
  8.00000000E-01  8.50000000E-01  8.50000000E-01  8.50000000E-01  8.00000000E-01
  8.50000000E-01  8.50000000E-01  8.50000000E-01  8.00000000E-01  8.50000000E-01
  8.50000000E-01  8.50000000E-01  8.00000000E-01  8.50000000E-01  8.50000000E-01
  8.50000000E-01  8.00000000E-01  8.50000000E-01  8.50000000E-01  8.50000000E-01
  8.00000000E-01  8.50000000E-01  8.50000000E-01  8.50000000E-01  8.00000000E-01
  8.50000000E-01  8.50000000E-01  8.50000000E-01  8.00000000E-01  8.50000000E-01
  8.50000000E-01  8.50000000E-01  8.00000000E-01  8.50000000E-01  8.50000000E-01
  8.50000000E-01  8.00000000E-01  8.50000000E-01  8.50000000E-01  8.50000000E-01
  8.00000000E-01  8.50000000E-01  8.50000000E-01  8.50000000E-01  8.00000000E-01
  8.50000000E-01  8.50000000E-01  8.50000000E-01  8.00000000E-01  8.50000000E-01
  8.50000000E-01  8.50000000E-01  8.00000000E-01  8.50000000E-01  8.50000000E-01
  8.50000000E-01  8.00000000E-01  8.50000000E-01  8.50000000E-01  8.50000000E-01
  8.00000000E-01  8.50000000E-01  8.50000000E-01  8.50000000E-01  8.00000000E-01
  8.50000000E-01  8.50000000E-01  8.50000000E-01  8.00000000E-01  8.50000000E-01
  8.50000000E-01  8.50000000E-01  8.00000000E-01  8.50000000E-01  8.50000000E-01
  8.50000000E-01  8.00000000E-01  8.50000000E-01  8.50000000E-01  8.50000000E-01
  8.00000000E-01  8.50000000E-01  8.50000000E-01  8.50000000E-01  8.00000000E-01
  8.50000000E-01  8.50000000E-01  8.50000000E-01  8.00000000E-01  8.50000000E-01
  8.50000000E-01  8.50000000E-01  8.00000000E-01  8.50000000E-01  8.50000000E-01
  8.50000000E-01  8.00000000E-01  8.50000000E-01  8.50000000E-01  8.50000000E-01
  8.00000000E-01  8.50000000E-01  8.50000000E-01  8.50000000E-01  8.00000000E-01
  8.50000000E-01  8.50000000E-01  8.50000000E-01  8.00000000E-01  8.50000000E-01
  8.50000000E-01  8.50000000E-01  8.00000000E-01  8.50000000E-01  8.50000000E-01
  8.50000000E-01  8.00000000E-01  8.50000000E-01  8.50000000E-01  8.50000000E-01
  8.00000000E-01  8.50000000E-01  8.50000000E-01  8.50000000E-01  8.00000000E-01
  8.50000000E-01  8.50000000E-01  8.50000000E-01  8.00000000E-01  8.50000000E-01
  8.50000000E-01  8.50000000E-01  8.00000000E-01  8.50000000E-01  8.50000000E-01
  8.50000000E-01  8.00000000E-01  8.50000000E-01  8.50000000E-01  8.50000000E-01
  8.00000000E-01  8.50000000E-01  8.50000000E-01  8.50000000E-01  8.00000000E-01
  8.50000000E-01  8.50000000E-01  8.50000000E-01  8.00000000E-01  8.50000000E-01
  8.50000000E-01  8.50000000E-01  8.00000000E-01  8.50000000E-01  8.50000000E-01
  8.50000000E-01  8.00000000E-01  8.50000000E-01  8.50000000E-01  8.50000000E-01
  8.00000000E-01  8.50000000E-01  8.50000000E-01  8.50000000E-01  8.00000000E-01
  8.50000000E-01  8.50000000E-01  8.50000000E-01  8.00000000E-01  8.50000000E-01
  8.50000000E-01  8.50000000E-01  8.00000000E-01  8.50000000E-01  8.50000000E-01
  8.50000000E-01  8.00000000E-01  8.50000000E-01  8.50000000E-01  8.50000000E-01
  8.00000000E-01  8.50000000E-01  8.50000000E-01  8.50000000E-01  8.00000000E-01
  8.50000000E-01  8.50000000E-01  8.50000000E-01  8.00000000E-01  8.50000000E-01
  8.50000000E-01  8.50000000E-01  8.00000000E-01  8.50000000E-01  8.50000000E-01
  8.50000000E-01  8.00000000E-01  8.50000000E-01  8.50000000E-01  8.50000000E-01
  8.00000000E-01  8.50000000E-01  8.50000000E-01  8.50000000E-01  8.00000000E-01
  8.50000000E-01  8.50000000E-01  8.50000000E-01  8.00000000E-01  8.50000000E-01
  8.50000000E-01  8.50000000E-01  8.00000000E-01  8.50000000E-01  8.50000000E-01
  8.50000000E-01  8.00000000E-01  8.50000000E-01  8.50000000E-01  8.50000000E-01
  8.00000000E-01  8.50000000E-01  8.50000000E-01  8.50000000E-01  8.00000000E-01
  8.50000000E-01  8.50000000E-01  8.50000000E-01  8.00000000E-01  8.50000000E-01
  8.50000000E-01  8.50000000E-01  8.00000000E-01  8.50000000E-01  8.50000000E-01
  8.50000000E-01  8.00000000E-01  8.50000000E-01  8.50000000E-01  8.50000000E-01
  8.00000000E-01  8.50000000E-01  8.50000000E-01  8.50000000E-01  8.00000000E-01
  8.50000000E-01  8.50000000E-01  8.50000000E-01  8.00000000E-01  8.50000000E-01
  8.50000000E-01  8.50000000E-01  8.00000000E-01  8.50000000E-01  8.50000000E-01
  8.50000000E-01  8.00000000E-01  8.50000000E-01  8.50000000E-01  8.50000000E-01
  8.00000000E-01  8.50000000E-01  8.50000000E-01  8.50000000E-01  8.00000000E-01
  8.50000000E-01  8.50000000E-01  8.50000000E-01  8.00000000E-01  8.50000000E-01
  8.50000000E-01  8.50000000E-01  8.00000000E-01  8.50000000E-01  8.50000000E-01
  8.50000000E-01  8.00000000E-01  8.50000000E-01  8.50000000E-01  8.50000000E-01
  8.00000000E-01  8.50000000E-01  8.50000000E-01  8.50000000E-01  8.00000000E-01
  8.50000000E-01  8.50000000E-01  8.50000000E-01  8.00000000E-01  8.50000000E-01
  8.50000000E-01  8.50000000E-01  8.00000000E-01  8.50000000E-01  8.50000000E-01
  8.50000000E-01  8.00000000E-01  8.50000000E-01  8.50000000E-01  8.50000000E-01
  8.00000000E-01  8.50000000E-01  8.50000000E-01  8.50000000E-01  8.00000000E-01
  8.50000000E-01  8.50000000E-01  8.50000000E-01  8.00000000E-01  8.50000000E-01
  8.50000000E-01  8.50000000E-01  8.00000000E-01  8.50000000E-01  8.50000000E-01
  8.50000000E-01  8.00000000E-01  8.50000000E-01  8.50000000E-01  8.50000000E-01
  8.00000000E-01  8.50000000E-01  8.50000000E-01  8.50000000E-01  8.00000000E-01
  8.50000000E-01  8.50000000E-01  8.50000000E-01  8.00000000E-01  8.50000000E-01
  8.50000000E-01  8.50000000E-01  8.00000000E-01  8.50000000E-01  8.50000000E-01
  8.50000000E-01  8.00000000E-01  8.50000000E-01  8.50000000E-01  8.50000000E-01
  8.00000000E-01  8.50000000E-01  8.50000000E-01  8.50000000E-01  8.00000000E-01
  8.50000000E-01  8.50000000E-01  8.50000000E-01  8.00000000E-01  8.50000000E-01
  8.50000000E-01  8.50000000E-01  8.00000000E-01  8.50000000E-01  8.50000000E-01
  8.50000000E-01  8.00000000E-01  8.50000000E-01  8.50000000E-01  8.50000000E-01
  8.00000000E-01  8.50000000E-01  8.50000000E-01  8.50000000E-01  8.00000000E-01
  8.50000000E-01  8.50000000E-01  8.50000000E-01  8.00000000E-01  8.50000000E-01
  8.50000000E-01  8.50000000E-01  8.00000000E-01  8.50000000E-01  8.50000000E-01
  8.50000000E-01  8.00000000E-01  8.50000000E-01  8.50000000E-01  8.50000000E-01
  8.00000000E-01  8.50000000E-01  8.50000000E-01  8.50000000E-01  8.00000000E-01
  8.50000000E-01  8.50000000E-01  8.50000000E-01  8.00000000E-01  8.50000000E-01
  8.50000000E-01  8.50000000E-01  8.00000000E-01  8.50000000E-01  8.50000000E-01
  8.50000000E-01  8.00000000E-01  8.50000000E-01  8.50000000E-01  8.50000000E-01
  8.00000000E-01  8.50000000E-01  8.50000000E-01  8.50000000E-01  8.00000000E-01
  8.50000000E-01  8.50000000E-01  8.50000000E-01  8.00000000E-01  8.50000000E-01
  8.50000000E-01  8.50000000E-01  8.00000000E-01  8.50000000E-01  8.50000000E-01
  8.50000000E-01  8.00000000E-01  8.50000000E-01  8.50000000E-01  8.50000000E-01
  8.00000000E-01  8.50000000E-01  8.50000000E-01  8.50000000E-01  8.00000000E-01
  8.50000000E-01  8.50000000E-01  8.50000000E-01  8.00000000E-01  8.50000000E-01
  8.50000000E-01  8.50000000E-01  8.00000000E-01  8.50000000E-01  8.50000000E-01
  8.50000000E-01  8.00000000E-01  8.50000000E-01  8.50000000E-01  8.50000000E-01
  8.00000000E-01  8.50000000E-01  8.50000000E-01  8.50000000E-01  8.00000000E-01
  8.50000000E-01  8.50000000E-01  8.50000000E-01  8.00000000E-01  8.50000000E-01
  8.50000000E-01  8.50000000E-01  8.00000000E-01  8.50000000E-01  8.50000000E-01
  8.50000000E-01  8.00000000E-01  8.50000000E-01  8.50000000E-01  8.50000000E-01
  8.00000000E-01  8.50000000E-01  8.50000000E-01  8.50000000E-01  8.00000000E-01
  8.50000000E-01  8.50000000E-01  8.50000000E-01  8.00000000E-01  8.50000000E-01
  8.50000000E-01  8.50000000E-01  8.00000000E-01  8.50000000E-01  8.50000000E-01
  8.50000000E-01  8.00000000E-01  8.50000000E-01  8.50000000E-01  8.50000000E-01
  8.00000000E-01  8.50000000E-01  8.50000000E-01  8.50000000E-01  8.00000000E-01
  8.50000000E-01  8.50000000E-01  8.50000000E-01  8.00000000E-01  8.50000000E-01
  8.50000000E-01  8.50000000E-01  8.00000000E-01  8.50000000E-01  8.50000000E-01
  8.50000000E-01  8.00000000E-01  8.50000000E-01  8.50000000E-01  8.50000000E-01
  8.00000000E-01  8.50000000E-01  8.50000000E-01  8.50000000E-01  8.00000000E-01
  8.50000000E-01  8.50000000E-01  8.50000000E-01  8.00000000E-01  8.50000000E-01
  8.50000000E-01  8.50000000E-01  8.00000000E-01  8.50000000E-01  8.50000000E-01
  8.50000000E-01  8.00000000E-01  8.50000000E-01  8.50000000E-01  8.50000000E-01
  8.00000000E-01  8.50000000E-01  8.50000000E-01  8.50000000E-01  8.00000000E-01
  8.50000000E-01  8.50000000E-01  8.50000000E-01  8.00000000E-01  8.50000000E-01
  8.50000000E-01  8.50000000E-01  8.00000000E-01  8.50000000E-01  8.50000000E-01
  8.50000000E-01  8.00000000E-01  8.50000000E-01  8.50000000E-01  8.50000000E-01
  8.00000000E-01  8.50000000E-01  8.50000000E-01  8.50000000E-01  8.00000000E-01
  8.50000000E-01  8.50000000E-01  8.50000000E-01  8.00000000E-01  8.50000000E-01
  8.50000000E-01  8.50000000E-01  8.00000000E-01  8.50000000E-01  8.50000000E-01
  8.50000000E-01  8.00000000E-01  8.50000000E-01  8.50000000E-01  8.50000000E-01
  8.00000000E-01  8.50000000E-01  8.50000000E-01  8.50000000E-01  8.00000000E-01
  8.50000000E-01  8.50000000E-01  8.50000000E-01  8.00000000E-01  8.50000000E-01
  8.50000000E-01  8.50000000E-01  8.00000000E-01  8.50000000E-01  8.50000000E-01
  8.50000000E-01  8.00000000E-01  8.50000000E-01  8.50000000E-01  8.50000000E-01
  8.00000000E-01  8.50000000E-01  8.50000000E-01  8.50000000E-01  8.00000000E-01
  8.50000000E-01  8.50000000E-01  8.50000000E-01  8.00000000E-01  8.50000000E-01
  8.50000000E-01  8.50000000E-01  8.00000000E-01  8.50000000E-01  8.50000000E-01
  8.50000000E-01  8.00000000E-01  8.50000000E-01  8.50000000E-01  8.50000000E-01
  8.00000000E-01  8.50000000E-01  8.50000000E-01  8.50000000E-01  8.00000000E-01
  8.50000000E-01  8.50000000E-01  8.50000000E-01  8.00000000E-01  8.50000000E-01
  8.50000000E-01  8.50000000E-01  8.00000000E-01  8.50000000E-01  8.50000000E-01
  8.50000000E-01  8.00000000E-01  8.50000000E-01  8.50000000E-01  8.50000000E-01
  8.00000000E-01  8.50000000E-01  8.50000000E-01  8.50000000E-01  8.00000000E-01
  8.50000000E-01  8.50000000E-01  8.50000000E-01  8.00000000E-01  8.50000000E-01
  8.50000000E-01  8.50000000E-01  8.00000000E-01  8.50000000E-01  8.50000000E-01
  8.50000000E-01  8.00000000E-01  8.50000000E-01  8.50000000E-01  8.50000000E-01
  8.00000000E-01  8.50000000E-01  8.50000000E-01  8.50000000E-01  8.00000000E-01
  8.50000000E-01  8.50000000E-01  8.50000000E-01  8.00000000E-01  8.50000000E-01
  8.50000000E-01  8.50000000E-01  8.00000000E-01  8.50000000E-01  8.50000000E-01
  8.50000000E-01  8.00000000E-01  8.50000000E-01  8.50000000E-01  8.50000000E-01
  8.00000000E-01  8.50000000E-01  8.50000000E-01  8.50000000E-01  8.00000000E-01
  8.50000000E-01  8.50000000E-01  8.50000000E-01  8.00000000E-01  8.50000000E-01
  8.50000000E-01  8.50000000E-01  8.00000000E-01  8.50000000E-01  8.50000000E-01
  8.50000000E-01  8.00000000E-01  8.50000000E-01  8.50000000E-01  8.50000000E-01
  8.00000000E-01  8.50000000E-01  8.50000000E-01  8.50000000E-01  8.00000000E-01
  8.50000000E-01  8.50000000E-01  8.50000000E-01  8.00000000E-01  8.50000000E-01
  8.50000000E-01  8.50000000E-01  8.00000000E-01  8.50000000E-01  8.50000000E-01
  8.50000000E-01  8.00000000E-01  8.50000000E-01  8.50000000E-01  8.50000000E-01
  8.00000000E-01  8.50000000E-01  8.50000000E-01  8.50000000E-01  8.00000000E-01
  8.50000000E-01  8.50000000E-01  8.50000000E-01  8.00000000E-01  8.50000000E-01
  8.50000000E-01  8.50000000E-01  8.00000000E-01  8.50000000E-01  8.50000000E-01
  8.50000000E-01  8.00000000E-01  8.50000000E-01  8.50000000E-01  8.50000000E-01
  8.00000000E-01  8.50000000E-01  8.50000000E-01  8.50000000E-01  8.00000000E-01
  8.50000000E-01  8.50000000E-01  8.50000000E-01  8.00000000E-01  8.50000000E-01
  8.50000000E-01  8.50000000E-01  8.00000000E-01  8.50000000E-01  8.50000000E-01
  8.50000000E-01  8.00000000E-01  8.50000000E-01  8.50000000E-01  8.50000000E-01
  8.00000000E-01  8.50000000E-01  8.50000000E-01  8.50000000E-01  8.00000000E-01
  8.50000000E-01  8.50000000E-01  8.50000000E-01  8.00000000E-01  8.50000000E-01
  8.50000000E-01  8.50000000E-01  8.00000000E-01  8.50000000E-01  8.50000000E-01
  8.50000000E-01  8.00000000E-01  8.50000000E-01  8.50000000E-01  8.50000000E-01
  8.00000000E-01  8.50000000E-01  8.50000000E-01  8.50000000E-01  8.00000000E-01
  8.50000000E-01  8.50000000E-01  8.50000000E-01  8.00000000E-01  8.50000000E-01
  8.50000000E-01  8.50000000E-01  8.00000000E-01  8.50000000E-01  8.50000000E-01
  8.50000000E-01  8.00000000E-01  8.50000000E-01  8.50000000E-01  8.50000000E-01
  8.00000000E-01  8.50000000E-01  8.50000000E-01  8.50000000E-01  8.00000000E-01
  8.50000000E-01  8.50000000E-01  8.50000000E-01  8.00000000E-01  8.50000000E-01
  8.50000000E-01  8.50000000E-01  8.00000000E-01  8.50000000E-01  8.50000000E-01
  8.50000000E-01  8.00000000E-01  8.50000000E-01  8.50000000E-01  8.50000000E-01
  8.00000000E-01  8.50000000E-01  8.50000000E-01  8.50000000E-01  8.00000000E-01
  8.50000000E-01  8.50000000E-01  8.50000000E-01  8.00000000E-01  8.50000000E-01
  8.50000000E-01  8.50000000E-01  8.00000000E-01  8.50000000E-01  8.50000000E-01
  8.50000000E-01  8.00000000E-01  8.50000000E-01  8.50000000E-01  8.50000000E-01
  8.00000000E-01  8.50000000E-01  8.50000000E-01  8.50000000E-01  8.00000000E-01
  8.50000000E-01  8.50000000E-01  8.50000000E-01  8.00000000E-01  8.50000000E-01
  8.50000000E-01  8.50000000E-01  8.00000000E-01  8.50000000E-01  8.50000000E-01
  8.50000000E-01  8.00000000E-01  8.50000000E-01  8.50000000E-01  8.50000000E-01
  8.00000000E-01  8.50000000E-01  8.50000000E-01  8.50000000E-01  8.00000000E-01
  8.50000000E-01  8.50000000E-01  8.50000000E-01  8.00000000E-01  8.50000000E-01
  8.50000000E-01  8.50000000E-01  8.00000000E-01  8.50000000E-01  8.50000000E-01
  8.50000000E-01  8.00000000E-01  8.50000000E-01  8.50000000E-01  8.50000000E-01
  8.00000000E-01  8.50000000E-01  8.50000000E-01  8.50000000E-01  8.00000000E-01
  8.50000000E-01  8.50000000E-01  8.50000000E-01  8.00000000E-01  8.50000000E-01
  8.50000000E-01  8.50000000E-01  8.00000000E-01  8.50000000E-01  8.50000000E-01
  8.50000000E-01  8.00000000E-01  8.50000000E-01  8.50000000E-01  8.50000000E-01
  8.00000000E-01  8.50000000E-01  8.50000000E-01  8.50000000E-01  8.00000000E-01
  8.50000000E-01  8.50000000E-01  8.50000000E-01  8.00000000E-01  8.50000000E-01
  8.50000000E-01  8.50000000E-01  8.00000000E-01  8.50000000E-01  8.50000000E-01
  8.50000000E-01  8.00000000E-01  8.50000000E-01  8.50000000E-01  8.50000000E-01
  8.00000000E-01  8.50000000E-01  8.50000000E-01  8.50000000E-01  8.00000000E-01
  8.50000000E-01  8.50000000E-01  8.50000000E-01  8.00000000E-01  8.50000000E-01
  8.50000000E-01  8.50000000E-01  8.00000000E-01  8.50000000E-01  8.50000000E-01
  8.50000000E-01  8.00000000E-01  8.50000000E-01  8.50000000E-01  8.50000000E-01
  8.00000000E-01  8.50000000E-01  8.50000000E-01  8.50000000E-01  8.00000000E-01
  8.50000000E-01  8.50000000E-01  8.50000000E-01  8.00000000E-01  8.50000000E-01
  8.50000000E-01  8.50000000E-01  8.00000000E-01  8.50000000E-01  8.50000000E-01
  8.50000000E-01  8.00000000E-01  8.50000000E-01  8.50000000E-01  8.50000000E-01
  8.00000000E-01  8.50000000E-01  8.50000000E-01  8.50000000E-01  8.00000000E-01
  8.50000000E-01  8.50000000E-01  8.50000000E-01  8.00000000E-01  8.50000000E-01
  8.50000000E-01  8.50000000E-01  8.00000000E-01  8.50000000E-01  8.50000000E-01
  8.50000000E-01  8.00000000E-01  8.50000000E-01  8.50000000E-01  8.50000000E-01
  8.00000000E-01  8.50000000E-01  8.50000000E-01  8.50000000E-01  8.00000000E-01
  8.50000000E-01  8.50000000E-01  8.50000000E-01  8.00000000E-01  8.50000000E-01
  8.50000000E-01  8.50000000E-01  8.00000000E-01  8.50000000E-01  8.50000000E-01
  8.50000000E-01  8.00000000E-01  8.50000000E-01  8.50000000E-01  8.50000000E-01
  8.00000000E-01  8.50000000E-01  8.50000000E-01  8.50000000E-01  8.00000000E-01
  8.50000000E-01  8.50000000E-01  8.50000000E-01  8.00000000E-01  8.50000000E-01
  8.50000000E-01  8.50000000E-01  8.00000000E-01  8.50000000E-01  8.50000000E-01
  8.50000000E-01  8.00000000E-01  8.50000000E-01  8.50000000E-01  8.50000000E-01
  8.00000000E-01  8.50000000E-01  8.50000000E-01  8.50000000E-01  8.00000000E-01
  8.50000000E-01  8.50000000E-01  8.50000000E-01  8.00000000E-01  8.50000000E-01
  8.50000000E-01  8.50000000E-01  8.00000000E-01  8.50000000E-01  8.50000000E-01
  8.50000000E-01  8.00000000E-01  8.50000000E-01  8.50000000E-01  8.50000000E-01
  8.00000000E-01  8.50000000E-01  8.50000000E-01  8.50000000E-01  8.00000000E-01
  8.50000000E-01  8.50000000E-01  8.50000000E-01  8.00000000E-01  8.50000000E-01
  8.50000000E-01  8.50000000E-01  8.00000000E-01  8.50000000E-01  8.50000000E-01
  8.50000000E-01  8.00000000E-01  8.50000000E-01  8.50000000E-01  8.50000000E-01
  8.00000000E-01  8.50000000E-01  8.50000000E-01  8.50000000E-01  8.00000000E-01
  8.50000000E-01  8.50000000E-01  8.50000000E-01  8.00000000E-01  8.50000000E-01
  8.50000000E-01  8.50000000E-01  8.00000000E-01  8.50000000E-01  8.50000000E-01
  8.50000000E-01  8.00000000E-01  8.50000000E-01  8.50000000E-01  8.50000000E-01
  8.00000000E-01  8.50000000E-01  8.50000000E-01  8.50000000E-01  8.00000000E-01
  8.50000000E-01  8.50000000E-01  8.50000000E-01  8.00000000E-01  8.50000000E-01
  8.50000000E-01  8.50000000E-01  8.00000000E-01  8.50000000E-01  8.50000000E-01
  8.50000000E-01  8.00000000E-01  8.50000000E-01  8.50000000E-01  8.50000000E-01
  8.00000000E-01  8.50000000E-01  8.50000000E-01  8.50000000E-01  8.00000000E-01
  8.50000000E-01  8.50000000E-01  8.50000000E-01  8.00000000E-01  8.50000000E-01
  8.50000000E-01  8.50000000E-01  8.00000000E-01  8.50000000E-01  8.50000000E-01
  8.50000000E-01  8.00000000E-01  8.50000000E-01  8.50000000E-01  8.50000000E-01
  8.00000000E-01  8.50000000E-01  8.50000000E-01  8.50000000E-01  8.00000000E-01
  8.50000000E-01  8.50000000E-01  8.50000000E-01  8.00000000E-01  8.50000000E-01
  8.50000000E-01  8.50000000E-01  8.00000000E-01  8.50000000E-01  8.50000000E-01
  8.50000000E-01  8.00000000E-01  8.50000000E-01  8.50000000E-01  8.50000000E-01
  8.00000000E-01  8.50000000E-01  8.50000000E-01  8.50000000E-01  8.00000000E-01
  8.50000000E-01  8.50000000E-01  8.50000000E-01  8.00000000E-01  8.50000000E-01
  8.50000000E-01  8.50000000E-01  8.00000000E-01  8.50000000E-01  8.50000000E-01
  8.50000000E-01  8.00000000E-01  8.50000000E-01  8.50000000E-01  8.50000000E-01
  8.00000000E-01  8.50000000E-01  8.50000000E-01  8.50000000E-01  8.00000000E-01
  8.50000000E-01  8.50000000E-01  8.50000000E-01  8.00000000E-01  8.50000000E-01
  8.50000000E-01  8.50000000E-01  8.00000000E-01  8.50000000E-01  8.50000000E-01
  8.50000000E-01  8.00000000E-01  8.50000000E-01  8.50000000E-01  8.50000000E-01
  8.00000000E-01  8.50000000E-01  8.50000000E-01  8.50000000E-01  8.00000000E-01
  8.50000000E-01  8.50000000E-01  8.50000000E-01  8.00000000E-01  8.50000000E-01
  8.50000000E-01  8.50000000E-01  8.00000000E-01  8.50000000E-01  8.50000000E-01
  8.50000000E-01  8.00000000E-01  8.50000000E-01  8.50000000E-01  8.50000000E-01
  8.00000000E-01  8.50000000E-01  8.50000000E-01  8.50000000E-01  8.00000000E-01
  8.50000000E-01  8.50000000E-01  8.50000000E-01  8.00000000E-01  8.50000000E-01
  8.50000000E-01  8.50000000E-01  8.00000000E-01  8.50000000E-01  8.50000000E-01
  8.50000000E-01  8.00000000E-01  8.50000000E-01  8.50000000E-01  8.50000000E-01
  8.00000000E-01  8.50000000E-01  8.50000000E-01  8.50000000E-01  8.00000000E-01
  8.50000000E-01  8.50000000E-01  8.50000000E-01  8.00000000E-01  8.50000000E-01
  8.50000000E-01  8.50000000E-01  8.00000000E-01  8.50000000E-01  8.50000000E-01
  8.50000000E-01  8.00000000E-01  8.50000000E-01  8.50000000E-01  8.50000000E-01
  8.00000000E-01  8.50000000E-01  8.50000000E-01  8.50000000E-01  8.00000000E-01
  8.50000000E-01  8.50000000E-01  8.50000000E-01  8.00000000E-01  8.50000000E-01
  8.50000000E-01  8.50000000E-01  8.00000000E-01  8.50000000E-01  8.50000000E-01
  8.50000000E-01  8.00000000E-01  8.50000000E-01  8.50000000E-01  8.50000000E-01
  8.00000000E-01  8.50000000E-01  8.50000000E-01  8.50000000E-01  8.00000000E-01
  8.50000000E-01  8.50000000E-01  8.50000000E-01  8.00000000E-01  8.50000000E-01
  8.50000000E-01  8.50000000E-01  8.00000000E-01  8.50000000E-01  8.50000000E-01
  8.50000000E-01  8.00000000E-01  8.50000000E-01  8.50000000E-01  8.50000000E-01
  8.00000000E-01  8.50000000E-01  8.50000000E-01  8.50000000E-01  8.00000000E-01
  8.50000000E-01  8.50000000E-01  8.50000000E-01  8.00000000E-01  8.50000000E-01
  8.50000000E-01  8.50000000E-01  8.00000000E-01  8.50000000E-01  8.50000000E-01
  8.50000000E-01  8.00000000E-01  8.50000000E-01  8.50000000E-01  8.50000000E-01
  8.00000000E-01  8.50000000E-01  8.50000000E-01  8.50000000E-01  8.00000000E-01
  8.50000000E-01  8.50000000E-01  8.50000000E-01  8.00000000E-01  8.50000000E-01
  8.50000000E-01  8.50000000E-01  8.00000000E-01  8.50000000E-01  8.50000000E-01
  8.50000000E-01  8.00000000E-01  8.50000000E-01  8.50000000E-01  8.50000000E-01
  8.00000000E-01  8.50000000E-01  8.50000000E-01  8.50000000E-01  8.00000000E-01
  8.50000000E-01  8.50000000E-01  8.50000000E-01  8.00000000E-01  8.50000000E-01
  8.50000000E-01  8.50000000E-01  8.00000000E-01  8.50000000E-01  8.50000000E-01
  8.50000000E-01  8.00000000E-01  8.50000000E-01  8.50000000E-01  8.50000000E-01
  8.00000000E-01  8.50000000E-01  8.50000000E-01  8.50000000E-01  8.00000000E-01
  8.50000000E-01  8.50000000E-01  8.50000000E-01  8.00000000E-01  8.50000000E-01
  8.50000000E-01  8.50000000E-01  8.00000000E-01  8.50000000E-01  8.50000000E-01
  8.50000000E-01  8.00000000E-01  8.50000000E-01  8.50000000E-01  8.50000000E-01
  8.00000000E-01  8.50000000E-01  8.50000000E-01  8.50000000E-01  8.00000000E-01
  8.50000000E-01  8.50000000E-01  8.50000000E-01  8.00000000E-01  8.50000000E-01
  8.50000000E-01  8.50000000E-01  8.00000000E-01  8.50000000E-01  8.50000000E-01
  8.50000000E-01  8.00000000E-01  8.50000000E-01  8.50000000E-01  8.50000000E-01
  8.00000000E-01  8.50000000E-01  8.50000000E-01  8.50000000E-01  8.00000000E-01
  8.50000000E-01  8.50000000E-01  8.50000000E-01  8.00000000E-01  8.50000000E-01
  8.50000000E-01  8.50000000E-01  8.00000000E-01  8.50000000E-01  8.50000000E-01
  8.50000000E-01  8.00000000E-01  8.50000000E-01  8.50000000E-01  8.50000000E-01
  8.00000000E-01  8.50000000E-01  8.50000000E-01  8.50000000E-01  8.00000000E-01
  8.50000000E-01  8.50000000E-01  8.50000000E-01  8.00000000E-01  8.50000000E-01
  8.50000000E-01  8.50000000E-01  8.00000000E-01  8.50000000E-01  8.50000000E-01
  8.50000000E-01  8.00000000E-01  8.50000000E-01  8.50000000E-01  8.50000000E-01
  8.00000000E-01  8.50000000E-01  8.50000000E-01  8.50000000E-01  8.00000000E-01
  8.50000000E-01  8.50000000E-01  8.50000000E-01  8.00000000E-01  8.50000000E-01
  8.50000000E-01  8.50000000E-01  8.00000000E-01  8.50000000E-01  8.50000000E-01
  8.50000000E-01  8.00000000E-01  8.50000000E-01  8.50000000E-01  8.50000000E-01
  8.00000000E-01  8.50000000E-01  8.50000000E-01  8.50000000E-01  8.00000000E-01
  8.50000000E-01  8.50000000E-01  8.50000000E-01  8.00000000E-01  8.50000000E-01
  8.50000000E-01  8.50000000E-01  8.00000000E-01  8.50000000E-01  8.50000000E-01
  8.50000000E-01  8.00000000E-01  8.50000000E-01  8.50000000E-01  8.50000000E-01
  8.00000000E-01  8.50000000E-01  8.50000000E-01  8.50000000E-01  8.00000000E-01
  8.50000000E-01  8.50000000E-01  8.50000000E-01  8.00000000E-01  8.50000000E-01
  8.50000000E-01  8.50000000E-01  8.00000000E-01  8.50000000E-01  8.50000000E-01
  8.50000000E-01  8.00000000E-01  8.50000000E-01  8.50000000E-01  8.50000000E-01
  8.00000000E-01  8.50000000E-01  8.50000000E-01  8.50000000E-01  8.00000000E-01
  8.50000000E-01  8.50000000E-01  8.50000000E-01  8.00000000E-01  8.50000000E-01
  8.50000000E-01  8.50000000E-01  8.00000000E-01  8.50000000E-01  8.50000000E-01
  8.50000000E-01  8.00000000E-01  8.50000000E-01  8.50000000E-01  8.50000000E-01
  8.00000000E-01  8.50000000E-01  8.50000000E-01  8.50000000E-01  8.00000000E-01
  8.50000000E-01  8.50000000E-01  8.50000000E-01  8.00000000E-01  8.50000000E-01
  8.50000000E-01  8.50000000E-01  8.00000000E-01  8.50000000E-01  8.50000000E-01
  8.50000000E-01  8.00000000E-01  8.50000000E-01  8.50000000E-01  8.50000000E-01
  8.00000000E-01  8.50000000E-01  8.50000000E-01  8.50000000E-01  8.00000000E-01
  8.50000000E-01  8.50000000E-01  8.50000000E-01  8.00000000E-01  8.50000000E-01
  8.50000000E-01  8.50000000E-01  8.00000000E-01  8.50000000E-01  8.50000000E-01
  8.50000000E-01  8.00000000E-01  8.50000000E-01  8.50000000E-01  8.50000000E-01
  8.00000000E-01  8.50000000E-01  8.50000000E-01  8.50000000E-01  8.00000000E-01
  8.50000000E-01  8.50000000E-01  8.50000000E-01  8.00000000E-01  8.50000000E-01
  8.50000000E-01  8.50000000E-01  8.00000000E-01  8.50000000E-01  8.50000000E-01
  8.50000000E-01  8.00000000E-01  8.50000000E-01  8.50000000E-01  8.50000000E-01
  8.00000000E-01  8.50000000E-01  8.50000000E-01  8.50000000E-01  8.00000000E-01
  8.50000000E-01  8.50000000E-01  8.50000000E-01  8.00000000E-01  8.50000000E-01
  8.50000000E-01  8.50000000E-01  8.00000000E-01  8.50000000E-01  8.50000000E-01
  8.50000000E-01  8.00000000E-01  8.50000000E-01  8.50000000E-01  8.50000000E-01
  8.00000000E-01  8.50000000E-01  8.50000000E-01  8.50000000E-01  8.00000000E-01
  8.50000000E-01  8.50000000E-01  8.50000000E-01  8.00000000E-01  8.50000000E-01
  8.50000000E-01  8.50000000E-01  8.00000000E-01  8.50000000E-01  8.50000000E-01
  8.50000000E-01  8.00000000E-01  8.50000000E-01  8.50000000E-01  8.50000000E-01
  8.00000000E-01  8.50000000E-01  8.50000000E-01  8.50000000E-01  8.00000000E-01
  8.50000000E-01  8.50000000E-01  8.50000000E-01  8.00000000E-01  8.50000000E-01
  8.50000000E-01  8.50000000E-01  8.00000000E-01  8.50000000E-01  8.50000000E-01
  8.50000000E-01  8.00000000E-01  8.50000000E-01  8.50000000E-01  8.50000000E-01
  8.00000000E-01  8.50000000E-01  8.50000000E-01  8.50000000E-01  8.00000000E-01
  8.50000000E-01  8.50000000E-01  8.50000000E-01  8.00000000E-01  8.50000000E-01
  8.50000000E-01  8.50000000E-01  8.00000000E-01  8.50000000E-01  8.50000000E-01
  8.50000000E-01  8.00000000E-01  8.50000000E-01  8.50000000E-01  8.50000000E-01
  8.00000000E-01  8.50000000E-01  8.50000000E-01  8.50000000E-01  8.00000000E-01
  8.50000000E-01  8.50000000E-01  8.50000000E-01  8.00000000E-01  8.50000000E-01
  8.50000000E-01  8.50000000E-01  8.00000000E-01  8.50000000E-01  8.50000000E-01
  8.50000000E-01  8.00000000E-01  8.50000000E-01  8.50000000E-01  8.50000000E-01
  8.00000000E-01  8.50000000E-01  8.50000000E-01  8.50000000E-01  8.00000000E-01
  8.50000000E-01  8.50000000E-01  8.50000000E-01  8.00000000E-01  8.50000000E-01
  8.50000000E-01  8.50000000E-01  8.00000000E-01  8.50000000E-01  8.50000000E-01
  8.50000000E-01  8.00000000E-01  8.50000000E-01  8.50000000E-01  8.50000000E-01
  8.00000000E-01  8.50000000E-01  8.50000000E-01  8.50000000E-01  8.00000000E-01
  8.50000000E-01  8.50000000E-01  8.50000000E-01  8.00000000E-01  8.50000000E-01
  8.50000000E-01  8.50000000E-01  8.00000000E-01  8.50000000E-01  8.50000000E-01
  8.50000000E-01  8.00000000E-01  8.50000000E-01  8.50000000E-01  8.50000000E-01
  8.00000000E-01  8.50000000E-01  8.50000000E-01  8.50000000E-01  8.00000000E-01
  8.50000000E-01  8.50000000E-01  8.50000000E-01  8.00000000E-01  8.50000000E-01
  8.50000000E-01  8.50000000E-01  8.00000000E-01  8.50000000E-01  8.50000000E-01
  8.50000000E-01  8.00000000E-01  8.50000000E-01  8.50000000E-01  8.50000000E-01
  8.00000000E-01  8.50000000E-01  8.50000000E-01  8.50000000E-01  8.00000000E-01
  8.50000000E-01  8.50000000E-01  8.50000000E-01  8.00000000E-01  8.50000000E-01
  8.50000000E-01  8.50000000E-01  8.00000000E-01  8.50000000E-01  8.50000000E-01
  8.50000000E-01  8.00000000E-01  8.50000000E-01  8.50000000E-01  8.50000000E-01
  8.00000000E-01  8.50000000E-01  8.50000000E-01  8.50000000E-01  8.00000000E-01
  8.50000000E-01  8.50000000E-01  8.50000000E-01  8.00000000E-01  8.50000000E-01
  8.50000000E-01  8.50000000E-01  8.00000000E-01  8.50000000E-01  8.50000000E-01
  8.50000000E-01  8.00000000E-01  8.50000000E-01  8.50000000E-01  8.50000000E-01
  8.00000000E-01  8.50000000E-01  8.50000000E-01  8.50000000E-01  8.00000000E-01
  8.50000000E-01  8.50000000E-01  8.50000000E-01  8.00000000E-01  8.50000000E-01
  8.50000000E-01  8.50000000E-01  8.00000000E-01  8.50000000E-01  8.50000000E-01
  8.50000000E-01  8.00000000E-01  8.50000000E-01  8.50000000E-01  8.50000000E-01
  8.00000000E-01  8.50000000E-01  8.50000000E-01  8.50000000E-01  8.00000000E-01
  8.50000000E-01  8.50000000E-01  8.50000000E-01  8.00000000E-01  8.50000000E-01
  8.50000000E-01  8.50000000E-01  8.00000000E-01  8.50000000E-01  8.50000000E-01
  8.50000000E-01  8.00000000E-01  8.50000000E-01  8.50000000E-01  8.50000000E-01
  8.00000000E-01  8.50000000E-01  8.50000000E-01  8.50000000E-01  8.00000000E-01
  8.50000000E-01  8.50000000E-01  8.50000000E-01  8.00000000E-01  8.50000000E-01
  8.50000000E-01  8.50000000E-01  8.00000000E-01  8.50000000E-01  8.50000000E-01
  8.50000000E-01  8.00000000E-01  8.50000000E-01  8.50000000E-01  8.50000000E-01
  8.00000000E-01  8.50000000E-01  8.50000000E-01  8.50000000E-01  8.00000000E-01
  8.50000000E-01  8.50000000E-01  8.50000000E-01  8.00000000E-01  8.50000000E-01
  8.50000000E-01  8.50000000E-01  8.00000000E-01  8.50000000E-01  8.50000000E-01
  8.50000000E-01  8.00000000E-01  8.50000000E-01  8.50000000E-01  8.50000000E-01
  8.00000000E-01  8.50000000E-01  8.50000000E-01  8.50000000E-01  8.00000000E-01
  8.50000000E-01  8.50000000E-01  8.50000000E-01  8.00000000E-01  8.50000000E-01
  8.50000000E-01  8.50000000E-01  8.00000000E-01  8.50000000E-01  8.50000000E-01
  8.50000000E-01  8.00000000E-01  8.50000000E-01  8.50000000E-01  8.50000000E-01
  8.00000000E-01  8.50000000E-01  8.50000000E-01  8.50000000E-01  8.00000000E-01
  8.50000000E-01  8.50000000E-01  8.50000000E-01  8.00000000E-01  8.50000000E-01
  8.50000000E-01  8.50000000E-01  8.00000000E-01  8.50000000E-01  8.50000000E-01
  8.50000000E-01  8.00000000E-01  8.50000000E-01  8.50000000E-01  8.50000000E-01
  8.00000000E-01  8.50000000E-01  8.50000000E-01  8.50000000E-01  8.00000000E-01
  8.50000000E-01  8.50000000E-01  8.50000000E-01  8.00000000E-01  8.50000000E-01
  8.50000000E-01  8.50000000E-01  8.00000000E-01  8.50000000E-01  8.50000000E-01
  8.50000000E-01  8.00000000E-01  8.50000000E-01  8.50000000E-01  8.50000000E-01
  8.00000000E-01  8.50000000E-01  8.50000000E-01  8.50000000E-01  8.00000000E-01
  8.50000000E-01  8.50000000E-01  8.50000000E-01  8.00000000E-01  8.50000000E-01
  8.50000000E-01  8.50000000E-01  8.00000000E-01  8.50000000E-01  8.50000000E-01
  8.50000000E-01  8.00000000E-01  8.50000000E-01  8.50000000E-01  8.50000000E-01
  8.00000000E-01  8.50000000E-01  8.50000000E-01  8.50000000E-01  8.00000000E-01
  8.50000000E-01  8.50000000E-01  8.50000000E-01  8.00000000E-01  8.50000000E-01
  8.50000000E-01  8.50000000E-01  8.00000000E-01  8.50000000E-01  8.50000000E-01
  8.50000000E-01  8.00000000E-01  8.50000000E-01  8.50000000E-01  8.50000000E-01
  8.00000000E-01  8.50000000E-01  8.50000000E-01  8.50000000E-01  8.00000000E-01
  8.50000000E-01  8.50000000E-01  8.50000000E-01  8.00000000E-01  8.50000000E-01
  8.50000000E-01  8.50000000E-01  8.00000000E-01  8.50000000E-01  8.50000000E-01
  8.50000000E-01  8.00000000E-01  8.50000000E-01  8.50000000E-01  8.50000000E-01
  8.00000000E-01  8.50000000E-01  8.50000000E-01  8.50000000E-01  8.00000000E-01
  8.50000000E-01  8.50000000E-01  8.50000000E-01  8.00000000E-01  8.50000000E-01
  8.50000000E-01  8.50000000E-01  8.00000000E-01  8.50000000E-01  8.50000000E-01
  8.50000000E-01  8.00000000E-01  8.50000000E-01  8.50000000E-01  8.50000000E-01
  8.00000000E-01  8.50000000E-01  8.50000000E-01  8.50000000E-01  8.00000000E-01
  8.50000000E-01  8.50000000E-01  8.50000000E-01  8.00000000E-01  8.50000000E-01
  8.50000000E-01  8.50000000E-01  8.00000000E-01  8.50000000E-01  8.50000000E-01
  8.50000000E-01  8.00000000E-01  8.50000000E-01  8.50000000E-01  8.50000000E-01
  8.00000000E-01  8.50000000E-01  8.50000000E-01  8.50000000E-01  8.00000000E-01
  8.50000000E-01  8.50000000E-01  8.50000000E-01  8.00000000E-01  8.50000000E-01
  8.50000000E-01  8.50000000E-01  8.00000000E-01  8.50000000E-01  8.50000000E-01
  8.50000000E-01  8.00000000E-01  8.50000000E-01  8.50000000E-01  8.50000000E-01
  8.00000000E-01  8.50000000E-01  8.50000000E-01  8.50000000E-01  8.00000000E-01
  8.50000000E-01  8.50000000E-01  8.50000000E-01  8.00000000E-01  8.50000000E-01
  8.50000000E-01  8.50000000E-01  8.00000000E-01  8.50000000E-01  8.50000000E-01
  8.50000000E-01  8.00000000E-01  8.50000000E-01  8.50000000E-01  8.50000000E-01
  8.00000000E-01  8.50000000E-01  8.50000000E-01  8.50000000E-01  8.00000000E-01
  8.50000000E-01  8.50000000E-01  8.50000000E-01  8.00000000E-01  8.50000000E-01
  8.50000000E-01  8.50000000E-01  8.00000000E-01  8.50000000E-01  8.50000000E-01
  8.50000000E-01  8.00000000E-01  8.50000000E-01  8.50000000E-01  8.50000000E-01
  8.00000000E-01  8.50000000E-01  8.50000000E-01  8.50000000E-01  8.00000000E-01
  8.50000000E-01  8.50000000E-01  8.50000000E-01  8.00000000E-01  8.50000000E-01
  8.50000000E-01  8.50000000E-01  8.00000000E-01  8.50000000E-01  8.50000000E-01
  8.50000000E-01  8.00000000E-01  8.50000000E-01  8.50000000E-01  8.50000000E-01
  8.00000000E-01  8.50000000E-01  8.50000000E-01  8.50000000E-01  8.00000000E-01
  8.50000000E-01  8.50000000E-01  8.50000000E-01  8.00000000E-01  8.50000000E-01
  8.50000000E-01  8.50000000E-01  8.00000000E-01  8.50000000E-01  8.50000000E-01
  8.50000000E-01  8.00000000E-01  8.50000000E-01  8.50000000E-01  8.50000000E-01
  8.00000000E-01  8.50000000E-01  8.50000000E-01  8.50000000E-01  8.00000000E-01
  8.50000000E-01  8.50000000E-01  8.50000000E-01  8.00000000E-01  8.50000000E-01
  8.50000000E-01  8.50000000E-01  8.00000000E-01  8.50000000E-01  8.50000000E-01
  8.50000000E-01  8.00000000E-01  8.50000000E-01  8.50000000E-01  8.50000000E-01
  8.00000000E-01  8.50000000E-01  8.50000000E-01  8.50000000E-01  8.00000000E-01
  8.50000000E-01  8.50000000E-01  8.50000000E-01  8.00000000E-01  8.50000000E-01
  8.50000000E-01  8.50000000E-01  8.00000000E-01  8.50000000E-01  8.50000000E-01
  8.50000000E-01  8.00000000E-01  8.50000000E-01  8.50000000E-01  8.50000000E-01
  8.00000000E-01  8.50000000E-01  8.50000000E-01  8.50000000E-01  8.00000000E-01
  8.50000000E-01  8.50000000E-01  8.50000000E-01  8.00000000E-01  8.50000000E-01
  8.50000000E-01  8.50000000E-01  8.00000000E-01  8.50000000E-01  8.50000000E-01
  8.50000000E-01  8.00000000E-01  8.50000000E-01  8.50000000E-01  8.50000000E-01
  8.00000000E-01  8.50000000E-01  8.50000000E-01  8.50000000E-01  8.00000000E-01
  8.50000000E-01  8.50000000E-01  8.50000000E-01  8.00000000E-01  8.50000000E-01
  8.50000000E-01  8.50000000E-01  8.00000000E-01  8.50000000E-01  8.50000000E-01
  8.50000000E-01  8.00000000E-01  8.50000000E-01  8.50000000E-01  8.50000000E-01
  8.00000000E-01  8.50000000E-01  8.50000000E-01  8.50000000E-01  8.00000000E-01
  8.50000000E-01  8.50000000E-01  8.50000000E-01  8.00000000E-01  8.50000000E-01
  8.50000000E-01  8.50000000E-01  8.00000000E-01  8.50000000E-01  8.50000000E-01
  8.50000000E-01  8.00000000E-01  8.50000000E-01  8.50000000E-01  8.50000000E-01
  8.00000000E-01  8.50000000E-01  8.50000000E-01  8.50000000E-01  8.00000000E-01
  8.50000000E-01  8.50000000E-01  8.50000000E-01  8.00000000E-01  8.50000000E-01
  8.50000000E-01  8.50000000E-01  8.00000000E-01  8.50000000E-01  8.50000000E-01
  8.50000000E-01  8.00000000E-01  8.50000000E-01  8.50000000E-01  8.50000000E-01
  8.00000000E-01  8.50000000E-01  8.50000000E-01  8.50000000E-01  8.00000000E-01
  8.50000000E-01  8.50000000E-01  8.50000000E-01  8.00000000E-01  8.50000000E-01
  8.50000000E-01  8.50000000E-01  8.00000000E-01  8.50000000E-01  8.50000000E-01
  8.50000000E-01  8.00000000E-01  8.50000000E-01  8.50000000E-01  8.50000000E-01
  8.00000000E-01  8.50000000E-01  8.50000000E-01  8.50000000E-01  8.00000000E-01
  8.50000000E-01  8.50000000E-01  8.50000000E-01  8.00000000E-01  8.50000000E-01
  8.50000000E-01  8.50000000E-01  8.00000000E-01  8.50000000E-01  8.50000000E-01
  8.50000000E-01  8.00000000E-01  8.50000000E-01  8.50000000E-01  8.50000000E-01
  8.00000000E-01  8.50000000E-01  8.50000000E-01  8.50000000E-01  8.00000000E-01
  8.50000000E-01  8.50000000E-01  8.50000000E-01  8.00000000E-01  8.50000000E-01
  8.50000000E-01  8.50000000E-01  8.00000000E-01  8.50000000E-01  8.50000000E-01
  8.50000000E-01  8.00000000E-01  8.50000000E-01  8.50000000E-01  8.50000000E-01
  8.00000000E-01  8.50000000E-01  8.50000000E-01  8.50000000E-01  8.00000000E-01
  8.50000000E-01  8.50000000E-01  8.50000000E-01  8.00000000E-01  8.50000000E-01
  8.50000000E-01  8.50000000E-01  8.00000000E-01  8.50000000E-01  8.50000000E-01
  8.50000000E-01  8.00000000E-01  8.50000000E-01  8.50000000E-01  8.50000000E-01
  8.00000000E-01  8.50000000E-01  8.50000000E-01  8.50000000E-01  8.00000000E-01
  8.50000000E-01  8.50000000E-01  8.50000000E-01  8.00000000E-01  8.50000000E-01
  8.50000000E-01  8.50000000E-01  8.00000000E-01  8.50000000E-01  8.50000000E-01
  8.50000000E-01  8.00000000E-01  8.50000000E-01  8.50000000E-01  8.50000000E-01
  8.00000000E-01  8.50000000E-01  8.50000000E-01  8.50000000E-01  8.00000000E-01
  8.50000000E-01  8.50000000E-01  8.50000000E-01  8.00000000E-01  8.50000000E-01
  8.50000000E-01  8.50000000E-01  8.00000000E-01  8.50000000E-01  8.50000000E-01
  8.50000000E-01  8.00000000E-01  8.50000000E-01  8.50000000E-01  8.50000000E-01
  8.00000000E-01  8.50000000E-01  8.50000000E-01  8.50000000E-01  8.00000000E-01
  8.50000000E-01  8.50000000E-01  8.50000000E-01  8.00000000E-01  8.50000000E-01
  8.50000000E-01  8.50000000E-01  8.00000000E-01  8.50000000E-01  8.50000000E-01
  8.50000000E-01  8.00000000E-01  8.50000000E-01  8.50000000E-01  8.50000000E-01
  8.00000000E-01  8.50000000E-01  8.50000000E-01  8.50000000E-01  8.00000000E-01
  8.50000000E-01  8.50000000E-01  8.50000000E-01  8.00000000E-01  8.50000000E-01
  8.50000000E-01  8.50000000E-01  8.00000000E-01  8.50000000E-01  8.50000000E-01
  8.50000000E-01  8.00000000E-01  8.50000000E-01  8.50000000E-01  8.50000000E-01
  8.00000000E-01  8.50000000E-01  8.50000000E-01  8.50000000E-01  8.00000000E-01
  8.50000000E-01  8.50000000E-01  8.50000000E-01  8.00000000E-01  8.50000000E-01
  8.50000000E-01  8.50000000E-01  8.00000000E-01  8.50000000E-01  8.50000000E-01
  8.50000000E-01  8.00000000E-01  8.50000000E-01  8.50000000E-01  8.50000000E-01
  8.00000000E-01  8.50000000E-01  8.50000000E-01  8.50000000E-01  8.00000000E-01
  8.50000000E-01  8.50000000E-01  8.50000000E-01  8.00000000E-01  8.50000000E-01
  8.50000000E-01  8.50000000E-01  8.00000000E-01  8.50000000E-01  8.50000000E-01
  8.50000000E-01  8.00000000E-01  8.50000000E-01  8.50000000E-01  8.50000000E-01
  8.00000000E-01  8.50000000E-01  8.50000000E-01  8.50000000E-01  8.00000000E-01
  8.50000000E-01  8.50000000E-01  8.50000000E-01  8.00000000E-01  8.50000000E-01
  8.50000000E-01  8.50000000E-01  8.00000000E-01  8.50000000E-01  8.50000000E-01
  8.50000000E-01  8.00000000E-01  8.50000000E-01  8.50000000E-01  8.50000000E-01
  8.00000000E-01  8.50000000E-01  8.50000000E-01  8.50000000E-01  8.00000000E-01
  8.50000000E-01  8.50000000E-01  8.50000000E-01  8.00000000E-01  8.50000000E-01
  8.50000000E-01  8.50000000E-01  8.00000000E-01  8.50000000E-01  8.50000000E-01
  8.50000000E-01  8.00000000E-01  8.50000000E-01  8.50000000E-01  8.50000000E-01
  8.00000000E-01  8.50000000E-01  8.50000000E-01  8.50000000E-01  8.00000000E-01
  8.50000000E-01  8.50000000E-01  8.50000000E-01  8.00000000E-01  8.50000000E-01
  8.50000000E-01  8.50000000E-01  8.00000000E-01  8.50000000E-01  8.50000000E-01
  8.50000000E-01  8.00000000E-01  8.50000000E-01  8.50000000E-01  8.50000000E-01
  8.00000000E-01  8.50000000E-01  8.50000000E-01  8.50000000E-01  8.00000000E-01
  8.50000000E-01  8.50000000E-01  8.50000000E-01  8.00000000E-01  8.50000000E-01
  8.50000000E-01  8.50000000E-01  8.00000000E-01  8.50000000E-01  8.50000000E-01
  8.50000000E-01  8.00000000E-01  8.50000000E-01  8.50000000E-01  8.50000000E-01
  8.00000000E-01  8.50000000E-01  8.50000000E-01  8.50000000E-01  8.00000000E-01
  8.50000000E-01  8.50000000E-01  8.50000000E-01  8.00000000E-01  8.50000000E-01
  8.50000000E-01  8.50000000E-01  8.00000000E-01  8.50000000E-01  8.50000000E-01
  8.50000000E-01  8.00000000E-01  8.50000000E-01  8.50000000E-01  8.50000000E-01
  8.00000000E-01  8.50000000E-01  8.50000000E-01  8.50000000E-01  8.00000000E-01
  8.50000000E-01  8.50000000E-01  8.50000000E-01  8.00000000E-01  8.50000000E-01
  8.50000000E-01  8.50000000E-01  8.00000000E-01  8.50000000E-01  8.50000000E-01
  8.50000000E-01  8.00000000E-01  8.50000000E-01  8.50000000E-01  8.50000000E-01
  8.00000000E-01  8.50000000E-01  8.50000000E-01  8.50000000E-01  8.00000000E-01
  8.50000000E-01  8.50000000E-01  8.50000000E-01  8.00000000E-01  8.50000000E-01
  8.50000000E-01  8.50000000E-01  8.00000000E-01  8.50000000E-01  8.50000000E-01
  8.50000000E-01  8.00000000E-01  8.50000000E-01  8.50000000E-01  8.50000000E-01
  8.00000000E-01  8.50000000E-01  8.50000000E-01  8.50000000E-01  8.00000000E-01
  8.50000000E-01  8.50000000E-01  8.50000000E-01  8.00000000E-01  8.50000000E-01
  8.50000000E-01  8.50000000E-01  8.00000000E-01  8.50000000E-01  8.50000000E-01
  8.50000000E-01  8.00000000E-01  8.50000000E-01  8.50000000E-01  8.50000000E-01
  8.00000000E-01  8.50000000E-01  8.50000000E-01  8.50000000E-01  8.00000000E-01
  8.50000000E-01  8.50000000E-01  8.50000000E-01  8.00000000E-01  8.50000000E-01
  8.50000000E-01  8.50000000E-01  8.00000000E-01  8.50000000E-01  8.50000000E-01
  8.50000000E-01  8.00000000E-01  8.50000000E-01  8.50000000E-01  8.50000000E-01
  8.00000000E-01  8.50000000E-01  8.50000000E-01  8.50000000E-01  8.00000000E-01
  8.50000000E-01  8.50000000E-01  8.50000000E-01  8.00000000E-01  8.50000000E-01
  8.50000000E-01  8.50000000E-01  8.00000000E-01  8.50000000E-01  8.50000000E-01
  8.50000000E-01  8.00000000E-01  8.50000000E-01  8.50000000E-01  8.50000000E-01
  8.00000000E-01  8.50000000E-01  8.50000000E-01  8.50000000E-01  8.00000000E-01
  8.50000000E-01  8.50000000E-01  8.50000000E-01  8.00000000E-01  8.50000000E-01
  8.50000000E-01  8.50000000E-01  8.00000000E-01  8.50000000E-01  8.50000000E-01
  8.50000000E-01  8.00000000E-01  8.50000000E-01  8.50000000E-01  8.50000000E-01
  8.00000000E-01  8.50000000E-01  8.50000000E-01  8.50000000E-01  8.00000000E-01
  8.50000000E-01  8.50000000E-01  8.50000000E-01  8.00000000E-01  8.50000000E-01
  8.50000000E-01  8.50000000E-01  8.00000000E-01  8.50000000E-01  8.50000000E-01
  8.50000000E-01  8.00000000E-01  8.50000000E-01  8.50000000E-01  8.50000000E-01
  8.00000000E-01  8.50000000E-01  8.50000000E-01  8.50000000E-01  8.00000000E-01
  8.50000000E-01  8.50000000E-01  8.50000000E-01  8.00000000E-01  8.50000000E-01
  8.50000000E-01  8.50000000E-01  8.00000000E-01  8.50000000E-01  8.50000000E-01
  8.50000000E-01  8.00000000E-01  8.50000000E-01  8.50000000E-01  8.50000000E-01
  8.00000000E-01  8.50000000E-01  8.50000000E-01  8.50000000E-01  8.00000000E-01
  8.50000000E-01  8.50000000E-01  8.50000000E-01  8.00000000E-01  8.50000000E-01
  8.50000000E-01  8.50000000E-01  8.00000000E-01  8.50000000E-01  8.50000000E-01
  8.50000000E-01  8.00000000E-01  8.50000000E-01  8.50000000E-01  8.50000000E-01
  8.00000000E-01  8.50000000E-01  8.50000000E-01  8.50000000E-01  8.00000000E-01
  8.50000000E-01  8.50000000E-01  8.50000000E-01  8.00000000E-01  8.50000000E-01
  8.50000000E-01  8.50000000E-01  8.00000000E-01  8.50000000E-01  8.50000000E-01
  8.50000000E-01  8.00000000E-01  8.50000000E-01  8.50000000E-01  8.50000000E-01
  8.00000000E-01  8.50000000E-01  8.50000000E-01  8.50000000E-01  8.00000000E-01
  8.50000000E-01  8.50000000E-01  8.50000000E-01  8.00000000E-01  8.50000000E-01
  8.50000000E-01  8.50000000E-01  8.00000000E-01  8.50000000E-01  8.50000000E-01
  8.50000000E-01  8.00000000E-01  8.50000000E-01  8.50000000E-01  8.50000000E-01
  8.00000000E-01  8.50000000E-01  8.50000000E-01  8.50000000E-01  8.00000000E-01
  8.50000000E-01  8.50000000E-01  8.50000000E-01  8.00000000E-01  8.50000000E-01
  8.50000000E-01  8.50000000E-01  8.00000000E-01  8.50000000E-01  8.50000000E-01
  8.50000000E-01  8.00000000E-01  8.50000000E-01  8.50000000E-01  8.50000000E-01
  8.00000000E-01  8.50000000E-01  8.50000000E-01  8.50000000E-01  8.00000000E-01
  8.50000000E-01  8.50000000E-01  8.50000000E-01  8.00000000E-01  8.50000000E-01
  8.50000000E-01  8.50000000E-01  8.00000000E-01  8.50000000E-01  8.50000000E-01
  8.50000000E-01  8.00000000E-01  8.50000000E-01  8.50000000E-01  8.50000000E-01
  8.00000000E-01  8.50000000E-01  8.50000000E-01  8.50000000E-01  8.00000000E-01
  8.50000000E-01  8.50000000E-01  8.50000000E-01  8.00000000E-01  8.50000000E-01
  8.50000000E-01  8.50000000E-01  8.00000000E-01  8.50000000E-01  8.50000000E-01
  8.50000000E-01  8.00000000E-01  8.50000000E-01  8.50000000E-01  8.50000000E-01
  8.00000000E-01  8.50000000E-01  8.50000000E-01  8.50000000E-01  8.00000000E-01
  8.50000000E-01  8.50000000E-01  8.50000000E-01  8.00000000E-01  8.50000000E-01
  8.50000000E-01  8.50000000E-01  8.00000000E-01  8.50000000E-01  8.50000000E-01
  8.50000000E-01  8.00000000E-01  8.50000000E-01  8.50000000E-01  8.50000000E-01
  8.00000000E-01  8.50000000E-01  8.50000000E-01  8.50000000E-01  8.00000000E-01
  8.50000000E-01  8.50000000E-01  8.50000000E-01  8.00000000E-01  8.50000000E-01
  8.50000000E-01  8.50000000E-01  8.00000000E-01  8.50000000E-01  8.50000000E-01
  8.50000000E-01  8.00000000E-01  8.50000000E-01  8.50000000E-01  8.50000000E-01
  8.00000000E-01  8.50000000E-01  8.50000000E-01  8.50000000E-01  8.00000000E-01
  8.50000000E-01  8.50000000E-01  8.50000000E-01  8.00000000E-01  8.50000000E-01
  8.50000000E-01  8.50000000E-01  8.00000000E-01  8.50000000E-01  8.50000000E-01
  8.50000000E-01  8.00000000E-01  8.50000000E-01  8.50000000E-01  8.50000000E-01
  8.00000000E-01  8.50000000E-01  8.50000000E-01  8.50000000E-01  8.00000000E-01
  8.50000000E-01  8.50000000E-01  8.50000000E-01  8.00000000E-01  8.50000000E-01
  8.50000000E-01  8.50000000E-01  8.00000000E-01  8.50000000E-01  8.50000000E-01
  8.50000000E-01  8.00000000E-01  8.50000000E-01  8.50000000E-01  8.50000000E-01
  8.00000000E-01  8.50000000E-01  8.50000000E-01  8.50000000E-01  8.00000000E-01
  8.50000000E-01  8.50000000E-01  8.50000000E-01  8.00000000E-01  8.50000000E-01
  8.50000000E-01  8.50000000E-01  8.00000000E-01  8.50000000E-01  8.50000000E-01
  8.50000000E-01  8.00000000E-01  8.50000000E-01  8.50000000E-01  8.50000000E-01
  8.00000000E-01  8.50000000E-01  8.50000000E-01  8.50000000E-01  8.00000000E-01
  8.50000000E-01  8.50000000E-01  8.50000000E-01  8.00000000E-01  8.50000000E-01
  8.50000000E-01  8.50000000E-01  8.00000000E-01  8.50000000E-01  8.50000000E-01
  8.50000000E-01  8.00000000E-01  8.50000000E-01  8.50000000E-01  8.50000000E-01
  8.00000000E-01  8.50000000E-01  8.50000000E-01  8.50000000E-01  8.00000000E-01
  8.50000000E-01  8.50000000E-01  8.50000000E-01  8.00000000E-01  8.50000000E-01
  8.50000000E-01  8.50000000E-01  8.00000000E-01  8.50000000E-01  8.50000000E-01
  8.50000000E-01  8.00000000E-01  8.50000000E-01  8.50000000E-01  8.50000000E-01
  8.00000000E-01  8.50000000E-01  8.50000000E-01  8.50000000E-01  8.00000000E-01
  8.50000000E-01  8.50000000E-01  8.50000000E-01  8.00000000E-01  8.50000000E-01
  8.50000000E-01  8.50000000E-01  8.00000000E-01  8.50000000E-01  8.50000000E-01
  8.50000000E-01  8.00000000E-01  8.50000000E-01  8.50000000E-01  8.50000000E-01
  8.00000000E-01  8.50000000E-01  8.50000000E-01  8.50000000E-01  8.00000000E-01
  8.50000000E-01  8.50000000E-01  8.50000000E-01  8.00000000E-01  8.50000000E-01
  8.50000000E-01  8.50000000E-01  8.00000000E-01  8.50000000E-01  8.50000000E-01
  8.50000000E-01  8.00000000E-01  8.50000000E-01  8.50000000E-01  8.50000000E-01
  8.00000000E-01  8.50000000E-01  8.50000000E-01  8.50000000E-01  8.00000000E-01
  8.50000000E-01  8.50000000E-01  8.50000000E-01  8.00000000E-01  8.50000000E-01
  8.50000000E-01  8.50000000E-01  8.00000000E-01  8.50000000E-01  8.50000000E-01
  8.50000000E-01  8.00000000E-01  8.50000000E-01  8.50000000E-01  8.50000000E-01
  8.00000000E-01  8.50000000E-01  8.50000000E-01  8.50000000E-01  8.00000000E-01
  8.50000000E-01  8.50000000E-01  8.50000000E-01  8.00000000E-01  8.50000000E-01
  8.50000000E-01  8.50000000E-01  8.00000000E-01  8.50000000E-01  8.50000000E-01
  8.50000000E-01  8.00000000E-01  8.50000000E-01  8.50000000E-01  8.50000000E-01
  8.00000000E-01  8.50000000E-01  8.50000000E-01  8.50000000E-01  8.00000000E-01
  8.50000000E-01  8.50000000E-01  8.50000000E-01  8.00000000E-01  8.50000000E-01
  8.50000000E-01  8.50000000E-01  8.00000000E-01  8.50000000E-01  8.50000000E-01
  8.50000000E-01  8.00000000E-01  8.50000000E-01  8.50000000E-01  8.50000000E-01
  8.00000000E-01  8.50000000E-01  8.50000000E-01  8.50000000E-01  8.00000000E-01
  8.50000000E-01  8.50000000E-01  8.50000000E-01  8.00000000E-01  8.50000000E-01
  8.50000000E-01  8.50000000E-01  8.00000000E-01  8.50000000E-01  8.50000000E-01
  8.50000000E-01  8.00000000E-01  8.50000000E-01  8.50000000E-01  8.50000000E-01
  8.00000000E-01  8.50000000E-01  8.50000000E-01  8.50000000E-01  8.00000000E-01
  8.50000000E-01  8.50000000E-01  8.50000000E-01  8.00000000E-01  8.50000000E-01
  8.50000000E-01  8.50000000E-01  8.00000000E-01  8.50000000E-01  8.50000000E-01
  8.50000000E-01  8.00000000E-01  8.50000000E-01  8.50000000E-01  8.50000000E-01
  8.00000000E-01  8.50000000E-01  8.50000000E-01  8.50000000E-01  8.00000000E-01
  8.50000000E-01  8.50000000E-01  8.50000000E-01  8.00000000E-01  8.50000000E-01
  8.50000000E-01  8.50000000E-01  8.00000000E-01  8.50000000E-01  8.50000000E-01
  8.50000000E-01  8.00000000E-01  8.50000000E-01  8.50000000E-01  8.50000000E-01
  8.00000000E-01  8.50000000E-01  8.50000000E-01  8.50000000E-01  8.00000000E-01
  8.50000000E-01  8.50000000E-01  8.50000000E-01  8.00000000E-01  8.50000000E-01
  8.50000000E-01  8.50000000E-01  8.00000000E-01  8.50000000E-01  8.50000000E-01
  8.50000000E-01  8.00000000E-01  8.50000000E-01  8.50000000E-01  8.50000000E-01
  8.00000000E-01  8.50000000E-01  8.50000000E-01  8.50000000E-01  8.00000000E-01
  8.50000000E-01  8.50000000E-01  8.50000000E-01  8.00000000E-01  8.50000000E-01
  8.50000000E-01  8.50000000E-01  8.00000000E-01  8.50000000E-01  8.50000000E-01
  8.50000000E-01  8.00000000E-01  8.50000000E-01  8.50000000E-01  8.50000000E-01
  8.00000000E-01  8.50000000E-01  8.50000000E-01  8.50000000E-01  8.00000000E-01
  8.50000000E-01  8.50000000E-01  8.50000000E-01  8.00000000E-01  8.50000000E-01
  8.50000000E-01  8.50000000E-01  8.00000000E-01  8.50000000E-01  8.50000000E-01
  8.50000000E-01  8.00000000E-01  8.50000000E-01  8.50000000E-01  8.50000000E-01
  8.00000000E-01  8.50000000E-01  8.50000000E-01  8.50000000E-01  8.00000000E-01
  8.50000000E-01  8.50000000E-01  8.50000000E-01  8.00000000E-01  8.50000000E-01
  8.50000000E-01  8.50000000E-01  8.00000000E-01  8.50000000E-01  8.50000000E-01
  8.50000000E-01  8.00000000E-01  8.50000000E-01  8.50000000E-01  8.50000000E-01
  8.00000000E-01  8.50000000E-01  8.50000000E-01  8.50000000E-01  8.00000000E-01
  8.50000000E-01  8.50000000E-01  8.50000000E-01  8.00000000E-01  8.50000000E-01
  8.50000000E-01  8.50000000E-01  8.00000000E-01  8.50000000E-01  8.50000000E-01
  8.50000000E-01  8.00000000E-01  8.50000000E-01  8.50000000E-01  8.50000000E-01
  8.00000000E-01  8.50000000E-01  8.50000000E-01  8.50000000E-01  8.00000000E-01
  8.50000000E-01  8.50000000E-01  8.50000000E-01  8.00000000E-01  8.50000000E-01
  8.50000000E-01  8.50000000E-01  8.00000000E-01  8.50000000E-01  8.50000000E-01
  8.50000000E-01  8.00000000E-01  8.50000000E-01  8.50000000E-01  8.50000000E-01
  8.00000000E-01  8.50000000E-01  8.50000000E-01  8.50000000E-01  8.00000000E-01
  8.50000000E-01  8.50000000E-01  8.50000000E-01  8.00000000E-01  8.50000000E-01
  8.50000000E-01  8.50000000E-01  8.00000000E-01  8.50000000E-01  8.50000000E-01
  8.50000000E-01  8.00000000E-01  8.50000000E-01  8.50000000E-01  8.50000000E-01
  8.00000000E-01  8.50000000E-01  8.50000000E-01  8.50000000E-01  8.00000000E-01
  8.50000000E-01  8.50000000E-01  8.50000000E-01  8.00000000E-01  8.50000000E-01
  8.50000000E-01  8.50000000E-01  8.00000000E-01  8.50000000E-01  8.50000000E-01
  8.50000000E-01  8.00000000E-01  8.50000000E-01  8.50000000E-01  8.50000000E-01
  8.00000000E-01  8.50000000E-01  8.50000000E-01  8.50000000E-01  8.00000000E-01
  8.50000000E-01  8.50000000E-01  8.50000000E-01  8.00000000E-01  8.50000000E-01
  8.50000000E-01  8.50000000E-01  8.00000000E-01  8.50000000E-01  8.50000000E-01
  8.50000000E-01  8.00000000E-01  8.50000000E-01  8.50000000E-01  8.50000000E-01
  8.00000000E-01  8.50000000E-01  8.50000000E-01  8.50000000E-01  8.00000000E-01
  8.50000000E-01  8.50000000E-01  8.50000000E-01  8.00000000E-01  8.50000000E-01
  8.50000000E-01  8.50000000E-01  8.00000000E-01  8.50000000E-01  8.50000000E-01
  8.50000000E-01  8.00000000E-01  8.50000000E-01  8.50000000E-01  8.50000000E-01
  8.00000000E-01  8.50000000E-01  8.50000000E-01  8.50000000E-01  8.00000000E-01
  8.50000000E-01  8.50000000E-01  8.50000000E-01  8.00000000E-01  8.50000000E-01
  8.50000000E-01  8.50000000E-01  8.00000000E-01  8.50000000E-01  8.50000000E-01
  8.50000000E-01  8.00000000E-01  8.50000000E-01  8.50000000E-01  8.50000000E-01
  8.00000000E-01  8.50000000E-01  8.50000000E-01  8.50000000E-01  8.00000000E-01
  8.50000000E-01  8.50000000E-01  8.50000000E-01  8.00000000E-01  8.50000000E-01
  8.50000000E-01  8.50000000E-01  8.00000000E-01  8.50000000E-01  8.50000000E-01
  8.50000000E-01  8.00000000E-01  8.50000000E-01  8.50000000E-01  8.50000000E-01
  8.00000000E-01  8.50000000E-01  8.50000000E-01  8.50000000E-01  8.00000000E-01
  8.50000000E-01  8.50000000E-01  8.50000000E-01  8.00000000E-01  8.50000000E-01
  8.50000000E-01  8.50000000E-01  8.00000000E-01  8.50000000E-01  8.50000000E-01
  8.50000000E-01  8.00000000E-01  8.50000000E-01  8.50000000E-01  8.50000000E-01
  8.00000000E-01  8.50000000E-01  8.50000000E-01  8.50000000E-01  8.00000000E-01
  8.50000000E-01  8.50000000E-01  8.50000000E-01  8.00000000E-01  8.50000000E-01
  8.50000000E-01  8.50000000E-01  8.00000000E-01  8.50000000E-01  8.50000000E-01
  8.50000000E-01  8.00000000E-01  8.50000000E-01  8.50000000E-01  8.50000000E-01
  8.00000000E-01  8.50000000E-01  8.50000000E-01  8.50000000E-01  8.00000000E-01
  8.50000000E-01  8.50000000E-01  8.50000000E-01  8.00000000E-01  8.50000000E-01
  8.50000000E-01  8.50000000E-01  8.00000000E-01  8.50000000E-01  8.50000000E-01
  8.50000000E-01  8.00000000E-01  8.50000000E-01  8.50000000E-01  8.50000000E-01
  8.00000000E-01  8.50000000E-01  8.50000000E-01  8.50000000E-01  8.00000000E-01
  8.50000000E-01  8.50000000E-01  8.50000000E-01  8.00000000E-01  8.50000000E-01
  8.50000000E-01  8.50000000E-01  8.00000000E-01  8.50000000E-01  8.50000000E-01
  8.50000000E-01  8.00000000E-01  8.50000000E-01  8.50000000E-01  8.50000000E-01
  8.00000000E-01  8.50000000E-01  8.50000000E-01  8.50000000E-01  8.00000000E-01
  8.50000000E-01  8.50000000E-01  8.50000000E-01  8.00000000E-01  8.50000000E-01
  8.50000000E-01  8.50000000E-01  8.00000000E-01  8.50000000E-01  8.50000000E-01
  8.50000000E-01  8.00000000E-01  8.50000000E-01  8.50000000E-01  8.50000000E-01
  8.00000000E-01  8.50000000E-01  8.50000000E-01  8.50000000E-01  8.00000000E-01
  8.50000000E-01  8.50000000E-01  8.50000000E-01  8.00000000E-01  8.50000000E-01
  8.50000000E-01  8.50000000E-01  8.00000000E-01  8.50000000E-01  8.50000000E-01
  8.50000000E-01  8.00000000E-01  8.50000000E-01  8.50000000E-01  8.50000000E-01
  8.00000000E-01  8.50000000E-01  8.50000000E-01  8.50000000E-01  8.00000000E-01
  8.50000000E-01  8.50000000E-01  8.50000000E-01  8.00000000E-01  8.50000000E-01
  8.50000000E-01  8.50000000E-01  8.00000000E-01  8.50000000E-01  8.50000000E-01
  8.50000000E-01  8.00000000E-01  8.50000000E-01  8.50000000E-01  8.50000000E-01
  8.00000000E-01  8.50000000E-01  8.50000000E-01  8.50000000E-01  8.00000000E-01
  8.50000000E-01  8.50000000E-01  8.50000000E-01  8.00000000E-01  8.50000000E-01
  8.50000000E-01  8.50000000E-01  8.00000000E-01  8.50000000E-01  8.50000000E-01
  8.50000000E-01  8.00000000E-01  8.50000000E-01  8.50000000E-01  8.50000000E-01
  8.00000000E-01  8.50000000E-01  8.50000000E-01  8.50000000E-01  8.00000000E-01
  8.50000000E-01  8.50000000E-01  8.50000000E-01  8.00000000E-01  8.50000000E-01
  8.50000000E-01  8.50000000E-01  8.00000000E-01  8.50000000E-01  8.50000000E-01
  8.50000000E-01  8.00000000E-01  8.50000000E-01  8.50000000E-01  8.50000000E-01
  8.00000000E-01  8.50000000E-01  8.50000000E-01  8.50000000E-01  8.00000000E-01
  8.50000000E-01  8.50000000E-01  8.50000000E-01  8.00000000E-01  8.50000000E-01
  8.50000000E-01  8.50000000E-01  8.00000000E-01  8.50000000E-01  8.50000000E-01
  8.50000000E-01  8.00000000E-01  8.50000000E-01  8.50000000E-01  8.50000000E-01
  8.00000000E-01  8.50000000E-01  8.50000000E-01  8.50000000E-01  8.00000000E-01
  8.50000000E-01  8.50000000E-01  8.50000000E-01  8.00000000E-01  8.50000000E-01
  8.50000000E-01  8.50000000E-01  8.00000000E-01  8.50000000E-01  8.50000000E-01
  8.50000000E-01  8.00000000E-01  8.50000000E-01  8.50000000E-01  8.50000000E-01
  8.00000000E-01  8.50000000E-01  8.50000000E-01  8.50000000E-01  8.00000000E-01
  8.50000000E-01  8.50000000E-01  8.50000000E-01  8.00000000E-01  8.50000000E-01
  8.50000000E-01  8.50000000E-01  8.00000000E-01  8.50000000E-01  8.50000000E-01
  8.50000000E-01  8.00000000E-01  8.50000000E-01  8.50000000E-01  8.50000000E-01
  8.00000000E-01  8.50000000E-01  8.50000000E-01  8.50000000E-01  8.00000000E-01
  8.50000000E-01  8.50000000E-01  8.50000000E-01  8.00000000E-01  8.50000000E-01
  8.50000000E-01  8.50000000E-01  8.00000000E-01  8.50000000E-01  8.50000000E-01
  8.50000000E-01  8.00000000E-01  8.50000000E-01  8.50000000E-01  8.50000000E-01
  8.00000000E-01  8.50000000E-01  8.50000000E-01  8.50000000E-01  8.00000000E-01
  8.50000000E-01  8.50000000E-01  8.50000000E-01  8.00000000E-01  8.50000000E-01
  8.50000000E-01  8.50000000E-01  8.00000000E-01  8.50000000E-01  8.50000000E-01
  8.50000000E-01  8.00000000E-01  8.50000000E-01  8.50000000E-01  8.50000000E-01
  8.00000000E-01  8.50000000E-01  8.50000000E-01  8.50000000E-01  8.00000000E-01
  8.50000000E-01  8.50000000E-01  8.50000000E-01  8.00000000E-01  8.50000000E-01
  8.50000000E-01  8.50000000E-01  8.00000000E-01  8.50000000E-01  8.50000000E-01
  8.50000000E-01  8.00000000E-01  8.50000000E-01  8.50000000E-01  8.50000000E-01
  8.00000000E-01  8.50000000E-01  8.50000000E-01  8.50000000E-01  8.00000000E-01
  8.50000000E-01  8.50000000E-01  8.50000000E-01  8.00000000E-01  8.50000000E-01
  8.50000000E-01  8.50000000E-01  8.00000000E-01  8.50000000E-01  8.50000000E-01
  8.50000000E-01  8.00000000E-01  8.50000000E-01  8.50000000E-01  8.50000000E-01
  8.00000000E-01  8.50000000E-01  8.50000000E-01  8.50000000E-01  8.00000000E-01
  8.50000000E-01  8.50000000E-01  8.50000000E-01  8.00000000E-01  8.50000000E-01
  8.50000000E-01  8.50000000E-01  8.00000000E-01  8.50000000E-01  8.50000000E-01
  8.50000000E-01  8.00000000E-01  8.50000000E-01  8.50000000E-01  8.50000000E-01
  8.00000000E-01  8.50000000E-01  8.50000000E-01  8.50000000E-01  8.00000000E-01
  8.50000000E-01  8.50000000E-01  8.50000000E-01  8.00000000E-01  8.50000000E-01
  8.50000000E-01  8.50000000E-01  8.00000000E-01  8.50000000E-01  8.50000000E-01
  8.50000000E-01  8.00000000E-01  8.50000000E-01  8.50000000E-01  8.50000000E-01
  8.00000000E-01  8.50000000E-01  8.50000000E-01  8.50000000E-01  8.00000000E-01
  8.50000000E-01  8.50000000E-01  8.50000000E-01  8.00000000E-01  8.50000000E-01
  8.50000000E-01  8.50000000E-01  8.00000000E-01  8.50000000E-01  8.50000000E-01
  8.50000000E-01  8.00000000E-01  8.50000000E-01  8.50000000E-01  8.50000000E-01
  8.00000000E-01  8.50000000E-01  8.50000000E-01  8.50000000E-01  8.00000000E-01
  8.50000000E-01  8.50000000E-01  8.50000000E-01  8.00000000E-01  8.50000000E-01
  8.50000000E-01  8.50000000E-01  8.00000000E-01  8.50000000E-01  8.50000000E-01
  8.50000000E-01  8.00000000E-01  8.50000000E-01  8.50000000E-01  8.50000000E-01
  8.00000000E-01  8.50000000E-01  8.50000000E-01  8.50000000E-01  8.00000000E-01
  8.50000000E-01  8.50000000E-01  8.50000000E-01  8.00000000E-01  8.50000000E-01
  8.50000000E-01  8.50000000E-01  8.00000000E-01  8.50000000E-01  8.50000000E-01
  8.50000000E-01  8.00000000E-01  8.50000000E-01  8.50000000E-01  8.50000000E-01
  8.00000000E-01  8.50000000E-01  8.50000000E-01  8.50000000E-01  8.00000000E-01
  8.50000000E-01  8.50000000E-01  8.50000000E-01  8.00000000E-01  8.50000000E-01
  8.50000000E-01  8.50000000E-01  8.00000000E-01  8.50000000E-01  8.50000000E-01
  8.50000000E-01  8.00000000E-01  8.50000000E-01  8.50000000E-01  8.50000000E-01
  8.00000000E-01  8.50000000E-01  8.50000000E-01  8.50000000E-01  8.00000000E-01
  8.50000000E-01  8.50000000E-01  8.50000000E-01  8.00000000E-01  8.50000000E-01
  8.50000000E-01  8.50000000E-01  8.00000000E-01  8.50000000E-01  8.50000000E-01
  8.50000000E-01  8.00000000E-01  8.50000000E-01  8.50000000E-01  8.50000000E-01
  8.00000000E-01  8.50000000E-01  8.50000000E-01  8.50000000E-01  8.00000000E-01
  8.50000000E-01  8.50000000E-01  8.50000000E-01  8.00000000E-01  8.50000000E-01
  8.50000000E-01  8.50000000E-01  8.00000000E-01  8.50000000E-01  8.50000000E-01
  8.50000000E-01  8.00000000E-01  8.50000000E-01  8.50000000E-01  8.50000000E-01
  8.00000000E-01  8.50000000E-01  8.50000000E-01  8.50000000E-01  8.00000000E-01
  8.50000000E-01  8.50000000E-01  8.50000000E-01  8.00000000E-01  8.50000000E-01
  8.50000000E-01  8.50000000E-01  8.00000000E-01  8.50000000E-01  8.50000000E-01
  8.50000000E-01  8.00000000E-01  8.50000000E-01  8.50000000E-01  8.50000000E-01
  8.00000000E-01  8.50000000E-01  8.50000000E-01  8.50000000E-01  8.00000000E-01
  8.50000000E-01  8.50000000E-01  8.50000000E-01  8.00000000E-01  8.50000000E-01
  8.50000000E-01  8.50000000E-01  8.00000000E-01  8.50000000E-01  8.50000000E-01
  8.50000000E-01  8.00000000E-01  8.50000000E-01  8.50000000E-01  8.50000000E-01
  8.00000000E-01  8.50000000E-01  8.50000000E-01  8.50000000E-01  8.00000000E-01
  8.50000000E-01  8.50000000E-01  8.50000000E-01  8.00000000E-01  8.50000000E-01
  8.50000000E-01  8.50000000E-01  8.00000000E-01  8.50000000E-01  8.50000000E-01
  8.50000000E-01  8.00000000E-01  8.50000000E-01  8.50000000E-01  8.50000000E-01
  8.00000000E-01  8.50000000E-01  8.50000000E-01  8.50000000E-01  8.00000000E-01
  8.50000000E-01  8.50000000E-01  8.50000000E-01  8.00000000E-01  8.50000000E-01
  8.50000000E-01  8.50000000E-01  8.00000000E-01  8.50000000E-01  8.50000000E-01
  8.50000000E-01  8.00000000E-01  8.50000000E-01  8.50000000E-01  8.50000000E-01
  8.00000000E-01  8.50000000E-01  8.50000000E-01  8.50000000E-01  8.00000000E-01
  8.50000000E-01  8.50000000E-01  8.50000000E-01  8.00000000E-01  8.50000000E-01
  8.50000000E-01  8.50000000E-01  8.00000000E-01  8.50000000E-01  8.50000000E-01
  8.50000000E-01  8.00000000E-01  8.50000000E-01  8.50000000E-01  8.50000000E-01
  8.00000000E-01  8.50000000E-01  8.50000000E-01  8.50000000E-01  8.00000000E-01
  8.50000000E-01  8.50000000E-01  8.50000000E-01  8.00000000E-01  8.50000000E-01
  8.50000000E-01  8.50000000E-01  8.00000000E-01  8.50000000E-01  8.50000000E-01
  8.50000000E-01  8.00000000E-01  8.50000000E-01  8.50000000E-01  8.50000000E-01
  8.00000000E-01  8.50000000E-01  8.50000000E-01  8.50000000E-01  8.00000000E-01
  8.50000000E-01  8.50000000E-01  8.50000000E-01  8.00000000E-01  8.50000000E-01
  8.50000000E-01  8.50000000E-01  8.00000000E-01  8.50000000E-01  8.50000000E-01
  8.50000000E-01  8.00000000E-01  8.50000000E-01  8.50000000E-01  8.50000000E-01
  8.00000000E-01  8.50000000E-01  8.50000000E-01  8.50000000E-01  8.00000000E-01
  8.50000000E-01  8.50000000E-01  8.50000000E-01  8.00000000E-01  8.50000000E-01
  8.50000000E-01  8.50000000E-01  8.00000000E-01  8.50000000E-01  8.50000000E-01
  8.50000000E-01  8.00000000E-01  8.50000000E-01  8.50000000E-01  8.50000000E-01
  8.00000000E-01  8.50000000E-01  8.50000000E-01  8.50000000E-01  8.00000000E-01
  8.50000000E-01  8.50000000E-01  8.50000000E-01  8.00000000E-01  8.50000000E-01
  8.50000000E-01  8.50000000E-01  8.00000000E-01  8.50000000E-01  8.50000000E-01
  8.50000000E-01  8.00000000E-01  8.50000000E-01  8.50000000E-01  8.50000000E-01
  8.00000000E-01  8.50000000E-01  8.50000000E-01  8.50000000E-01  8.00000000E-01
  8.50000000E-01  8.50000000E-01  8.50000000E-01  8.00000000E-01  8.50000000E-01
  8.50000000E-01  8.50000000E-01  8.00000000E-01  8.50000000E-01  8.50000000E-01
  8.50000000E-01  8.00000000E-01  8.50000000E-01  8.50000000E-01  8.50000000E-01
  8.00000000E-01  8.50000000E-01  8.50000000E-01  8.50000000E-01  8.00000000E-01
  8.50000000E-01  8.50000000E-01  8.50000000E-01  8.00000000E-01  8.50000000E-01
  8.50000000E-01  8.50000000E-01  8.00000000E-01  8.50000000E-01  8.50000000E-01
  8.50000000E-01  8.00000000E-01  8.50000000E-01  8.50000000E-01  8.50000000E-01
  8.00000000E-01  8.50000000E-01  8.50000000E-01  8.50000000E-01  8.00000000E-01
  8.50000000E-01  8.50000000E-01  8.50000000E-01  8.00000000E-01  8.50000000E-01
  8.50000000E-01  8.50000000E-01  8.00000000E-01  8.50000000E-01  8.50000000E-01
  8.50000000E-01  8.00000000E-01  8.50000000E-01  8.50000000E-01  8.50000000E-01
  8.00000000E-01  8.50000000E-01  8.50000000E-01  8.50000000E-01  8.00000000E-01
  8.50000000E-01  8.50000000E-01  8.50000000E-01  8.00000000E-01  8.50000000E-01
  8.50000000E-01  8.50000000E-01  8.00000000E-01  8.50000000E-01  8.50000000E-01
  8.50000000E-01  8.00000000E-01  8.50000000E-01  8.50000000E-01  8.50000000E-01
  8.00000000E-01  8.50000000E-01  8.50000000E-01  8.50000000E-01  8.00000000E-01
  8.50000000E-01  8.50000000E-01  8.50000000E-01  8.00000000E-01  8.50000000E-01
  8.50000000E-01  8.50000000E-01  8.00000000E-01  8.50000000E-01  8.50000000E-01
  8.50000000E-01  8.00000000E-01  8.50000000E-01  8.50000000E-01  8.50000000E-01
  8.00000000E-01  8.50000000E-01  8.50000000E-01  8.50000000E-01  8.00000000E-01
  8.50000000E-01  8.50000000E-01  8.50000000E-01  8.00000000E-01  8.50000000E-01
  8.50000000E-01  8.50000000E-01  8.00000000E-01  8.50000000E-01  8.50000000E-01
  8.50000000E-01  8.00000000E-01  8.50000000E-01  8.50000000E-01  8.50000000E-01
  8.00000000E-01  8.50000000E-01  8.50000000E-01  8.50000000E-01  8.00000000E-01
  8.50000000E-01  8.50000000E-01  8.50000000E-01  8.00000000E-01  8.50000000E-01
  8.50000000E-01  8.50000000E-01  8.00000000E-01  8.50000000E-01  8.50000000E-01
  8.50000000E-01  8.00000000E-01  8.50000000E-01  8.50000000E-01  8.50000000E-01
  8.00000000E-01  8.50000000E-01  8.50000000E-01  8.50000000E-01  8.00000000E-01
  8.50000000E-01  8.50000000E-01  8.50000000E-01  8.00000000E-01  8.50000000E-01
  8.50000000E-01  8.50000000E-01  8.00000000E-01  8.50000000E-01  8.50000000E-01
  8.50000000E-01  8.00000000E-01  8.50000000E-01  8.50000000E-01  8.50000000E-01
  8.00000000E-01  8.50000000E-01  8.50000000E-01  8.50000000E-01  8.00000000E-01
  8.50000000E-01  8.50000000E-01  8.50000000E-01  8.00000000E-01  8.50000000E-01
  8.50000000E-01  8.50000000E-01  8.00000000E-01  8.50000000E-01  8.50000000E-01
  8.50000000E-01  8.00000000E-01  8.50000000E-01  8.50000000E-01  8.50000000E-01
  8.00000000E-01  8.50000000E-01  8.50000000E-01  8.50000000E-01  8.00000000E-01
  8.50000000E-01  8.50000000E-01  8.50000000E-01  8.00000000E-01  8.50000000E-01
  8.50000000E-01  8.50000000E-01  8.00000000E-01  8.50000000E-01  8.50000000E-01
  8.50000000E-01  8.00000000E-01  8.50000000E-01  8.50000000E-01  8.50000000E-01
  8.00000000E-01  8.50000000E-01  8.50000000E-01  8.50000000E-01  8.00000000E-01
  8.50000000E-01  8.50000000E-01  8.50000000E-01  8.00000000E-01  8.50000000E-01
  8.50000000E-01  8.50000000E-01  8.00000000E-01  8.50000000E-01  8.50000000E-01
  8.50000000E-01  8.00000000E-01  8.50000000E-01  8.50000000E-01  8.50000000E-01
  8.00000000E-01  8.50000000E-01  8.50000000E-01  8.50000000E-01  8.00000000E-01
  8.50000000E-01  8.50000000E-01  8.50000000E-01  8.00000000E-01  8.50000000E-01
  8.50000000E-01  8.50000000E-01  8.00000000E-01  8.50000000E-01  8.50000000E-01
  8.50000000E-01  8.00000000E-01  8.50000000E-01  8.50000000E-01  8.50000000E-01
  8.00000000E-01  8.50000000E-01  8.50000000E-01  8.50000000E-01  8.00000000E-01
  8.50000000E-01  8.50000000E-01  8.50000000E-01  8.00000000E-01  8.50000000E-01
  8.50000000E-01  8.50000000E-01  8.00000000E-01  8.50000000E-01  8.50000000E-01
  8.50000000E-01  8.00000000E-01  8.50000000E-01  8.50000000E-01  8.50000000E-01
  8.00000000E-01  8.50000000E-01  8.50000000E-01  8.50000000E-01  8.00000000E-01
  8.50000000E-01  8.50000000E-01  8.50000000E-01  8.00000000E-01  8.50000000E-01
  8.50000000E-01  8.50000000E-01  8.00000000E-01  8.50000000E-01  8.50000000E-01
  8.50000000E-01  8.00000000E-01  8.50000000E-01  8.50000000E-01  8.50000000E-01
  8.00000000E-01  8.50000000E-01  8.50000000E-01  8.50000000E-01  8.00000000E-01
  8.50000000E-01  8.50000000E-01  8.50000000E-01  8.00000000E-01  8.50000000E-01
  8.50000000E-01  8.50000000E-01  8.00000000E-01  8.50000000E-01  8.50000000E-01
  8.50000000E-01  8.00000000E-01  8.50000000E-01  8.50000000E-01  8.50000000E-01
  8.00000000E-01  8.50000000E-01  8.50000000E-01  8.50000000E-01  8.00000000E-01
  8.50000000E-01  8.50000000E-01  8.50000000E-01  8.00000000E-01  8.50000000E-01
  8.50000000E-01  8.50000000E-01  8.00000000E-01  8.50000000E-01  8.50000000E-01
  8.50000000E-01  8.00000000E-01  8.50000000E-01  8.50000000E-01  8.50000000E-01
  8.00000000E-01  8.50000000E-01  8.50000000E-01  8.50000000E-01  8.00000000E-01
  8.50000000E-01  8.50000000E-01  8.50000000E-01  8.00000000E-01  8.50000000E-01
  8.50000000E-01  8.50000000E-01  8.00000000E-01  8.50000000E-01  8.50000000E-01
  8.50000000E-01  8.00000000E-01  8.50000000E-01  8.50000000E-01  8.50000000E-01
  8.00000000E-01  8.50000000E-01  8.50000000E-01  8.50000000E-01  8.00000000E-01
  8.50000000E-01  8.50000000E-01  8.50000000E-01  8.00000000E-01  8.50000000E-01
  8.50000000E-01  8.50000000E-01  8.00000000E-01  8.50000000E-01  8.50000000E-01
  8.50000000E-01  8.00000000E-01  8.50000000E-01  8.50000000E-01  8.50000000E-01
  8.00000000E-01  8.50000000E-01  8.50000000E-01  8.50000000E-01  8.00000000E-01
  8.50000000E-01  8.50000000E-01  8.50000000E-01  8.00000000E-01  8.50000000E-01
  8.50000000E-01  8.50000000E-01  8.00000000E-01  8.50000000E-01  8.50000000E-01
  8.50000000E-01  8.00000000E-01  8.50000000E-01  8.50000000E-01  8.50000000E-01
  8.00000000E-01  8.50000000E-01  8.50000000E-01  8.50000000E-01  8.00000000E-01
  8.50000000E-01  8.50000000E-01  8.50000000E-01  8.00000000E-01  8.50000000E-01
  8.50000000E-01  8.50000000E-01  8.00000000E-01  8.50000000E-01  8.50000000E-01
  8.50000000E-01  8.00000000E-01  8.50000000E-01  8.50000000E-01  8.50000000E-01
  8.00000000E-01  8.50000000E-01  8.50000000E-01  8.50000000E-01  8.00000000E-01
  8.50000000E-01  8.50000000E-01  8.50000000E-01  8.00000000E-01  8.50000000E-01
  8.50000000E-01  8.50000000E-01  8.00000000E-01  8.50000000E-01  8.50000000E-01
  8.50000000E-01  8.00000000E-01  8.50000000E-01  8.50000000E-01  8.50000000E-01
  8.00000000E-01  8.50000000E-01  8.50000000E-01  8.50000000E-01  8.00000000E-01
  8.50000000E-01  8.50000000E-01  8.50000000E-01  8.00000000E-01  8.50000000E-01
  8.50000000E-01  8.50000000E-01  8.00000000E-01  8.50000000E-01  8.50000000E-01
  8.50000000E-01  8.00000000E-01  8.50000000E-01  8.50000000E-01  8.50000000E-01
  8.00000000E-01  8.50000000E-01  8.50000000E-01  8.50000000E-01  8.00000000E-01
  8.50000000E-01  8.50000000E-01  8.50000000E-01  8.00000000E-01  8.50000000E-01
  8.50000000E-01  8.50000000E-01  8.00000000E-01  8.50000000E-01  8.50000000E-01
  8.50000000E-01  8.00000000E-01  8.50000000E-01  8.50000000E-01  8.50000000E-01
  8.00000000E-01  8.50000000E-01  8.50000000E-01  8.50000000E-01  8.00000000E-01
  8.50000000E-01  8.50000000E-01  8.50000000E-01  8.00000000E-01  8.50000000E-01
  8.50000000E-01  8.50000000E-01  8.00000000E-01  8.50000000E-01  8.50000000E-01
  8.50000000E-01  8.00000000E-01  8.50000000E-01  8.50000000E-01  8.50000000E-01
  8.00000000E-01  8.50000000E-01  8.50000000E-01  8.50000000E-01  8.00000000E-01
  8.50000000E-01  8.50000000E-01  8.50000000E-01  8.00000000E-01  8.50000000E-01
  8.50000000E-01  8.50000000E-01  8.00000000E-01  8.50000000E-01  8.50000000E-01
  8.50000000E-01  8.00000000E-01  8.50000000E-01  8.50000000E-01  8.50000000E-01
  8.00000000E-01  8.50000000E-01  8.50000000E-01  8.50000000E-01  8.00000000E-01
  8.50000000E-01  8.50000000E-01  8.50000000E-01  8.00000000E-01  8.50000000E-01
  8.50000000E-01  8.50000000E-01  8.00000000E-01  8.50000000E-01  8.50000000E-01
  8.50000000E-01  8.00000000E-01  8.50000000E-01  8.50000000E-01  8.50000000E-01
  8.00000000E-01  8.50000000E-01  8.50000000E-01  8.50000000E-01  8.00000000E-01
  8.50000000E-01  8.50000000E-01  8.50000000E-01  8.00000000E-01  8.50000000E-01
  8.50000000E-01  8.50000000E-01  8.00000000E-01  8.50000000E-01  8.50000000E-01
  8.50000000E-01  8.00000000E-01  8.50000000E-01  8.50000000E-01  8.50000000E-01
  8.00000000E-01  8.50000000E-01  8.50000000E-01  8.50000000E-01  8.00000000E-01
  8.50000000E-01  8.50000000E-01  8.50000000E-01  8.00000000E-01  8.50000000E-01
  8.50000000E-01  8.50000000E-01  8.00000000E-01  8.50000000E-01  8.50000000E-01
  8.50000000E-01  8.00000000E-01  8.50000000E-01  8.50000000E-01  8.50000000E-01
  8.00000000E-01  8.50000000E-01  8.50000000E-01  8.50000000E-01  8.00000000E-01
  8.50000000E-01  8.50000000E-01  8.50000000E-01  8.00000000E-01  8.50000000E-01
  8.50000000E-01  8.50000000E-01  8.00000000E-01  8.50000000E-01  8.50000000E-01
  8.50000000E-01  8.00000000E-01  8.50000000E-01  8.50000000E-01  8.50000000E-01
  8.00000000E-01  8.50000000E-01  8.50000000E-01  8.50000000E-01  8.00000000E-01
  8.50000000E-01  8.50000000E-01  8.50000000E-01  8.00000000E-01  8.50000000E-01
  8.50000000E-01  8.50000000E-01  8.00000000E-01  8.50000000E-01  8.50000000E-01
  8.50000000E-01  8.00000000E-01  8.50000000E-01  8.50000000E-01  8.50000000E-01
  8.00000000E-01  8.50000000E-01  8.50000000E-01  8.50000000E-01  8.00000000E-01
  8.50000000E-01  8.50000000E-01  8.50000000E-01  8.00000000E-01  8.50000000E-01
  8.50000000E-01  8.50000000E-01  8.00000000E-01  8.50000000E-01  8.50000000E-01
  8.50000000E-01  8.00000000E-01  8.50000000E-01  8.50000000E-01  8.50000000E-01
  8.00000000E-01  8.50000000E-01  8.50000000E-01  8.50000000E-01  8.00000000E-01
  8.50000000E-01  8.50000000E-01  8.50000000E-01  8.00000000E-01  8.50000000E-01
  8.50000000E-01  8.50000000E-01  8.00000000E-01  8.50000000E-01  8.50000000E-01
  8.50000000E-01  8.00000000E-01  8.50000000E-01  8.50000000E-01  8.50000000E-01
  8.00000000E-01  8.50000000E-01  8.50000000E-01  8.50000000E-01  8.00000000E-01
  8.50000000E-01  8.50000000E-01  8.50000000E-01  8.00000000E-01  8.50000000E-01
  8.50000000E-01  8.50000000E-01  8.00000000E-01  8.50000000E-01  8.50000000E-01
  8.50000000E-01  8.00000000E-01  8.50000000E-01  8.50000000E-01  8.50000000E-01
  8.00000000E-01  8.50000000E-01  8.50000000E-01  8.50000000E-01  8.00000000E-01
  8.50000000E-01  8.50000000E-01  8.50000000E-01  8.00000000E-01  8.50000000E-01
  8.50000000E-01  8.50000000E-01  8.00000000E-01  8.50000000E-01  8.50000000E-01
  8.50000000E-01  8.00000000E-01  8.50000000E-01  8.50000000E-01  8.50000000E-01
  8.00000000E-01  8.50000000E-01  8.50000000E-01  8.50000000E-01  8.00000000E-01
  8.50000000E-01  8.50000000E-01  8.50000000E-01  8.00000000E-01  8.50000000E-01
  8.50000000E-01  8.50000000E-01  8.00000000E-01  8.50000000E-01  8.50000000E-01
  8.50000000E-01  8.00000000E-01  8.50000000E-01  8.50000000E-01  8.50000000E-01
  8.00000000E-01  8.50000000E-01  8.50000000E-01  8.50000000E-01  8.00000000E-01
  8.50000000E-01  8.50000000E-01  8.50000000E-01  8.00000000E-01  8.50000000E-01
  8.50000000E-01  8.50000000E-01  8.00000000E-01  8.50000000E-01  8.50000000E-01
  8.50000000E-01  8.00000000E-01  8.50000000E-01  8.50000000E-01  8.50000000E-01
  8.00000000E-01  8.50000000E-01  8.50000000E-01  8.50000000E-01  8.00000000E-01
  8.50000000E-01  8.50000000E-01  8.50000000E-01  8.00000000E-01  8.50000000E-01
  8.50000000E-01  8.50000000E-01  8.00000000E-01  8.50000000E-01  8.50000000E-01
  8.50000000E-01  8.00000000E-01  8.50000000E-01  8.50000000E-01  8.50000000E-01
  8.00000000E-01  8.50000000E-01  8.50000000E-01  8.50000000E-01  8.00000000E-01
  8.50000000E-01  8.50000000E-01  8.50000000E-01  8.00000000E-01  8.50000000E-01
  8.50000000E-01  8.50000000E-01  8.00000000E-01  8.50000000E-01  8.50000000E-01
  8.50000000E-01  8.00000000E-01  8.50000000E-01  8.50000000E-01  8.50000000E-01
  8.00000000E-01  8.50000000E-01  8.50000000E-01  8.50000000E-01  8.00000000E-01
  8.50000000E-01  8.50000000E-01  8.50000000E-01  8.00000000E-01  8.50000000E-01
  8.50000000E-01  8.50000000E-01  8.00000000E-01  8.50000000E-01  8.50000000E-01
  8.50000000E-01  8.00000000E-01  8.50000000E-01  8.50000000E-01  8.50000000E-01
  8.00000000E-01  8.50000000E-01  8.50000000E-01  8.50000000E-01  8.00000000E-01
  8.50000000E-01  8.50000000E-01  8.50000000E-01  8.00000000E-01  8.50000000E-01
  8.50000000E-01  8.50000000E-01  8.00000000E-01  8.50000000E-01  8.50000000E-01
  8.50000000E-01  8.00000000E-01  8.50000000E-01  8.50000000E-01  8.50000000E-01
  8.00000000E-01  8.50000000E-01  8.50000000E-01  8.50000000E-01  8.00000000E-01
  8.50000000E-01  8.50000000E-01  8.50000000E-01  8.00000000E-01  8.50000000E-01
  8.50000000E-01  8.50000000E-01  8.00000000E-01  8.50000000E-01  8.50000000E-01
  8.50000000E-01  8.00000000E-01  8.50000000E-01  8.50000000E-01  8.50000000E-01
  8.00000000E-01  8.50000000E-01  8.50000000E-01  8.50000000E-01  8.00000000E-01
  8.50000000E-01  8.50000000E-01  8.50000000E-01  8.00000000E-01  8.50000000E-01
  8.50000000E-01  8.50000000E-01  8.00000000E-01  8.50000000E-01  8.50000000E-01
  8.50000000E-01  8.00000000E-01  8.50000000E-01  8.50000000E-01  8.50000000E-01
  8.00000000E-01  8.50000000E-01  8.50000000E-01  8.50000000E-01  8.00000000E-01
  8.50000000E-01  8.50000000E-01  8.50000000E-01  8.00000000E-01  8.50000000E-01
  8.50000000E-01  8.50000000E-01  8.00000000E-01  8.50000000E-01  8.50000000E-01
  8.50000000E-01  8.00000000E-01  8.50000000E-01  8.50000000E-01  8.50000000E-01
  8.00000000E-01  8.50000000E-01  8.50000000E-01  8.50000000E-01  8.00000000E-01
  8.50000000E-01  8.50000000E-01  8.50000000E-01  8.00000000E-01  8.50000000E-01
  8.50000000E-01  8.50000000E-01  8.00000000E-01  8.50000000E-01  8.50000000E-01
  8.50000000E-01  8.00000000E-01  8.50000000E-01  8.50000000E-01  8.50000000E-01
  8.00000000E-01  8.50000000E-01  8.50000000E-01  8.50000000E-01  8.00000000E-01
  8.50000000E-01  8.50000000E-01  8.50000000E-01  8.00000000E-01  8.50000000E-01
  8.50000000E-01  8.50000000E-01  8.00000000E-01  8.50000000E-01  8.50000000E-01
  8.50000000E-01  8.00000000E-01  8.50000000E-01  8.50000000E-01  8.50000000E-01
  8.00000000E-01  8.50000000E-01  8.50000000E-01  8.50000000E-01  8.00000000E-01
  8.50000000E-01  8.50000000E-01  8.50000000E-01  8.00000000E-01  8.50000000E-01
  8.50000000E-01  8.50000000E-01  8.00000000E-01  8.50000000E-01  8.50000000E-01
  8.50000000E-01  8.00000000E-01  8.50000000E-01  8.50000000E-01  8.50000000E-01
  8.00000000E-01  8.50000000E-01  8.50000000E-01  8.50000000E-01  8.00000000E-01
  8.50000000E-01  8.50000000E-01  8.50000000E-01  8.00000000E-01  8.50000000E-01
  8.50000000E-01  8.50000000E-01  8.00000000E-01  8.50000000E-01  8.50000000E-01
  8.50000000E-01  8.00000000E-01  8.50000000E-01  8.50000000E-01  8.50000000E-01
  8.00000000E-01  8.50000000E-01  8.50000000E-01  8.50000000E-01  8.00000000E-01
  8.50000000E-01  8.50000000E-01  8.50000000E-01  8.00000000E-01  8.50000000E-01
  8.50000000E-01  8.50000000E-01  8.00000000E-01  8.50000000E-01  8.50000000E-01
  8.50000000E-01  8.00000000E-01  8.50000000E-01  8.50000000E-01  8.50000000E-01
  8.00000000E-01  8.50000000E-01  8.50000000E-01  8.50000000E-01  8.00000000E-01
  8.50000000E-01  8.50000000E-01  8.50000000E-01  8.00000000E-01  8.50000000E-01
  8.50000000E-01  8.50000000E-01  8.00000000E-01  8.50000000E-01  8.50000000E-01
  8.50000000E-01  8.00000000E-01  8.50000000E-01  8.50000000E-01  8.50000000E-01
  8.00000000E-01  8.50000000E-01  8.50000000E-01  8.50000000E-01  8.00000000E-01
  8.50000000E-01  8.50000000E-01  8.50000000E-01  8.00000000E-01  8.50000000E-01
  8.50000000E-01  8.50000000E-01  8.00000000E-01  8.50000000E-01  8.50000000E-01
  8.50000000E-01  8.00000000E-01  8.50000000E-01  8.50000000E-01  8.50000000E-01
  8.00000000E-01  8.50000000E-01  8.50000000E-01  8.50000000E-01  8.00000000E-01
  8.50000000E-01  8.50000000E-01  8.50000000E-01  8.00000000E-01  8.50000000E-01
  8.50000000E-01  8.50000000E-01  8.00000000E-01  8.50000000E-01  8.50000000E-01
  8.50000000E-01  8.00000000E-01  8.50000000E-01  8.50000000E-01  8.50000000E-01
  8.00000000E-01  8.50000000E-01  8.50000000E-01  8.50000000E-01  8.00000000E-01
  8.50000000E-01  8.50000000E-01  8.50000000E-01  8.00000000E-01  8.50000000E-01
  8.50000000E-01  8.50000000E-01  8.00000000E-01  8.50000000E-01  8.50000000E-01
  8.50000000E-01  8.00000000E-01  8.50000000E-01  8.50000000E-01  8.50000000E-01
  8.00000000E-01  8.50000000E-01  8.50000000E-01  8.50000000E-01  8.00000000E-01
  8.50000000E-01  8.50000000E-01  8.50000000E-01  8.00000000E-01  8.50000000E-01
  8.50000000E-01  8.50000000E-01  8.00000000E-01  8.50000000E-01  8.50000000E-01
  8.50000000E-01  8.00000000E-01  8.50000000E-01  8.50000000E-01  8.50000000E-01
  8.00000000E-01  8.50000000E-01  8.50000000E-01  8.50000000E-01  8.00000000E-01
  8.50000000E-01  8.50000000E-01  8.50000000E-01  8.00000000E-01  8.50000000E-01
  8.50000000E-01  8.50000000E-01  8.00000000E-01  8.50000000E-01  8.50000000E-01
  8.50000000E-01  8.00000000E-01  8.50000000E-01  8.50000000E-01  8.50000000E-01
  8.00000000E-01  8.50000000E-01  8.50000000E-01  8.50000000E-01  8.00000000E-01
  8.50000000E-01  8.50000000E-01  8.50000000E-01  8.00000000E-01  8.50000000E-01
  8.50000000E-01  8.50000000E-01  8.00000000E-01  8.50000000E-01  8.50000000E-01
  8.50000000E-01  8.00000000E-01  8.50000000E-01  8.50000000E-01  8.50000000E-01
  8.00000000E-01  8.50000000E-01  8.50000000E-01  8.50000000E-01  8.00000000E-01
  8.50000000E-01  8.50000000E-01  8.50000000E-01  8.00000000E-01  8.50000000E-01
  8.50000000E-01  8.50000000E-01  8.00000000E-01  8.50000000E-01  8.50000000E-01
  8.50000000E-01  8.00000000E-01  8.50000000E-01  8.50000000E-01  8.50000000E-01
  8.00000000E-01  8.50000000E-01  8.50000000E-01  8.50000000E-01  8.00000000E-01
  8.50000000E-01  8.50000000E-01  8.50000000E-01  8.00000000E-01  8.50000000E-01
  8.50000000E-01  8.50000000E-01  8.00000000E-01  8.50000000E-01  8.50000000E-01
  8.50000000E-01  8.00000000E-01  8.50000000E-01  8.50000000E-01  8.50000000E-01
  8.00000000E-01  8.50000000E-01  8.50000000E-01  8.50000000E-01  8.00000000E-01
  8.50000000E-01  8.50000000E-01  8.50000000E-01  8.00000000E-01  8.50000000E-01
  8.50000000E-01  8.50000000E-01  8.00000000E-01  8.50000000E-01  8.50000000E-01
  8.50000000E-01  8.00000000E-01  8.50000000E-01  8.50000000E-01  8.50000000E-01
  8.00000000E-01  8.50000000E-01  8.50000000E-01  8.50000000E-01  8.00000000E-01
  8.50000000E-01  8.50000000E-01  8.50000000E-01  8.00000000E-01  8.50000000E-01
  8.50000000E-01  8.50000000E-01  8.00000000E-01  8.50000000E-01  8.50000000E-01
  8.50000000E-01  8.00000000E-01  8.50000000E-01  8.50000000E-01  8.50000000E-01
  8.00000000E-01  8.50000000E-01  8.50000000E-01  8.50000000E-01  8.00000000E-01
  8.50000000E-01  8.50000000E-01  8.50000000E-01  8.00000000E-01  8.50000000E-01
  8.50000000E-01  8.50000000E-01  8.00000000E-01  8.50000000E-01  8.50000000E-01
  8.50000000E-01  8.00000000E-01  8.50000000E-01  8.50000000E-01  8.50000000E-01
  8.00000000E-01  8.50000000E-01  8.50000000E-01  8.50000000E-01  8.00000000E-01
  8.50000000E-01  8.50000000E-01  8.50000000E-01  8.00000000E-01  8.50000000E-01
  8.50000000E-01  8.50000000E-01  8.00000000E-01  8.50000000E-01  8.50000000E-01
  8.50000000E-01  8.00000000E-01  8.50000000E-01  8.50000000E-01  8.50000000E-01
  8.00000000E-01  8.50000000E-01  8.50000000E-01  8.50000000E-01  8.00000000E-01
  8.50000000E-01  8.50000000E-01  8.50000000E-01  8.00000000E-01  8.50000000E-01
  8.50000000E-01  8.50000000E-01  8.00000000E-01  8.50000000E-01  8.50000000E-01
  8.50000000E-01  8.00000000E-01  8.50000000E-01  8.50000000E-01  8.50000000E-01
  8.00000000E-01  8.50000000E-01  8.50000000E-01  8.50000000E-01  8.00000000E-01
  8.50000000E-01  8.50000000E-01  8.50000000E-01  8.00000000E-01  8.50000000E-01
  8.50000000E-01  8.50000000E-01  8.00000000E-01  8.50000000E-01  8.50000000E-01
  8.50000000E-01  8.00000000E-01  8.50000000E-01  8.50000000E-01  8.50000000E-01
  8.00000000E-01  8.50000000E-01  8.50000000E-01  8.50000000E-01  8.00000000E-01
  8.50000000E-01  8.50000000E-01  8.50000000E-01  8.00000000E-01  8.50000000E-01
  8.50000000E-01  8.50000000E-01  8.00000000E-01  8.50000000E-01  8.50000000E-01
  8.50000000E-01  8.00000000E-01  8.50000000E-01  8.50000000E-01  8.50000000E-01
  8.00000000E-01  8.50000000E-01  8.50000000E-01  8.50000000E-01  8.00000000E-01
  8.50000000E-01  8.50000000E-01  8.50000000E-01  8.00000000E-01  8.50000000E-01
  8.50000000E-01  8.50000000E-01  8.00000000E-01  8.50000000E-01  8.50000000E-01
  8.50000000E-01  8.00000000E-01  8.50000000E-01  8.50000000E-01  8.50000000E-01
  8.00000000E-01  8.50000000E-01  8.50000000E-01  8.50000000E-01  8.00000000E-01
  8.50000000E-01  8.50000000E-01  8.50000000E-01  8.00000000E-01  8.50000000E-01
  8.50000000E-01  8.50000000E-01  8.00000000E-01  8.50000000E-01  8.50000000E-01
  8.50000000E-01  8.00000000E-01  8.50000000E-01  8.50000000E-01  8.50000000E-01
  8.00000000E-01  8.50000000E-01  8.50000000E-01  8.50000000E-01  8.00000000E-01
  8.50000000E-01  8.50000000E-01  8.50000000E-01  8.00000000E-01  8.50000000E-01
  8.50000000E-01  8.50000000E-01  8.00000000E-01  8.50000000E-01  8.50000000E-01
  8.50000000E-01  8.00000000E-01  8.50000000E-01  8.50000000E-01  8.50000000E-01
  8.00000000E-01  8.50000000E-01  8.50000000E-01  8.50000000E-01  8.00000000E-01
  8.50000000E-01  8.50000000E-01  8.50000000E-01  8.00000000E-01  8.50000000E-01
  8.50000000E-01  8.50000000E-01  8.00000000E-01  8.50000000E-01  8.50000000E-01
  8.50000000E-01  8.00000000E-01  8.50000000E-01  8.50000000E-01  8.50000000E-01
  8.00000000E-01  8.50000000E-01  8.50000000E-01  8.50000000E-01  8.00000000E-01
  8.50000000E-01  8.50000000E-01  8.50000000E-01  8.00000000E-01  8.50000000E-01
  8.50000000E-01  8.50000000E-01  8.00000000E-01  8.50000000E-01  8.50000000E-01
  8.50000000E-01  8.00000000E-01  8.50000000E-01  8.50000000E-01  8.50000000E-01
  8.00000000E-01  8.50000000E-01  8.50000000E-01  8.50000000E-01  8.00000000E-01
  8.50000000E-01  8.50000000E-01  8.50000000E-01  8.00000000E-01  8.50000000E-01
  8.50000000E-01  8.50000000E-01  8.00000000E-01  8.50000000E-01  8.50000000E-01
  8.50000000E-01  8.00000000E-01  8.50000000E-01  8.50000000E-01  8.50000000E-01
  8.00000000E-01  8.50000000E-01  8.50000000E-01  8.50000000E-01  8.00000000E-01
  8.50000000E-01  8.50000000E-01  8.50000000E-01  8.00000000E-01  8.50000000E-01
  8.50000000E-01  8.50000000E-01  8.00000000E-01  8.50000000E-01  8.50000000E-01
  8.50000000E-01  8.00000000E-01  8.50000000E-01  8.50000000E-01  8.50000000E-01
  8.00000000E-01  8.50000000E-01  8.50000000E-01  8.50000000E-01  8.00000000E-01
  8.50000000E-01  8.50000000E-01  8.50000000E-01  8.00000000E-01  8.50000000E-01
  8.50000000E-01  8.50000000E-01  8.00000000E-01  8.50000000E-01  8.50000000E-01
  8.50000000E-01  8.00000000E-01  8.50000000E-01  8.50000000E-01  8.50000000E-01
  8.00000000E-01  8.50000000E-01  8.50000000E-01  8.50000000E-01  8.00000000E-01
  8.50000000E-01  8.50000000E-01  8.50000000E-01  8.00000000E-01  8.50000000E-01
  8.50000000E-01  8.50000000E-01  8.00000000E-01  8.50000000E-01  8.50000000E-01
  8.50000000E-01  8.00000000E-01  8.50000000E-01  8.50000000E-01  8.50000000E-01
  8.00000000E-01  8.50000000E-01  8.50000000E-01  8.50000000E-01  8.00000000E-01
  8.50000000E-01  8.50000000E-01  8.50000000E-01  8.00000000E-01  8.50000000E-01
  8.50000000E-01  8.50000000E-01  8.00000000E-01  8.50000000E-01  8.50000000E-01
  8.50000000E-01  8.00000000E-01  8.50000000E-01  8.50000000E-01  8.50000000E-01
  8.00000000E-01  8.50000000E-01  8.50000000E-01  8.50000000E-01  8.00000000E-01
  8.50000000E-01  8.50000000E-01  8.50000000E-01  8.00000000E-01  8.50000000E-01
  8.50000000E-01  8.50000000E-01  8.00000000E-01  8.50000000E-01  8.50000000E-01
  8.50000000E-01  8.00000000E-01  8.50000000E-01  8.50000000E-01  8.50000000E-01
  8.00000000E-01  8.50000000E-01  8.50000000E-01  8.50000000E-01  8.00000000E-01
  8.50000000E-01  8.50000000E-01  8.50000000E-01  8.00000000E-01  8.50000000E-01
  8.50000000E-01  8.50000000E-01  8.00000000E-01  8.50000000E-01  8.50000000E-01
  8.50000000E-01  8.00000000E-01  8.50000000E-01  8.50000000E-01  8.50000000E-01
  8.00000000E-01  8.50000000E-01  8.50000000E-01  8.50000000E-01  8.00000000E-01
  8.50000000E-01  8.50000000E-01  8.50000000E-01  8.00000000E-01  8.50000000E-01
  8.50000000E-01  8.50000000E-01  8.00000000E-01  8.50000000E-01  8.50000000E-01
  8.50000000E-01  8.00000000E-01  8.50000000E-01  8.50000000E-01  8.50000000E-01
  8.00000000E-01  8.50000000E-01  8.50000000E-01  8.50000000E-01  8.00000000E-01
  8.50000000E-01  8.50000000E-01  8.50000000E-01  8.00000000E-01  8.50000000E-01
  8.50000000E-01  8.50000000E-01  8.00000000E-01  8.50000000E-01  8.50000000E-01
  8.50000000E-01  8.00000000E-01  8.50000000E-01  8.50000000E-01  8.50000000E-01
  8.00000000E-01  8.50000000E-01  8.50000000E-01  8.50000000E-01  8.00000000E-01
  8.50000000E-01  8.50000000E-01  8.50000000E-01  8.00000000E-01  8.50000000E-01
  8.50000000E-01  8.50000000E-01  8.00000000E-01  8.50000000E-01  8.50000000E-01
  8.50000000E-01  8.00000000E-01  8.50000000E-01  8.50000000E-01  8.50000000E-01
  8.00000000E-01  8.50000000E-01  8.50000000E-01  8.50000000E-01  8.00000000E-01
  8.50000000E-01  8.50000000E-01  8.50000000E-01  8.00000000E-01  8.50000000E-01
  8.50000000E-01  8.50000000E-01  8.00000000E-01  8.50000000E-01  8.50000000E-01
  8.50000000E-01  8.00000000E-01  8.50000000E-01  8.50000000E-01  8.50000000E-01
  8.00000000E-01  8.50000000E-01  8.50000000E-01  8.50000000E-01  8.00000000E-01
  8.50000000E-01  8.50000000E-01  8.50000000E-01  8.00000000E-01  8.50000000E-01
  8.50000000E-01  8.50000000E-01  8.00000000E-01  8.50000000E-01  8.50000000E-01
  8.50000000E-01  8.00000000E-01  8.50000000E-01  8.50000000E-01  8.50000000E-01
  8.00000000E-01  8.50000000E-01  8.50000000E-01  8.50000000E-01  8.00000000E-01
  8.50000000E-01  8.50000000E-01  8.50000000E-01  8.00000000E-01  8.50000000E-01
  8.50000000E-01  8.50000000E-01  8.00000000E-01  8.50000000E-01  8.50000000E-01
  8.50000000E-01  8.00000000E-01  8.50000000E-01  8.50000000E-01  8.50000000E-01
  8.00000000E-01  8.50000000E-01  8.50000000E-01  8.50000000E-01  8.00000000E-01
  8.50000000E-01  8.50000000E-01  8.50000000E-01  8.00000000E-01  8.50000000E-01
  8.50000000E-01  8.50000000E-01  8.00000000E-01  8.50000000E-01  8.50000000E-01
  8.50000000E-01  8.00000000E-01  8.50000000E-01  8.50000000E-01  8.50000000E-01
  8.00000000E-01  8.50000000E-01  8.50000000E-01  8.50000000E-01  8.00000000E-01
  8.50000000E-01  8.50000000E-01  8.50000000E-01  8.00000000E-01  8.50000000E-01
  8.50000000E-01  8.50000000E-01  8.00000000E-01  8.50000000E-01  8.50000000E-01
  8.50000000E-01  8.00000000E-01  8.50000000E-01  8.50000000E-01  8.50000000E-01
  8.00000000E-01  8.50000000E-01  8.50000000E-01  8.50000000E-01  8.00000000E-01
  8.50000000E-01  8.50000000E-01  8.50000000E-01  8.00000000E-01  8.50000000E-01
  8.50000000E-01  8.50000000E-01  8.00000000E-01  8.50000000E-01  8.50000000E-01
  8.50000000E-01  8.00000000E-01  8.50000000E-01  8.50000000E-01  8.50000000E-01
  8.00000000E-01  8.50000000E-01  8.50000000E-01  8.50000000E-01  8.00000000E-01
  8.50000000E-01  8.50000000E-01  8.50000000E-01  8.00000000E-01  8.50000000E-01
  8.50000000E-01  8.50000000E-01  8.00000000E-01  8.50000000E-01  8.50000000E-01
  8.50000000E-01  8.00000000E-01  8.50000000E-01  8.50000000E-01  8.50000000E-01
  8.00000000E-01  8.50000000E-01  8.50000000E-01  8.50000000E-01  8.00000000E-01
  8.50000000E-01  8.50000000E-01  8.50000000E-01  8.00000000E-01  8.50000000E-01
  8.50000000E-01  8.50000000E-01  8.00000000E-01  8.50000000E-01  8.50000000E-01
  8.50000000E-01  8.00000000E-01  8.50000000E-01  8.50000000E-01  8.50000000E-01
  8.00000000E-01  8.50000000E-01  8.50000000E-01  8.50000000E-01  8.00000000E-01
  8.50000000E-01  8.50000000E-01  8.50000000E-01  8.00000000E-01  8.50000000E-01
  8.50000000E-01  8.50000000E-01  8.00000000E-01  8.50000000E-01  8.50000000E-01
  8.50000000E-01  8.00000000E-01  8.50000000E-01  8.50000000E-01  8.50000000E-01
  8.00000000E-01  8.50000000E-01  8.50000000E-01  8.50000000E-01  8.00000000E-01
  8.50000000E-01  8.50000000E-01  8.50000000E-01  8.00000000E-01  8.50000000E-01
  8.50000000E-01  8.50000000E-01  8.00000000E-01  8.50000000E-01  8.50000000E-01
  8.50000000E-01  8.00000000E-01  8.50000000E-01  8.50000000E-01  8.50000000E-01
  8.00000000E-01  8.50000000E-01  8.50000000E-01  8.50000000E-01  8.00000000E-01
  8.50000000E-01  8.50000000E-01  8.50000000E-01  8.00000000E-01  8.50000000E-01
  8.50000000E-01  8.50000000E-01  8.00000000E-01  8.50000000E-01  8.50000000E-01
  8.50000000E-01  8.00000000E-01  8.50000000E-01  8.50000000E-01  8.50000000E-01
  8.00000000E-01  8.50000000E-01  8.50000000E-01  8.50000000E-01  8.00000000E-01
  8.50000000E-01  8.50000000E-01  8.50000000E-01  8.00000000E-01  8.50000000E-01
  8.50000000E-01  8.50000000E-01  8.00000000E-01  8.50000000E-01  8.50000000E-01
  8.50000000E-01  8.00000000E-01  8.50000000E-01  8.50000000E-01  8.50000000E-01
  8.00000000E-01  8.50000000E-01  8.50000000E-01  8.50000000E-01  8.00000000E-01
  8.50000000E-01  8.50000000E-01  8.50000000E-01  8.00000000E-01  8.50000000E-01
  8.50000000E-01  8.50000000E-01  8.00000000E-01  8.50000000E-01  8.50000000E-01
  8.50000000E-01  8.00000000E-01  8.50000000E-01  8.50000000E-01  8.50000000E-01
  8.00000000E-01  8.50000000E-01  8.50000000E-01  8.50000000E-01  8.00000000E-01
  8.50000000E-01  8.50000000E-01  8.50000000E-01  8.00000000E-01  8.50000000E-01
  8.50000000E-01  8.50000000E-01  8.00000000E-01  8.50000000E-01  8.50000000E-01
  8.50000000E-01  8.00000000E-01  8.50000000E-01  8.50000000E-01  8.50000000E-01
  8.00000000E-01  8.50000000E-01  8.50000000E-01  8.50000000E-01  8.00000000E-01
  8.50000000E-01  8.50000000E-01  8.50000000E-01  8.00000000E-01  8.50000000E-01
  8.50000000E-01  8.50000000E-01  8.00000000E-01  8.50000000E-01  8.50000000E-01
  8.50000000E-01  8.00000000E-01  8.50000000E-01  8.50000000E-01  8.50000000E-01
  8.00000000E-01  8.50000000E-01  8.50000000E-01  8.50000000E-01  8.00000000E-01
  8.50000000E-01  8.50000000E-01  8.50000000E-01  8.00000000E-01  8.50000000E-01
  8.50000000E-01  8.50000000E-01  8.00000000E-01  8.50000000E-01  8.50000000E-01
  8.50000000E-01  8.00000000E-01  8.50000000E-01  8.50000000E-01  8.50000000E-01
  8.00000000E-01  8.50000000E-01  8.50000000E-01  8.50000000E-01  8.00000000E-01
  8.50000000E-01  8.50000000E-01  8.50000000E-01  8.00000000E-01  8.50000000E-01
  8.50000000E-01  8.50000000E-01  8.00000000E-01  8.50000000E-01  8.50000000E-01
  8.50000000E-01  8.00000000E-01  8.50000000E-01  8.50000000E-01  8.50000000E-01
  8.00000000E-01  8.50000000E-01  8.50000000E-01  8.50000000E-01  8.00000000E-01
  8.50000000E-01  8.50000000E-01  8.50000000E-01  8.00000000E-01  8.50000000E-01
  8.50000000E-01  8.50000000E-01  8.00000000E-01  8.50000000E-01  8.50000000E-01
  8.50000000E-01  8.00000000E-01  8.50000000E-01  8.50000000E-01  8.50000000E-01
  8.00000000E-01  8.50000000E-01  8.50000000E-01  8.50000000E-01  8.00000000E-01
  8.50000000E-01  8.50000000E-01  8.50000000E-01  8.00000000E-01  8.50000000E-01
  8.50000000E-01  8.50000000E-01  8.00000000E-01  8.50000000E-01  8.50000000E-01
  8.50000000E-01  8.00000000E-01  8.50000000E-01  8.50000000E-01  8.50000000E-01
  8.00000000E-01  8.50000000E-01  8.50000000E-01  8.50000000E-01  8.00000000E-01
  8.50000000E-01  8.50000000E-01  8.50000000E-01  8.00000000E-01  8.50000000E-01
  8.50000000E-01  8.50000000E-01  8.00000000E-01  8.50000000E-01  8.50000000E-01
  8.50000000E-01  8.00000000E-01  8.50000000E-01  8.50000000E-01  8.50000000E-01
  8.00000000E-01  8.50000000E-01  8.50000000E-01  8.50000000E-01  8.00000000E-01
  8.50000000E-01  8.50000000E-01  8.50000000E-01  8.00000000E-01  8.50000000E-01
  8.50000000E-01  8.50000000E-01  8.00000000E-01  8.50000000E-01  8.50000000E-01
  8.50000000E-01  8.00000000E-01  8.50000000E-01  8.50000000E-01  8.50000000E-01
  8.00000000E-01
%FLAG IPOL                                                                      
%FORMAT(1I8)                                                                    
       0
